
 Primary working directories    : /global/cscratch1/sd/bkincaid
 Secondary working directories  : /global/cscratch1/sd/bkincaid
 Wavefunction directory         : /global/homes/b/bkincaid/wfu/
 Main file repository           : /global/cscratch1/sd/bkincaid/

 SHA1      : 19cd028119e0e09f93f0674bd8af7968d9b3eff6
 NAME      : 2015.1.36
 ARCHNAME  : linux/x86_64
 FC        : /opt/cray/pe/craype/2.5.14/bin/ftn
 BLASLIB   : -L/opt/intel/compilers_and_libraries_2018.1.163/linux/mkl/lib/intel64 -Wl,-_start-group -lmkl_intel_ilp64 -lmkl_intel_thread -lmkl_core -Wl,-_end-group -liomp5
 id        : lbl

 Nodes     nprocs
 nid00785    11
 Number of processes for MPI-2 version of Molpro:   nprocs(total)=   12   nprocs(compute)=   11   nprocs(helper)=    1

 Using customized tuning parameters: mindgm=7; mindgv=16; mindgc=1; mindgr=1; noblas=0; minvec=7
 default implementation of scratch files=sf  

 ***,Calculation for IrO groundstate
 memory,1024,m
 gthresh,twoint=1.0E-15
 gthresh,throvl=1.0E-15
 
 set,dkroll=1,dkho=10,dkhp=4
 
 basis={
 Including file /global/u1/b/bkincaid/molpro/Ir/molecules/tz/IrO/ae/1.600/tz.basis
 Including file /global/u1/b/bkincaid/molpro/Ir/molecules/tz/IrO/ae/1.600/O-aug-cc-CVTZ.basis
 }
 
 ne = 85
 
 A1=20
 B1=10
 B2=10
 A2=4
 
 do i=1,1
 z(i) = 1.600 - 0.1*(i-1)
 geometry={
 2
 IrO
 Ir 0.0 0.0 0.0
 O 0.0 0.0 z(i)
 }
         {rhf
         wf,nelec=ne,spin=3,sym=1
                                                                                 !occ,A1,B1,B2,A2
                                                                                 !closed,A1,B1-1,B2-1,A2-1
         print,orbitals=2
         }
         {rhf
         wf,nelec=ne,spin=3,sym=1
                 occ,A1,B1,B2,A2
                 closed,A1,B1-1,B2-1,A2-1
         print,orbitals=2
         }
         scf(i)=energy
         _CC_NORM_MAX=2.0
         {rccsd(t);maxit,100;core}
         ccsd(i)=energy
 enddo
 
 table,z,scf,ccsd
 save
 type,csv
 

 Variables initialized (889), CPU time= 0.00 sec
 Commands  initialized (702), CPU time= 0.01 sec, 572 directives.
 Default parameters read. Elapsed time= 0.11 sec

 Checking input...
 Passed
1


                                         ***  PROGRAM SYSTEM MOLPRO  ***
                                       Copyright, TTI GmbH Stuttgart, 2015
                                    Version 2015.1 linked Dec 29 2018 15:55:43


 **********************************************************************************************************************************
 LABEL *   Calculation for IrO groundstate                                               
  64 bit mpp version                                                                     DATE: 06-Jun-21          TIME: 17:07:09  
 **********************************************************************************************************************************

 SHA1:             19cd028119e0e09f93f0674bd8af7968d9b3eff6
 **********************************************************************************************************************************

 THRESHOLDS:

 ZERO    =  1.00D-12  ONEINT  =  1.00D-12  TWOINT  =  1.00D-15  PREFAC  =  1.00D-14  LOCALI  =  1.00D-09  EORDER  =  1.00D-04
 ENERGY  =  0.00D+00  ETEST   =  0.00D+00  EDENS   =  0.00D+00  THRDEDEF=  1.00D-06  GRADIENT=  1.00D-02  STEP    =  1.00D-03
 ORBITAL =  1.00D-05  CIVEC   =  1.00D-05  COEFF   =  1.00D-04  PRINTCI =  5.00D-02  PUNCHCI =  9.90D+01  OPTGRAD =  3.00D-04
 OPTENERG=  1.00D-06  OPTSTEP =  3.00D-04  THRGRAD =  1.00D-10  COMPRESS=  1.00D-11  VARMIN  =  1.00D-07  VARMAX  =  1.00D-03
 THRDOUB =  0.00D+00  THRDIV  =  1.00D-05  THRRED  =  1.00D-07  THRPSP  =  1.00D+00  THRDC   =  1.00D-10  THRCS   =  1.00D-10
 THRNRM  =  1.00D-08  THREQ   =  0.00D+00  THRDE   =  1.00D+00  THRREF  =  1.00D-05  SPARFAC =  1.00D+00  THRDLP  =  1.00D-07
 THRDIA  =  1.00D-10  THRDLS  =  1.00D-07  THRGPS  =  0.00D+00  THRKEX  =  0.00D+00  THRDIS  =  2.00D-01  THRVAR  =  1.00D-10
 THRLOC  =  1.00D-06  THRGAP  =  1.00D-06  THRLOCT = -1.00D+00  THRGAPT = -1.00D+00  THRORB  =  1.00D-06  THRMLTP =  0.00D+00
 THRCPQCI=  1.00D-10  KEXTA   =  0.00D+00  THRCOARS=  0.00D+00  SYMTOL  =  1.00D-06  GRADTOL =  1.00D-06  THROVL  =  1.00D-08
 THRORTH =  1.00D-08  GRID    =  1.00D-06  GRIDMAX =  1.00D-03  DTMAX   =  0.00D+00  THROCCDE=  1.00D-01  THROCCDE=  1.00D-01



 THRESHOLDS:

 ZERO    =  1.00D-12  ONEINT  =  1.00D-12  TWOINT  =  1.00D-15  PREFAC  =  1.00D-14  LOCALI  =  1.00D-09  EORDER  =  1.00D-04
 ENERGY  =  0.00D+00  ETEST   =  0.00D+00  EDENS   =  0.00D+00  THRDEDEF=  1.00D-06  GRADIENT=  1.00D-02  STEP    =  1.00D-03
 ORBITAL =  1.00D-05  CIVEC   =  1.00D-05  COEFF   =  1.00D-04  PRINTCI =  5.00D-02  PUNCHCI =  9.90D+01  OPTGRAD =  3.00D-04
 OPTENERG=  1.00D-06  OPTSTEP =  3.00D-04  THRGRAD =  1.00D-10  COMPRESS=  1.00D-11  VARMIN  =  1.00D-07  VARMAX  =  1.00D-03
 THRDOUB =  0.00D+00  THRDIV  =  1.00D-05  THRRED  =  1.00D-07  THRPSP  =  1.00D+00  THRDC   =  1.00D-10  THRCS   =  1.00D-10
 THRNRM  =  1.00D-08  THREQ   =  0.00D+00  THRDE   =  1.00D+00  THRREF  =  1.00D-05  SPARFAC =  1.00D+00  THRDLP  =  1.00D-07
 THRDIA  =  1.00D-10  THRDLS  =  1.00D-07  THRGPS  =  0.00D+00  THRKEX  =  0.00D+00  THRDIS  =  2.00D-01  THRVAR  =  1.00D-10
 THRLOC  =  1.00D-06  THRGAP  =  1.00D-06  THRLOCT = -1.00D+00  THRGAPT = -1.00D+00  THRORB  =  1.00D-06  THRMLTP =  0.00D+00
 THRCPQCI=  1.00D-10  KEXTA   =  0.00D+00  THRCOARS=  0.00D+00  SYMTOL  =  1.00D-06  GRADTOL =  1.00D-06  THROVL  =  1.00D-15
 THRORTH =  1.00D-08  GRID    =  1.00D-06  GRIDMAX =  1.00D-03  DTMAX   =  0.00D+00  THROCCDE=  1.00D-01  THROCCDE=  1.00D-01


 SETTING DKROLL         =         1.00000000                                  
 SETTING DKHO           =        10.00000000                                  
 SETTING DKHP           =         4.00000000                                  

 Variable memory set to 1024000000 words,  buffer space   230000 words

 SETTING BASIS          =    USERDEF
 SETTING NE             =        85.00000000                                  
 SETTING A1             =        20.00000000                                  
 SETTING B1             =        10.00000000                                  
 SETTING B2             =        10.00000000                                  
 SETTING A2             =         4.00000000                                  

 DO I                   =         1.00000000   
 SETTING Z(1)           =         1.60000000                                  

Geometry recognized as XYZ



 Recomputing integrals since basis changed


 Using spherical harmonics



 PROGRAM * SEWARD (Integral evaluation for generally contracted gaussian basis sets)     Author: Roland Lindh, 1990

 Geometry written to block  1 of record 700


 Point group  C2v 



 ATOMIC COORDINATES

 NR  ATOM    CHARGE       X              Y              Z

   1  IR     77.00    0.000000000    0.000000000    0.000000000
   2  O       8.00    0.000000000    0.000000000    3.023561799

 Bond lengths in Bohr (Angstrom)

 1-2  3.023561799
     ( 1.600000000)

 NUCLEAR CHARGE:                   85
 NUMBER OF PRIMITIVE AOS:         541
 NUMBER OF SYMMETRY AOS:          446
 NUMBER OF CONTRACTIONS:          446   ( 185A1  + 106B1  + 106B2  +  49A2  )
 NUMBER OF CORE ORBITALS:          35   (  16A1  +   8B1  +   8B2  +   3A2  )
 NUMBER OF VALENCE ORBITALS:       10   (   5A1  +   2B1  +   2B2  +   1A2  )


 NUCLEAR REPULSION ENERGY  203.73322620

 One-electron integrals computed with SEWARD

 10nd-order Douglas-Kroll-Hess method activated. McWeeny DKH parametrization is used.

 Computing Douglas-Kroll / X2C integrals

 AO integral compression algorithm  1   Integral accuracy      1.0D-15

     4616.356 MB (compressed) written to integral file ( 39.4%)

     Node minimum: 226.755 MB, node maximum: 838.337 MB


 NUMBER OF SORTED TWO-ELECTRON INTEGRALS:  115711532.     BUFFER LENGTH:  32768
 NUMBER OF SEGMENTS:   4  SEGMENT LENGTH:   31989761      RECORD LENGTH: 524288

 Memory used in sort:      32.55 MW

 SORT1 READ  1465035727. AND WROTE    46084038. INTEGRALS IN    135 RECORDS. CPU TIME:    21.22 SEC, REAL TIME:    28.76 SEC
 SORT2 READ   503453111. AND WROTE  1273302750. INTEGRALS IN  16016 RECORDS. CPU TIME:     2.02 SEC, REAL TIME:     3.45 SEC

 Node minimum:   115641882.  Node maximum:   115920125. integrals

 OPERATOR DM      FOR CENTER  0  COORDINATES:    0.000000    0.000000    0.000000

 EXTRA SYMMETRY OF AOS IN SYMMETRY 1:   1 1 1 1 1 1 1 1 1 1   1 1 1 1 1 1 1 1 1 1   1 1 1 1 1 1 1 1 1 1   1 1 1 1 1 1 1 1 1 1
                                        1 1 1 1 1 1 1 1 1 1   1 1 1 1 1 1 1 1 1 1   1 1 1 1 1 1 1 1 1 1   1 1 1 1 1 1 1 1 1 1
                                        1 1 1 1 1 1 1 1 1 1   1 1 1 1 1 1 1 1 1 1   1 1 1 1 1 1 1 1 1 1   1 1 1 1 1 1 1 1 1 1
                                        1 1 1 1 1 1 1 1 1 1   1 1 1 1 1 1 1 1 1 1   1 1 1 1 2 1 1 2 1 1   2 1 1 1 1 1 1 1 1 1
                                        1 1 1 1 1 1 1 1 1 1   1 1 1 1 1 1 1 1 1 1   1 1 1 1 1
 EXTRA SYMMETRY OF AOS IN SYMMETRY 2:   1 1 1 1 1 1 1 1 1 1   1 1 1 1 1 1 1 1 1 1   1 1 1 1 1 1 1 1 1 1   1 1 1 1 1 1 1 1 1 1
                                        1 1 1 1 1 1 1 1 1 1   1 1 1 1 1 2 1 2 1 2   1 2 1 2 1 2 1 2 1 2   1 2 1 2 1 2 1 2 1 2
                                        1 2 1 2 1 2 1 2 1 2   1 1 1 1 1 1 1 1 1 1   1 1 1 2 1 2
 EXTRA SYMMETRY OF AOS IN SYMMETRY 3:   1 1 1 1 1 1 1 1 1 1   1 1 1 1 1 1 1 1 1 1   1 1 1 1 1 1 1 1 1 1   1 1 1 1 1 1 1 1 1 1
                                        1 1 1 1 1 1 1 1 1 1   1 1 1 1 1 2 1 2 1 2   1 2 1 2 1 2 1 2 1 2   1 2 1 2 1 2 1 2 1 2
                                        1 2 1 2 1 2 1 2 1 2   1 1 1 1 1 1 1 1 1 1   1 1 1 2 1 2
 EXTRA SYMMETRY OF AOS IN SYMMETRY 4:   1 1 1 1 1 1 1 1 1 1   1 1 1 1 1 1 1 1 1 1   1 1 1 1 1 1 1 1 1 1   1 1 1 1 1 1 1 1 2 1
                                        2 1 2 1 1 1 1 1 1

 Eigenvalues of metric

         1 0.162E-06 0.351E-06 0.762E-06 0.805E-06 0.140E-05 0.470E-05 0.507E-05 0.115E-04
         2 0.172E-06 0.800E-06 0.511E-05 0.116E-04 0.263E-04 0.511E-04 0.547E-04 0.555E-04
         3 0.172E-06 0.800E-06 0.511E-05 0.116E-04 0.263E-04 0.511E-04 0.547E-04 0.555E-04
         4 0.805E-06 0.267E-04 0.542E-04 0.165E-03 0.628E-03 0.978E-03 0.214E-02 0.552E-02


 **********************************************************************************************************************************
 DATASETS  * FILE   NREC   LENGTH (MB)   RECORD NAMES
              1      22       23.93       500      610      700      900      950      970     1000      129      960     1700   
                                          VAR    BASINP    GEOM    SYMINP    ZMAT    AOBASIS   BASIS     P2S    ABASIS    OPER   
                                         1101     1401     1411     1412     1650     1100     1400     1410     1200     1210   
                                          SR      EKINR    POTR     PVPR    MOLCAS      S      EKIN      POT      H0       H01  
                                         1080     1600   
                                         AOSYM     SMH  

 PROGRAMS   *        TOTAL       INT
 CPU TIMES  *       172.61    172.39
 REAL TIME  *       183.28 SEC
 DISK USED  *        10.72 GB      
 GA USED    *         0.00 MB       (max)       0.00 MB       (current)
 **********************************************************************************************************************************


 PROGRAM * RHF-SCF (OPEN SHELL)       Authors: W. Meyer, H.-J. Werner


 NUMBER OF ELECTRONS:      44+   41-    SPACE SYMMETRY=1    SPIN SYMMETRY: Quartet 
 CONVERGENCE THRESHOLDS:    1.00E-05 (Density)    1.70E-07 (Energy)
 MAX. NUMBER OF ITERATIONS:       60
 INTERPOLATION TYPE:            DIIS
 INTERPOLATION STEPS:              2 (START)      1 (STEP)
 LEVEL SHIFTS:                 -0.60 (CLOSED) -0.30 (OPEN) 



 Orbital guess generated from atomic densities. Full valence occupancy:   21  10  10   4

 Molecular orbital dump at record        2100.2

 Initial alpha occupancy:  21  10  10   3
 Initial beta  occupancy:  20   8  10   3
 Wave function symmetry:    1

 ITERATION    DDIFF          GRAD             ENERGY        2-EL.EN.            DIPOLE MOMENTS         DIIS   ORB.
    1      0.000D+00      0.000D+00    -17888.95710738  13022.775369    0.00000    0.00000   -4.05235    0    start
    2      0.000D+00      0.318D-01    -17895.76397801  14208.666055    0.00000    0.00000    2.54962    1    diag,B
    3      0.316D+01      0.582D-01    -17899.96032445  13955.810780    0.00000    0.00000    0.25866    2    diag,B
    4      0.701D-01      0.221D-01    -17901.27005405  13830.621638    0.00000    0.00000   -0.62559    3    diag,B
    5      0.224D-01      0.902D-02    -17901.59358448  13760.128013    0.00000    0.00000   -1.04425    4    diag,B
    6      0.714D-02      0.250D-02    -17901.64681195  13729.407201    0.00000    0.00000   -1.14142    5    diag,B
    7      0.333D-02      0.745D-03    -17901.65552027  13724.919813    0.00000    0.00000   -1.10151    6    fixocc
    8      0.175D-02      0.483D-03    -17901.66015875  13724.488326    0.00000    0.00000   -1.01306    7    diag,B
    9      0.915D-03      0.243D-03    -17901.66268109  13723.824084    0.00000    0.00000   -0.94262    8    diag,B
   10      0.590D-03      0.142D-03    -17901.66430346  13723.393699    0.00000    0.00000   -0.87096    9    orth
   11      0.489D-03      0.937D-04    -17901.66521652  13722.883370    0.00000    0.00000   -0.82574    9    diag,B
   12      0.331D-03      0.673D-04    -17901.66589257  13722.347212    0.00000    0.00000   -0.79095    9    diag,B
   13      0.342D-03      0.522D-04    -17901.66620315  13722.217000    0.00000    0.00000   -0.78385    9    diag,B
   14      0.129D-03      0.471D-04    -17901.66662818  13722.032912    0.00000    0.00000   -0.78442    9    diag,B
   15      0.163D-03      0.435D-04    -17901.66700891  13721.910106    0.00000    0.00000   -0.78985    9    diag,B
   16      0.141D-03      0.418D-04    -17901.66730089  13721.836550    0.00000    0.00000   -0.79813    9    diag,B
   17      0.123D-03      0.413D-04    -17901.66772338  13721.667410    0.00000    0.00000   -0.80703    9    diag,B
   18      0.169D-03      0.409D-04    -17901.66831073  13721.437482    0.00000    0.00000   -0.82136    9    diag,B
   19      0.232D-03      0.403D-04    -17901.66899695  13721.082706    0.00000    0.00000   -0.83676    9    diag,B
   20      0.273D-03      0.407D-04    -17901.66902706  13721.151786    0.00000    0.00000   -0.83679    9    orth
   21      0.232D-04      0.389D-04    -17901.67124704  13719.563350    0.00000    0.00000   -0.89134    9    diag,B
   22      0.971D-03      0.133D-03    -17901.67104000  13719.678048    0.00000    0.00000   -0.88325    9    diag,B
   23      0.116D-03      0.104D-03    -17901.67150318  13719.442324    0.00000    0.00000   -0.89475    9    diag,B
   24      0.230D-03      0.119D-03    -17901.67078684  13719.914385    0.00000    0.00000   -0.87570    9    diag,B
   25      0.355D-03      0.629D-04    -17901.67138355  13719.508766    0.00000    0.00000   -0.89054    9    diag,B
   26      0.285D-03      0.971D-04    -17901.67127229  13719.577081    0.00000    0.00000   -0.88779    9    diag,B
   27      0.547D-04      0.909D-04    -17901.67089409  13719.821462    0.00000    0.00000   -0.87915    9    diag,B
   28      0.177D-03      0.752D-04    -17901.67086310  13719.843220    0.00000    0.00000   -0.87824    9    diag,B
   29      0.146D-04      0.731D-04    -17901.67159523  13719.389093    0.00000    0.00000   -0.89676    9    diag,B
   30      0.361D-03      0.120D-03    -17901.67105577  13719.713008    0.00000    0.00000   -0.88306    9    orth
   31      0.271D-03      0.832D-04    -17901.67094898  13719.782781    0.00000    0.00000   -0.88061    9    diag,B
   32      0.496D-04      0.787D-04    -17901.67091953  13719.803862    0.00000    0.00000   -0.87974    9    diag,B
   33      0.141D-04      0.764D-04    -17901.67149296  13719.444817    0.00000    0.00000   -0.89370    9    diag,B
   34      0.278D-03      0.108D-03    -17901.67096271  13719.774555    0.00000    0.00000   -0.88084    9    diag,B
   35      0.258D-03      0.787D-04    -17901.67092850  13719.797220    0.00000    0.00000   -0.88004    9    diag,B
   36      0.158D-04      0.772D-04    -17901.67100458  13719.747143    0.00000    0.00000   -0.88184    9    diag,B
   37      0.352D-04      0.805D-04    -17901.67103248  13719.728764    0.00000    0.00000   -0.88255    9    diag,B
   38      0.131D-04      0.820D-04    -17901.67119552  13719.623389    0.00000    0.00000   -0.88654    9    diag,B
   39      0.776D-04      0.910D-04    -17901.67100720  13719.745005    0.00000    0.00000   -0.88197    9    diag,B
   40      0.894D-04      0.810D-04    -17901.67099553  13719.752651    0.00000    0.00000   -0.88170    9    orth
   41      0.543D-05      0.805D-04    -17901.67100154  13719.749070    0.00000    0.00000   -0.88181    9    diag,B
   42      0.277D-05      0.805D-04    -17901.67098333  13719.773662    0.00000    0.00000   -0.87965    9    diag,B
   43      0.238D-04      0.692D-04    -17901.67150985  13719.420811    0.00000    0.00000   -0.89066    9    diag,B
   44      0.249D-03      0.918D-04    -17901.67092349  13719.805224    0.00000    0.00000   -0.87890    9    diag,B
   45      0.275D-03      0.725D-04    -17901.67082975  13719.872245    0.00000    0.00000   -0.87643    9    diag,B
   46      0.434D-04      0.671D-04    -17901.67126285  13719.580157    0.00000    0.00000   -0.88739    9    diag,B
   47      0.204D-03      0.914D-04    -17901.67118806  13719.627873    0.00000    0.00000   -0.88568    9    diag,B
   48      0.358D-04      0.877D-04    -17901.67092770  13719.798391    0.00000    0.00000   -0.87979    9    diag,B
   49      0.121D-03      0.763D-04    -17901.67093489  13719.793812    0.00000    0.00000   -0.87996    9    diag,B
   50      0.337D-05      0.765D-04    -17901.67101162  13719.744294    0.00000    0.00000   -0.88281    9    orth
   51      0.387D-04      0.834D-04    -17901.67106208  13719.708569    0.00000    0.00000   -0.88386    9    diag,B
   52      0.236D-04      0.859D-04    -17901.67143720  13719.486064    0.00000    0.00000   -0.89536    9    diag,B
   53      0.195D-03      0.117D-03    -17901.67098085  13719.760880    0.00000    0.00000   -0.88179    9    diag,B
   54      0.233D-03      0.818D-04    -17901.67096914  13719.768192    0.00000    0.00000   -0.88157    9    diag,B
   55      0.533D-05      0.816D-04    -17901.67072409  13719.957603    0.00000    0.00000   -0.87234    9    diag,B
   56      0.121D-03      0.562D-04    -17901.67146192  13719.452767    0.00000    0.00000   -0.89075    9    diag,B
   57      0.348D-03      0.980D-04    -17901.67124836  13719.588130    0.00000    0.00000   -0.88600    9    diag,B
   58      0.104D-03      0.863D-04    -17901.67097593  13719.767220    0.00000    0.00000   -0.88057    9    diag,B
   59      0.126D-03      0.770D-04    -17901.67108124  13718.943319    0.00000    0.00000   -0.87421    9    orth
   60      0.993D-04      0.108D-03    -17901.67127221  13719.812389    0.00000    0.00000   -0.87146    0    orth

 Final alpha occupancy:  20  10  10   4
 Final beta  occupancy:  19   8  10   4

 !RHF STATE 1.1 Energy               -17901.6712722099    
 Nuclear energy                       203.73322620
 One-electron energy               -24965.31069312
 Two-electron energy                 6859.90619471
 Virial quotient                       -0.67993883
 !RHF STATE 1.1 Dipole moment           0.00000000     0.00000000    -0.87146256
 Dipole moment /Debye                   0.00000000     0.00000000    -2.21489181

 ELECTRON ORBITALS
 =================


   Orb  Occ    Energy  Couls-En    Coefficients

                                   1 1s      1 1s      1 1s      1 1s      1 1s      1 1s      1 1s      1 1s      1 1s      1 1s   
                                   1 1s      1 1s      1 1s      1 1s      1 1s      1 1s      1 1s      1 1s      1 1s      1 1s   
                                   1 1s      1 1s      1 1s      1 1s      1 1s      1 1s      1 1s      1 1s      1 1s      1 1s   
                                   1 1s      1 1s      1 1s      1 1s      1 1s      1 1s      1 1s      1 2pz     1 2pz     1 2pz  
                                   1 2pz     1 2pz     1 2pz     1 2pz     1 2pz     1 2pz     1 2pz     1 2pz     1 2pz     1 2pz  
                                   1 2pz     1 2pz     1 2pz     1 2pz     1 2pz     1 2pz     1 2pz     1 2pz     1 2pz     1 2pz  
                                   1 2pz     1 2pz     1 2pz     1 2pz     1 2pz     1 2pz     1 2pz     1 2pz     1 2pz     1 3d0  
                                   1 3d2+    1 3d0     1 3d2+    1 3d0     1 3d2+    1 3d0     1 3d2+    1 3d0     1 3d2+    1 3d0  
                                   1 3d2+    1 3d0     1 3d2+    1 3d0     1 3d2+    1 3d0     1 3d2+    1 3d0     1 3d2+    1 3d0  
                                   1 3d2+    1 3d0     1 3d2+    1 3d0     1 3d2+    1 3d0     1 3d2+    1 3d0     1 3d2+    1 3d0  
                                   1 3d2+    1 3d0     1 3d2+    1 3d0     1 3d2+    1 3d0     1 3d2+    1 3d0     1 3d2+    1 3d0  
                                   1 3d2+    1 3d0     1 3d2+    1 4f0     1 4f2+    1 4f0     1 4f2+    1 4f0     1 4f2+    1 4f0  
                                   1 4f2+    1 4f0     1 4f2+    1 4f0     1 4f2+    1 4f0     1 4f2+    1 4f0     1 4f2+    1 4f0  
                                   1 4f2+    1 4f0     1 4f2+    1 4f0     1 4f2+    1 4f0     1 4f2+    1 4f0     1 4f2+    1 4f0  
                                   1 4f2+    1 4f0     1 4f2+    1 5g0     1 5g4+    1 5g2+    1 5g0     1 5g4+    1 5g2+    1 5g0  
                                   1 5g4+    1 5g2+    2 1s      2 1s      2 1s      2 1s      2 1s      2 1s      2 1s      2 1s   
                                   2 1s      2 1s      2 1s      2 1s      2 1s      2 2pz     2 2pz     2 2pz     2 2pz     2 2pz  
                                   2 2pz     2 2pz     2 2pz     2 3d0     2 3d2+    2 3d0     2 3d2+    2 3d0     2 3d2+    2 3d0  
                                   2 3d2+    2 4f0     2 4f2+    2 4f0     2 4f2+ 

   1.1   2 -2813.1589-6060.3349  0.000014  0.000038  0.000104  0.000238  0.000499  0.000967  0.001786  0.003190  0.005597  0.009730
                                 0.016892  0.029390  0.051246  0.088886  0.149608  0.231171  0.289997  0.001232  0.238663  0.091363
                                 0.007976  0.001180 -0.001213  0.002509 -0.003703  0.002249 -0.000669  0.000607 -0.001086  0.000868
                                -0.000235  0.000204 -0.000112  0.000008 -0.000004  0.000000 -0.000000 -0.000000 -0.000000 -0.000000
                                -0.000000 -0.000000 -0.000000 -0.000000 -0.000000 -0.000000 -0.000000 -0.000000 -0.000000 -0.000000
                                -0.000000 -0.000000 -0.000000  0.000000 -0.000000  0.000000 -0.000000  0.000000 -0.000003  0.000005
                                -0.000005  0.000005 -0.000002 -0.000000  0.000003 -0.000003  0.000002 -0.000001  0.000000  0.000000
                                 0.000000  0.000000  0.000000  0.000000 -0.000000  0.000000 -0.000000  0.000000 -0.000000  0.000000
                                 0.000000 -0.000000 -0.000000  0.000000  0.000000 -0.000000 -0.000000  0.000000  0.000000 -0.000001
                                -0.000000  0.000003  0.000000 -0.000014 -0.000000  0.000019  0.000000 -0.000017 -0.000000  0.000011
                                 0.000000 -0.000005 -0.000000  0.000009  0.000000 -0.000007 -0.000000  0.000001 -0.000000  0.000000
                                -0.000000 -0.000000 -0.000000  0.000000  0.000000  0.000000  0.000000  0.000000  0.000000  0.000000
                                 0.000000 -0.000000 -0.000000  0.000000 -0.000000 -0.000000 -0.000000  0.000000  0.000000 -0.000001
                                -0.000000  0.000002  0.000000 -0.000003 -0.000000  0.000003  0.000000 -0.000002 -0.000000  0.000001
                                 0.000000 -0.000000 -0.000000 -0.000000 -0.000000 -0.000000  0.000000  0.000000  0.000000 -0.000000
                                -0.000000 -0.000000  0.000000 -0.000000  0.000000 -0.000000  0.000000  0.000002  0.000002  0.000001
                                -0.000000 -0.000001 -0.000002 -0.000001  0.000001 -0.000000 -0.000000  0.000000 -0.000000  0.000001
                                 0.000000  0.000000 -0.000000  0.000000 -0.000000  0.000000 -0.000000  0.000000 -0.000000 -0.000000
                                -0.000000  0.000000  0.000000 -0.000000 -0.000000

   2.1   2  -497.4546-1326.3472 -0.000005 -0.000015 -0.000040 -0.000091 -0.000192 -0.000372 -0.000688 -0.001231 -0.002168 -0.003790
                                -0.006638 -0.011706 -0.020849 -0.037387 -0.066458 -0.112361 -0.162873 -0.000165 -0.151906  0.044807
                                 0.409146  0.493670  0.184956  0.020351 -0.009372  0.007318 -0.002843  0.002647 -0.005144  0.004185
                                -0.001164  0.001038 -0.000572  0.000042 -0.000019  0.000002 -0.000001 -0.000000 -0.000000 -0.000000
                                -0.000000 -0.000000 -0.000000 -0.000000 -0.000000 -0.000000 -0.000000 -0.000001 -0.000002 -0.000004
                                -0.000000 -0.000007 -0.000011 -0.000010 -0.000004 -0.000000 -0.000001  0.000002 -0.000014  0.000023
                                -0.000028  0.000025 -0.000008 -0.000002  0.000013 -0.000016  0.000012 -0.000006  0.000000  0.000000
                                 0.000000  0.000000  0.000000  0.000000  0.000000  0.000000  0.000000  0.000000  0.000000  0.000001
                                 0.000001  0.000001  0.000002  0.000001  0.000001  0.000001  0.000001  0.000002  0.000001 -0.000003
                                 0.000000  0.000014  0.000000 -0.000065 -0.000001  0.000092  0.000001 -0.000085 -0.000001  0.000057
                                 0.000000 -0.000026 -0.000000  0.000047  0.000000 -0.000037 -0.000000  0.000005 -0.000000  0.000002
                                -0.000000 -0.000001 -0.000000  0.000000  0.000000  0.000000  0.000000  0.000000  0.000000 -0.000001
                                -0.000000  0.000001  0.000000  0.000000  0.000000 -0.000000  0.000000  0.000001 -0.000000 -0.000004
                                 0.000000  0.000010 -0.000000 -0.000015  0.000000  0.000015 -0.000000 -0.000012  0.000000  0.000006
                                -0.000000 -0.000001  0.000000 -0.000000 -0.000000 -0.000000  0.000001 -0.000000 -0.000000 -0.000001
                                 0.000000  0.000000  0.000000 -0.000000  0.000000 -0.000000  0.000001  0.000008  0.000008  0.000003
                                -0.000002 -0.000008 -0.000010 -0.000006  0.000007 -0.000000 -0.000000  0.000000 -0.000001  0.000004
                                 0.000000  0.000000 -0.000002  0.000000  0.000000  0.000002  0.000000  0.000000  0.000000 -0.000001
                                -0.000000  0.000000 -0.000000 -0.000001  0.000000

   3.1   2  -433.4969-1210.2335 -0.000000 -0.000000 -0.000000 -0.000000 -0.000000 -0.000000 -0.000000 -0.000000 -0.000000 -0.000000
                                -0.000000 -0.000000 -0.000001 -0.000001 -0.000002 -0.000004 -0.000006  0.000000 -0.000005  0.000002
                                 0.000016  0.000015  0.000004 -0.000001  0.000001 -0.000000  0.000000  0.000000 -0.000000  0.000000
                                 0.000000 -0.000001  0.000001 -0.000001 -0.000000 -0.000000  0.000000  0.000003  0.000008  0.000024
                                 0.000062  0.000153  0.000367  0.000873  0.002085  0.005048  0.012348  0.030033  0.070112  0.147677
                                -0.000313  0.257465  0.326975  0.249424  0.089030  0.009867  0.000452 -0.000268  0.000439 -0.000607
                                 0.000425 -0.000289  0.000079 -0.000022  0.000016 -0.000006  0.000000 -0.000000  0.000000 -0.000000
                                 0.000000 -0.000000  0.000000 -0.000000  0.000000 -0.000000  0.000000 -0.000000  0.000000 -0.000000
                                 0.000000 -0.000000  0.000000 -0.000002 -0.000000 -0.000002 -0.000000  0.000000  0.000000  0.000001
                                 0.000000  0.000000  0.000000  0.000001 -0.000000 -0.000001  0.000000  0.000001 -0.000000 -0.000001
                                 0.000000  0.000000 -0.000000 -0.000001  0.000000  0.000001 -0.000000 -0.000000  0.000000  0.000000
                                 0.000000 -0.000000  0.000000  0.000000 -0.000000  0.000001 -0.000000 -0.000000 -0.000001 -0.000000
                                -0.000001  0.000001  0.000001  0.000001  0.000001  0.000001  0.000001 -0.000000 -0.000000 -0.000000
                                 0.000000 -0.000000 -0.000001  0.000000  0.000000 -0.000000 -0.000000  0.000000  0.000000 -0.000000
                                -0.000000  0.000000 -0.000000 -0.000000 -0.000000 -0.000000  0.000000  0.000000  0.000000 -0.000000
                                -0.000000  0.000000 -0.000000 -0.000000 -0.000000 -0.000000 -0.000000 -0.000000  0.000000  0.000000
                                -0.000000  0.000000 -0.000000  0.000000  0.000000 -0.000000 -0.000000 -0.000000 -0.000000 -0.000000
                                 0.000000  0.000000 -0.000000  0.000000  0.000000  0.000000  0.000000  0.000000  0.000000  0.000000
                                 0.000000 -0.000000  0.000000  0.000000 -0.000000

   4.1   2  -118.7445 -471.0604  0.000003  0.000007  0.000019  0.000044  0.000092  0.000177  0.000328  0.000588  0.001036  0.001813
                                 0.003180  0.005620  0.010045  0.018112  0.032505  0.055828  0.083248 -0.000087  0.079916 -0.039624
                                -0.341916 -0.547900 -0.085096  0.718961  0.018530  0.538115  0.080488  0.008712 -0.013327  0.011847
                                -0.003831  0.003487 -0.001994  0.000150 -0.000068  0.000006 -0.000002  0.000000  0.000000  0.000000
                                 0.000000  0.000000  0.000000  0.000000  0.000000  0.000000  0.000001  0.000003  0.000006  0.000013
                                 0.000001  0.000024  0.000033  0.000017 -0.000024 -0.000087 -0.000081  0.000003 -0.000088  0.000134
                                -0.000150  0.000128 -0.000046  0.000004  0.000036 -0.000051  0.000045 -0.000023  0.000001  0.000000
                                 0.000000  0.000000  0.000000  0.000000  0.000000  0.000000  0.000000  0.000001  0.000000  0.000004
                                 0.000001  0.000009  0.000001  0.000023  0.000006  0.000030  0.000011  0.000045  0.000039  0.000022
                                 0.000025  0.000036 -0.000008 -0.000175  0.000026  0.000258 -0.000026 -0.000253  0.000016  0.000177
                                -0.000007 -0.000086  0.000002  0.000164 -0.000001 -0.000130  0.000001  0.000021  0.000000  0.000006
                                 0.000000 -0.000005  0.000000  0.000000  0.000000 -0.000000 -0.000000 -0.000001 -0.000000  0.000001
                                 0.000000  0.000014  0.000003  0.000004  0.000001 -0.000005 -0.000001  0.000007  0.000001 -0.000018
                                -0.000001  0.000043  0.000001 -0.000058 -0.000001  0.000057  0.000001 -0.000044 -0.000000  0.000023
                                 0.000000 -0.000002 -0.000000  0.000003  0.000002  0.000006 -0.000001 -0.000002 -0.000005 -0.000001
                                 0.000001  0.000002  0.000000 -0.000000  0.000000 -0.000000  0.000001  0.000019  0.000023  0.000009
                                -0.000008 -0.000028 -0.000027 -0.000014  0.000025 -0.000000 -0.000000  0.000000 -0.000004  0.000015
                                 0.000000  0.000000 -0.000007  0.000000  0.000000  0.000006 -0.000000  0.000000 -0.000000 -0.000003
                                -0.000000  0.000001  0.000000 -0.000004  0.000000

   5.1   2   -99.6591 -434.2418  0.000000  0.000000  0.000000  0.000000  0.000000  0.000000  0.000000  0.000000  0.000000  0.000000
                                 0.000001  0.000001  0.000002  0.000003  0.000006  0.000011  0.000016 -0.000000  0.000016 -0.000008
                                -0.000069 -0.000113 -0.000001  0.000195 -0.000048  0.000096  0.000007 -0.000011  0.000049 -0.000057
                                 0.000042 -0.000075  0.000053 -0.000008  0.000009 -0.000004  0.000001 -0.000001 -0.000004 -0.000012
                                -0.000032 -0.000079 -0.000189 -0.000450 -0.001078 -0.002625 -0.006472 -0.015961 -0.038049 -0.083085
                                 0.000805 -0.151977 -0.196303 -0.091911  0.227209  0.497325  0.337482  0.075582  0.016863 -0.015457
                                 0.014244 -0.010244  0.003074 -0.001104  0.000789 -0.000293  0.000030 -0.000005  0.000001 -0.000000
                                -0.000000 -0.000000 -0.000000 -0.000000 -0.000000 -0.000001 -0.000000 -0.000002 -0.000000 -0.000006
                                -0.000000 -0.000016 -0.000000 -0.000032 -0.000000 -0.000047 -0.000000 -0.000036  0.000003 -0.000012
                                 0.000002 -0.000031 -0.000003  0.000091  0.000005 -0.000122 -0.000005  0.000112  0.000003 -0.000073
                                -0.000001  0.000039  0.000001 -0.000072 -0.000000  0.000057  0.000000 -0.000009 -0.000000  0.000006
                                -0.000000 -0.000000 -0.000000 -0.000000  0.000000 -0.000000 -0.000000  0.000002  0.000000  0.000007
                                 0.000004  0.000025  0.000025  0.000016  0.000005 -0.000005 -0.000011  0.000006  0.000008 -0.000003
                                -0.000001  0.000010  0.000013 -0.000001 -0.000006 -0.000004  0.000007  0.000010 -0.000001 -0.000005
                                 0.000001  0.000003  0.000000  0.000007  0.000000  0.000001 -0.000009 -0.000000 -0.000001  0.000004
                                 0.000000  0.000000  0.000000 -0.000000  0.000000 -0.000000  0.000000  0.000003  0.000005  0.000001
                                -0.000000 -0.000010 -0.000006 -0.000002  0.000003 -0.000000 -0.000000  0.000001  0.000003  0.000001
                                 0.000000  0.000000 -0.000001 -0.000001 -0.000000 -0.000003 -0.000000  0.000000 -0.000000  0.000002
                                -0.000000  0.000001 -0.000000  0.000001  0.000000

   6.1   2   -77.8389 -399.3256 -0.000000 -0.000000 -0.000000 -0.000000 -0.000000 -0.000000 -0.000000 -0.000000 -0.000000 -0.000000
                                -0.000000 -0.000000 -0.000000 -0.000001 -0.000001 -0.000002 -0.000003 -0.000000 -0.000002  0.000001
                                 0.000007  0.000014  0.000023  0.000023 -0.000063 -0.000010 -0.000028  0.000016 -0.000064  0.000072
                                -0.000043  0.000084 -0.000068  0.000020 -0.000002  0.000000  0.000000 -0.000000 -0.000000 -0.000000
                                -0.000000 -0.000000 -0.000000 -0.000000 -0.000000 -0.000000 -0.000001 -0.000001 -0.000003 -0.000007
                                -0.000000 -0.000012 -0.000017 -0.000010  0.000009  0.000046  0.000055  0.000013 -0.000027  0.000056
                                -0.000084  0.000090 -0.000044  0.000034 -0.000038  0.000015  0.000012 -0.000002  0.000001  0.000018
                                -0.000013  0.000112 -0.000082  0.000625 -0.000458  0.002879 -0.002110  0.011061 -0.008105  0.034221
                                -0.025074  0.086625 -0.063471  0.171713 -0.125814  0.255700 -0.187345  0.253511 -0.185714  0.133454
                                -0.097737  0.032126 -0.023523 -0.002459  0.001785  0.005190 -0.003772 -0.001385  0.000983  0.001001
                                -0.000710 -0.000136  0.000086  0.000208 -0.000123 -0.000139  0.000076  0.000020 -0.000007 -0.000001
                                 0.000002  0.000000 -0.000000 -0.000000  0.000000 -0.000001  0.000000 -0.000002  0.000001 -0.000007
                                 0.000004 -0.000009  0.000013 -0.000004  0.000008 -0.000001  0.000001  0.000002  0.000003 -0.000004
                                -0.000002  0.000006  0.000004 -0.000007 -0.000003  0.000006  0.000002 -0.000007 -0.000001  0.000006
                                 0.000000 -0.000001  0.000000  0.000015 -0.000005  0.000004 -0.000019  0.000006 -0.000004  0.000008
                                -0.000002  0.000002  0.000000 -0.000000  0.000000 -0.000000  0.000000  0.000002  0.000002 -0.000001
                                -0.000000 -0.000011 -0.000002 -0.000001 -0.000001  0.000000  0.000000 -0.000000  0.000003  0.000008
                                -0.000000 -0.000000 -0.000000 -0.000000 -0.000000  0.000000 -0.000000  0.000000 -0.000000 -0.000002
                                -0.000000  0.000000  0.000000 -0.000001  0.000000

   7.1   2   -77.8313 -399.3154 -0.000000 -0.000000 -0.000000 -0.000000 -0.000000 -0.000000 -0.000000 -0.000000 -0.000000 -0.000000
                                -0.000000 -0.000001 -0.000001 -0.000003 -0.000005 -0.000008 -0.000012  0.000001 -0.000012  0.000007
                                 0.000051  0.000089  0.000005 -0.000184  0.000036 -0.000045 -0.000001  0.000012 -0.000030  0.000042
                                -0.000028  0.000055 -0.000044  0.000012 -0.000001  0.000000  0.000000 -0.000000 -0.000000 -0.000000
                                -0.000000 -0.000000 -0.000000 -0.000000 -0.000000 -0.000000 -0.000000 -0.000001 -0.000002 -0.000004
                                -0.000000 -0.000007 -0.000011 -0.000007  0.000001  0.000029  0.000045  0.000006 -0.000010  0.000026
                                -0.000046  0.000052 -0.000026  0.000020 -0.000020  0.000007  0.000007 -0.000002  0.000000  0.000013
                                 0.000018  0.000082  0.000112  0.000458  0.000625  0.002109  0.002880  0.008103  0.011062  0.025069
                                 0.034223  0.063457  0.086631  0.125789  0.171723  0.187322  0.255717  0.185732  0.253509  0.097780
                                 0.133426  0.023537  0.032109 -0.001803 -0.002439  0.003803  0.005151 -0.001016 -0.001343  0.000735
                                 0.000971 -0.000099 -0.000117  0.000152  0.000169 -0.000101 -0.000105  0.000013  0.000009 -0.000002
                                -0.000003  0.000000  0.000001 -0.000000 -0.000000 -0.000000 -0.000000 -0.000002 -0.000002 -0.000006
                                -0.000005 -0.000009 -0.000018 -0.000005 -0.000011 -0.000000  0.000000  0.000000 -0.000004 -0.000002
                                 0.000003  0.000003 -0.000006 -0.000006  0.000004  0.000005 -0.000003 -0.000005  0.000001  0.000004
                                -0.000000 -0.000001  0.000000  0.000005  0.000002  0.000006 -0.000007 -0.000004 -0.000008  0.000003
                                 0.000001  0.000003  0.000000 -0.000000  0.000000 -0.000000  0.000000  0.000001  0.000001 -0.000001
                                -0.000000 -0.000006 -0.000002 -0.000001  0.000000  0.000000  0.000000 -0.000000  0.000001  0.000004
                                -0.000000 -0.000000 -0.000000 -0.000000  0.000000  0.000000  0.000000  0.000000  0.000000 -0.000001
                                -0.000000  0.000000 -0.000000 -0.000001  0.000000

   8.1   2   -26.5885 -205.0506 -0.000001 -0.000003 -0.000009 -0.000022 -0.000045 -0.000088 -0.000163 -0.000292 -0.000514 -0.000900
                                -0.001579 -0.002793 -0.004995 -0.009023 -0.016217 -0.028005 -0.041784 -0.000420 -0.040148  0.021874
                                 0.196041  0.334859  0.051170 -0.765126 -0.019253 -0.738020  0.497781  0.940308 -0.088247  0.275064
                                -0.043569  0.046132 -0.025312  0.002112 -0.000902  0.000091 -0.000032 -0.000000 -0.000000 -0.000000
                                -0.000000 -0.000000 -0.000000 -0.000000 -0.000000 -0.000001 -0.000001 -0.000004 -0.000009 -0.000018
                                -0.000003 -0.000031 -0.000048 -0.000014  0.000063  0.000190  0.000098 -0.000049 -0.000698  0.000647
                                -0.001224  0.001122 -0.000461  0.000083  0.000393 -0.000647  0.000649 -0.000288  0.000019 -0.000000
                                -0.000000 -0.000000 -0.000000 -0.000000 -0.000000 -0.000001 -0.000000 -0.000005 -0.000001 -0.000015
                                -0.000005 -0.000042 -0.000010 -0.000080 -0.000024 -0.000127 -0.000031 -0.000089 -0.000056 -0.000000
                                -0.000013  0.000664  0.000053 -0.001871 -0.000060  0.002974  0.000261 -0.002590  0.000045  0.002109
                                 0.000051 -0.000970 -0.000015  0.002024  0.000025 -0.001663 -0.000010  0.000292  0.000018  0.000107
                                 0.000009 -0.000066  0.000001 -0.000000  0.000000  0.000000  0.000000  0.000000  0.000000  0.000003
                                 0.000001 -0.000008 -0.000000 -0.000006 -0.000000 -0.000014  0.000001  0.000156  0.000027 -0.000122
                                 0.000001  0.000329 -0.000001 -0.000568 -0.000008  0.000601  0.000006 -0.000521 -0.000009  0.000300
                                 0.000010 -0.000019  0.000002  0.000147  0.000094  0.000269 -0.000175 -0.000114 -0.000332  0.000044
                                 0.000035  0.000111  0.000000 -0.000000  0.000000 -0.000001  0.000008  0.000155  0.000215  0.000096
                                -0.000092 -0.000455 -0.000242 -0.000106  0.000303 -0.000001 -0.000001  0.000006 -0.000024  0.000241
                                 0.000001  0.000000 -0.000088  0.000002  0.000001  0.000072 -0.000003  0.000000 -0.000000 -0.000041
                                -0.000006  0.000003 -0.000001 -0.000051  0.000010

   9.1   2   -20.6163  -78.0347 -0.000000 -0.000000 -0.000000 -0.000000 -0.000000 -0.000000 -0.000000 -0.000000 -0.000000 -0.000000
                                -0.000000 -0.000000  0.000000 -0.000000  0.000001 -0.000004  0.000023 -0.000051  0.000049 -0.000050
                                 0.000097 -0.000213  0.000646 -0.003450  0.007968 -0.007393  0.005381 -0.011927  0.042177 -0.045333
                                 0.030245 -0.055083  0.041439 -0.010984 -0.011068 -0.000655  0.000073 -0.000000 -0.000000 -0.000000
                                -0.000000 -0.000000 -0.000000 -0.000000 -0.000000  0.000000 -0.000000  0.000000 -0.000001  0.000003
                                -0.000012  0.000013 -0.000010  0.000015 -0.000029  0.000067 -0.000163  0.000566 -0.005843  0.011188
                                -0.018623  0.020276 -0.010561  0.008933 -0.014110  0.011411 -0.014079 -0.003550  0.000075  0.000000
                                 0.000000 -0.000000  0.000000  0.000000  0.000000 -0.000000  0.000000  0.000001  0.000000 -0.000002
                                 0.000000  0.000010  0.000000 -0.000017  0.000000  0.000055  0.000000 -0.000117  0.000001  0.000339
                                -0.000002 -0.001804  0.000009  0.008922 -0.000048 -0.012973  0.000070  0.012418 -0.000072 -0.008491
                                 0.000051  0.004243 -0.000024 -0.009921  0.000051  0.008741 -0.000037 -0.001634  0.000012 -0.005620
                                -0.000008 -0.000002 -0.000003  0.000000 -0.000000 -0.000000  0.000000  0.000001 -0.000000 -0.000003
                                 0.000000  0.000007 -0.000000 -0.000021  0.000001  0.000048 -0.000002 -0.000146  0.000005  0.000763
                                -0.000027 -0.001562  0.000066  0.001638 -0.000097 -0.001268  0.000096  0.001465 -0.000066 -0.000473
                                 0.000042 -0.001647 -0.000016  0.000026 -0.000000  0.000004 -0.000213  0.000000 -0.000009  0.000539
                                -0.000000  0.000008  0.000742  0.004245  0.020672  0.080042  0.229015  0.400344  0.317027 -0.018097
                                 0.050920  0.022436  0.039560  0.023714  0.006991  0.000022 -0.000406 -0.001036  0.001633 -0.010277
                                -0.000350 -0.000058 -0.001843  0.000118 -0.000173 -0.000476 -0.000149 -0.000011  0.000155  0.002355
                                 0.000014  0.000154  0.000006  0.000027  0.000003

  10.1   2   -20.2045 -187.7863 -0.000000 -0.000000 -0.000000 -0.000000 -0.000000 -0.000000 -0.000000 -0.000000 -0.000000 -0.000000
                                -0.000001 -0.000001 -0.000003 -0.000005 -0.000009 -0.000015 -0.000022 -0.000001 -0.000021  0.000011
                                 0.000108  0.000181  0.000033 -0.000553  0.000195 -0.000571  0.000614  0.000311 -0.000391  0.000332
                                 0.000105  0.000069 -0.000166  0.000164  0.000098  0.000015 -0.000001  0.000001  0.000002  0.000006
                                 0.000016  0.000039  0.000093  0.000222  0.000532  0.001296  0.003202  0.007921  0.018990  0.041758
                                -0.000289  0.077230  0.100628  0.035801 -0.175795 -0.409312 -0.201655  0.354326  0.580380 -0.004610
                                 0.298209 -0.023156  0.045324 -0.001803  0.002429 -0.000627  0.000228  0.000014  0.000009  0.000000
                                 0.000000  0.000000  0.000000  0.000000  0.000000  0.000001  0.000000  0.000004  0.000000  0.000012
                                 0.000000  0.000032  0.000000  0.000062  0.000001  0.000096  0.000002  0.000061 -0.000001 -0.000106
                                -0.000008 -0.000288 -0.000009 -0.000016 -0.000022 -0.000236  0.000039  0.000279  0.000007 -0.000027
                                 0.000020  0.000083 -0.000010 -0.000119  0.000010  0.000036 -0.000010  0.000079  0.000005  0.000058
                                 0.000001  0.000004  0.000000  0.000000  0.000000  0.000001  0.000001  0.000002  0.000001  0.000010
                                 0.000006  0.000006 -0.000005  0.000047 -0.000004  0.000098  0.000005  0.000263  0.000218  0.000450
                                 0.000197 -0.000282 -0.000159  0.000278  0.000058 -0.000226 -0.000071  0.000109 -0.000001 -0.000005
                                -0.000007  0.000022 -0.000002  0.000271 -0.000000  0.000045 -0.000394  0.000000 -0.000063  0.000172
                                 0.000000  0.000026  0.000000  0.000000  0.000000  0.000001  0.000001  0.000000  0.000000 -0.000034
                                 0.000017 -0.000230  0.000004  0.000002 -0.000080  0.000001  0.000003 -0.000006  0.000073  0.000117
                                -0.000002 -0.000000  0.000012 -0.000004  0.000001 -0.000028 -0.000002  0.000000 -0.000000 -0.000014
                                -0.000001 -0.000002  0.000000  0.000001  0.000004

  11.1   2   -12.0536 -166.7163  0.000000  0.000000  0.000000  0.000000  0.000000  0.000000  0.000000  0.000000  0.000000  0.000001
                                 0.000001  0.000002  0.000004  0.000007  0.000013  0.000022  0.000034 -0.000001  0.000033 -0.000018
                                -0.000153 -0.000273 -0.000035  0.000538  0.000221  0.000400 -0.000058 -0.001078 -0.001740  0.001137
                                 0.000724  0.001444 -0.001479  0.000638  0.000526  0.000147 -0.000026 -0.000000 -0.000000 -0.000000
                                -0.000000 -0.000000 -0.000000 -0.000000 -0.000000 -0.000000 -0.000000 -0.000001 -0.000002 -0.000004
                                -0.000001 -0.000007 -0.000011  0.000001  0.000027  0.000079 -0.000034 -0.000131 -0.000911  0.001149
                                -0.001540  0.002383 -0.000899  0.001133 -0.001708  0.000805  0.000570  0.000277  0.000005 -0.000010
                                 0.000005 -0.000063  0.000033 -0.000351  0.000183 -0.001622  0.000845 -0.006280  0.003273 -0.019599
                                 0.010215 -0.050535  0.026340 -0.100733  0.052504 -0.146098  0.076145 -0.109726  0.057156  0.096483
                                -0.050405  0.322688 -0.168266  0.025439 -0.013441  0.339093 -0.176425  0.025630 -0.013639  0.175493
                                -0.090522  0.040622 -0.020690 -0.005845  0.003189  0.005220 -0.002939  0.000182  0.000091  0.000312
                                -0.000038  0.000017  0.000009  0.000000  0.000000  0.000001  0.000000  0.000003  0.000002  0.000011
                                 0.000008  0.000023  0.000019  0.000029  0.000048  0.000024  0.000076  0.000032  0.000126  0.000258
                                 0.000060 -0.000440 -0.000053  0.000488  0.000002 -0.000497 -0.000010  0.000231 -0.000000  0.000093
                                 0.000010  0.000082  0.000003  0.001573 -0.000298  0.000132 -0.001751  0.000372 -0.000261  0.000690
                                -0.000118  0.000068 -0.000000 -0.000000 -0.000000 -0.000001 -0.000005 -0.000015 -0.000008 -0.000096
                                 0.000038 -0.000855  0.000003  0.000005 -0.000498  0.000002  0.000001 -0.000025  0.000207  0.000421
                                -0.000004 -0.000001  0.000107 -0.000005  0.000001 -0.000049 -0.000001  0.000001 -0.000000 -0.000048
                                -0.000003 -0.000029 -0.000001 -0.000016  0.000007

  12.1   2   -12.0384 -166.6800  0.000000  0.000000  0.000000  0.000000  0.000000  0.000000  0.000000  0.000000  0.000001  0.000001
                                 0.000002  0.000003  0.000006  0.000011  0.000020  0.000034  0.000051  0.000001  0.000049 -0.000027
                                -0.000244 -0.000421 -0.000077  0.001184 -0.000123  0.001111 -0.001022 -0.002375  0.000444  0.000769
                                 0.000894 -0.000248 -0.000037  0.000052  0.000111  0.000027 -0.000007 -0.000000 -0.000000 -0.000000
                                -0.000000 -0.000000 -0.000000 -0.000000 -0.000000 -0.000000 -0.000000 -0.000001 -0.000002 -0.000005
                                 0.000000 -0.000010 -0.000013 -0.000003  0.000031  0.000077 -0.000004 -0.000138 -0.000449  0.000389
                                -0.000331  0.000805 -0.000176  0.000220 -0.000414  0.000187  0.000079  0.000083 -0.000003 -0.000005
                                -0.000010 -0.000033 -0.000063 -0.000183 -0.000351 -0.000843 -0.001623 -0.003265 -0.006285 -0.010189
                                -0.019614 -0.026271 -0.050575 -0.052366 -0.100810 -0.075953 -0.146212 -0.057054 -0.109767  0.050098
                                 0.096663  0.167692  0.323000  0.013168  0.025546  0.176418  0.339248  0.013210  0.025718  0.091706
                                 0.174905  0.021448  0.040199 -0.003286 -0.006087  0.002965  0.005576 -0.000059 -0.000172  0.000092
                                 0.000090  0.000003 -0.000015  0.000000 -0.000000  0.000000 -0.000001  0.000001 -0.000003  0.000004
                                -0.000014  0.000009 -0.000036  0.000009 -0.000088  0.000002 -0.000140 -0.000015 -0.000242  0.000085
                                -0.000126 -0.000153  0.000117  0.000173 -0.000027 -0.000173  0.000054  0.000095 -0.000036 -0.000007
                                 0.000026  0.000021  0.000005  0.000449  0.000219  0.000744 -0.000451 -0.000295 -0.000754  0.000220
                                 0.000127  0.000287 -0.000000 -0.000000 -0.000000 -0.000001 -0.000003 -0.000020 -0.000022 -0.000025
                                 0.000014 -0.000158  0.000021  0.000010 -0.000119  0.000001  0.000001 -0.000005  0.000047  0.000077
                                -0.000002 -0.000000  0.000031  0.000001  0.000001 -0.000011 -0.000019  0.000000 -0.000000 -0.000006
                                -0.000020 -0.000013  0.000001  0.000001  0.000030

  13.1   2    -4.2093  -90.9030  0.000001  0.000001  0.000004  0.000009  0.000019  0.000037  0.000069  0.000123  0.000217  0.000380
                                 0.000667  0.001180  0.002111  0.003814  0.006858  0.011856  0.017702  0.000209  0.017020 -0.009487
                                -0.085663 -0.148784 -0.023386  0.390791  0.012252  0.391279 -0.355966 -0.909640 -0.095084 -0.034588
                                 0.830519  0.080961  0.482770  0.033996 -0.011405  0.000634 -0.000288 -0.000000 -0.000000 -0.000000
                                -0.000000 -0.000000 -0.000000 -0.000000 -0.000001 -0.000003 -0.000006 -0.000016 -0.000039 -0.000083
                                -0.000005 -0.000150 -0.000209 -0.000059  0.000377  0.000955  0.000296 -0.000827 -0.004364  0.004049
                                -0.004817  0.001823  0.004561 -0.008656  0.025477 -0.020999  0.002801 -0.003419 -0.000066  0.000000
                                -0.000000  0.000000 -0.000000  0.000002 -0.000000  0.000008 -0.000001  0.000030 -0.000005  0.000100
                                -0.000015  0.000241 -0.000041  0.000525 -0.000079  0.000660 -0.000120  0.000673 -0.000056 -0.001094
                                 0.000114  0.000556  0.000406 -0.013530 -0.000214  0.018577  0.000736 -0.022423 -0.000720  0.016447
                                 0.000561 -0.005090 -0.001139  0.018488 -0.000442 -0.009604 -0.001381 -0.001983 -0.000052  0.000637
                                 0.000086 -0.000873 -0.000016  0.000000  0.000000  0.000004  0.000000  0.000023  0.000001  0.000088
                                 0.000005  0.000230  0.000016  0.000484  0.000029  0.000631  0.000053  0.000793  0.000032 -0.000907
                                 0.000041  0.003727 -0.000057 -0.007503 -0.000072  0.007858 -0.000148 -0.006352  0.000094  0.002201
                                 0.000135  0.000150  0.000192 -0.000470 -0.000048 -0.000016  0.001111  0.000177  0.000301 -0.001149
                                -0.000496 -0.001165 -0.000002 -0.000013 -0.000064 -0.000258 -0.000764 -0.001236 -0.000982  0.007445
                                 0.000231  0.002270 -0.001135 -0.000344  0.005776 -0.000092 -0.000939 -0.002701 -0.007212 -0.002807
                                -0.000087 -0.000041 -0.001355  0.000917 -0.000020  0.003689 -0.000060  0.000032 -0.000003  0.000906
                                -0.000219 -0.000748 -0.000046 -0.000936  0.000148

  14.1   2    -2.9988 -139.6468  0.000000  0.000000  0.000000  0.000000  0.000000  0.000000  0.000000  0.000000  0.000000  0.000001
                                 0.000001  0.000002  0.000004  0.000007  0.000014  0.000022  0.000047 -0.000026  0.000059 -0.000045
                                -0.000123 -0.000410  0.000302 -0.001116  0.004439 -0.003474  0.002729 -0.009277  0.030621 -0.036356
                                 0.025595 -0.034975  0.023747  0.007440  0.002136  0.001652 -0.000268  0.000000  0.000000  0.000000
                                 0.000000  0.000000  0.000001  0.000002  0.000005  0.000013  0.000032  0.000078  0.000188  0.000407
                                 0.000016  0.000743  0.001012  0.000305 -0.001843 -0.004593 -0.001634  0.004433  0.017001 -0.013923
                                 0.025624 -0.022906  0.000561 -0.014176 -0.011214  0.008342  0.003759  0.001579  0.000224 -0.000000
                                -0.000000 -0.000000 -0.000000 -0.000000 -0.000000 -0.000000 -0.000000 -0.000001 -0.000001 -0.000006
                                -0.000002 -0.000004 -0.000005 -0.000034 -0.000010  0.000010 -0.000014 -0.000120 -0.000013  0.000280
                                 0.000015 -0.001520  0.000015  0.008514  0.000140 -0.013039 -0.000171  0.014498  0.000185 -0.011070
                                -0.000131  0.007313  0.000210 -0.014089 -0.000189  0.010038  0.000249  0.002438 -0.000084  0.000612
                                -0.000029  0.000190 -0.000000 -0.000200  0.000084 -0.001862  0.000779 -0.010611  0.004440 -0.038673
                                 0.016183 -0.103713  0.043399 -0.205087  0.085827 -0.281283  0.117692 -0.286999  0.120099 -0.205400
                                 0.085888 -0.006118  0.002242 -0.086858  0.037074 -0.007958  0.001510 -0.013467  0.007412  0.000049
                                -0.000231 -0.000582  0.000334  0.000369  0.000041 -0.000114 -0.001315 -0.000051  0.000193  0.001098
                                 0.000022 -0.000091  0.000002  0.000011  0.000053  0.000213  0.000632  0.000985  0.000690 -0.006373
                                -0.000198 -0.008417  0.001113  0.000321 -0.004504  0.000112  0.000947  0.002077  0.006999  0.006473
                                 0.000000  0.000024  0.000849 -0.000656  0.000016 -0.003432  0.000103 -0.000021  0.000003 -0.001606
                                 0.000000  0.000811 -0.000003  0.000784 -0.000074

  15.1   2    -2.9848 -139.6909 -0.000000 -0.000000 -0.000000 -0.000000 -0.000000 -0.000000 -0.000000 -0.000000 -0.000000 -0.000000
                                -0.000000 -0.000001 -0.000002 -0.000003 -0.000005 -0.000008 -0.000018  0.000010 -0.000023  0.000017
                                 0.000043  0.000155 -0.000126  0.000482 -0.001788  0.001446 -0.001158  0.003516 -0.012092  0.014746
                                -0.009975  0.013260 -0.009625 -0.002404 -0.000306 -0.000507  0.000086 -0.000000 -0.000000 -0.000000
                                -0.000000 -0.000000 -0.000000 -0.000001 -0.000001 -0.000003 -0.000009 -0.000021 -0.000051 -0.000109
                                -0.000006 -0.000198 -0.000274 -0.000080  0.000493  0.001275  0.000419 -0.001231 -0.005797  0.005565
                                -0.008926  0.009171 -0.000711  0.002141  0.004002 -0.005599 -0.001461 -0.000362 -0.000084  0.000000
                                -0.000000  0.000000 -0.000000  0.000000 -0.000000  0.000000 -0.000001  0.000000 -0.000003  0.000002
                                -0.000008  0.000002 -0.000021  0.000014 -0.000043 -0.000003 -0.000061  0.000049 -0.000052 -0.000112
                                 0.000071  0.000604  0.000111 -0.003389  0.000441  0.005180 -0.000495 -0.005760  0.000559  0.004390
                                -0.000501 -0.002877  0.000576  0.005497 -0.000439 -0.003888  0.000718 -0.000890 -0.000355 -0.000138
                                -0.000146 -0.000048 -0.000013  0.000083  0.000200  0.000778  0.001864  0.004435  0.010624  0.016163
                                 0.038719  0.043350  0.103839  0.085720  0.205351  0.117574  0.281613  0.119890  0.287186  0.085683
                                 0.205071  0.002730  0.005765  0.036410  0.088829  0.003521  0.004192  0.005898  0.017998  0.000072
                                -0.000449  0.000322  0.000857 -0.000276  0.000101 -0.000343  0.000684 -0.000129  0.000547 -0.000505
                                 0.000054 -0.000240 -0.000001 -0.000004 -0.000020 -0.000080 -0.000239 -0.000416 -0.000329  0.002396
                                 0.000082  0.002885 -0.000338 -0.000089  0.001424 -0.000040 -0.000362 -0.000844 -0.002692 -0.002363
                                -0.000008 -0.000010 -0.000270  0.000263  0.000020  0.001295  0.000169  0.000008  0.000001  0.000589
                                -0.000145 -0.000316 -0.000081 -0.000293 -0.000104

  16.1   2    -2.4909  -78.2259 -0.000000 -0.000000 -0.000000 -0.000000 -0.000000 -0.000001 -0.000001 -0.000002 -0.000003 -0.000006
                                -0.000010 -0.000017 -0.000031 -0.000056 -0.000102 -0.000171 -0.000288  0.000055 -0.000308  0.000198
                                 0.001154  0.002451 -0.000422 -0.001568 -0.010146  0.003563 -0.001902  0.030959 -0.060147  0.067164
                                -0.051060  0.031815 -0.014781 -0.032127 -0.018452 -0.009363  0.001561 -0.000000 -0.000001 -0.000002
                                -0.000006 -0.000015 -0.000035 -0.000084 -0.000202 -0.000494 -0.001220 -0.003020 -0.007248 -0.015970
                                 0.000126 -0.029625 -0.038609 -0.012762  0.073378  0.174271  0.073681 -0.207033 -0.350373 -0.033342
                                -0.115016 -0.013519  0.376997  0.499931  0.091820  0.209528  0.008256 -0.013297 -0.000580  0.000000
                                -0.000000  0.000000 -0.000000  0.000000 -0.000000  0.000002 -0.000001  0.000005 -0.000003  0.000026
                                -0.000010  0.000039 -0.000026  0.000144 -0.000053  0.000061 -0.000077  0.000347 -0.000052 -0.000741
                                 0.000077  0.003438  0.000205 -0.019887  0.000083  0.030009  0.000127 -0.032244  0.000118  0.022811
                                -0.000160 -0.012763 -0.000447  0.012276 -0.000414 -0.002332 -0.000286 -0.009305  0.000191 -0.004703
                                 0.000265 -0.002058  0.000049 -0.000006  0.000002 -0.000059  0.000016 -0.000339  0.000094 -0.001229
                                 0.000338 -0.003307  0.000925 -0.006495  0.001818 -0.008972  0.002564 -0.008697  0.002475 -0.008988
                                 0.001369  0.008028 -0.000458 -0.015838 -0.000136  0.017835 -0.002428 -0.009310 -0.001612 -0.000536
                                -0.001792 -0.002053 -0.000529 -0.000319  0.000000  0.000241  0.001423 -0.000002 -0.000468 -0.000037
                                 0.000013  0.000481 -0.000018 -0.000101 -0.000497 -0.001955 -0.006164 -0.015257 -0.018340  0.054601
                                 0.012341  0.046717  0.001387  0.000967  0.025247 -0.000591 -0.006343 -0.020105 -0.040220 -0.029109
                                -0.000653 -0.000282 -0.004770  0.003808 -0.000118  0.013234 -0.000214  0.000144 -0.000022  0.006295
                                -0.000045 -0.002502 -0.000113 -0.002465 -0.000110

  17.1   2    -1.2977  -37.7801 -0.000000 -0.000000 -0.000000 -0.000001 -0.000002 -0.000004 -0.000007 -0.000012 -0.000021 -0.000037
                                -0.000064 -0.000114 -0.000204 -0.000368 -0.000662 -0.001146 -0.001699 -0.000042 -0.001623  0.000898
                                 0.008341  0.014365  0.002541 -0.040059  0.002182 -0.042090  0.038920  0.092388  0.041022 -0.034768
                                -0.073935 -0.173221  0.088334 -0.024523 -0.080768 -0.019876  0.002666  0.000000  0.000000  0.000001
                                 0.000001  0.000003  0.000008  0.000019  0.000045  0.000110  0.000270  0.000671  0.001604  0.003568
                                -0.000118  0.006675  0.008491  0.002938 -0.016604 -0.038429 -0.017487  0.051069  0.043884  0.074128
                                -0.071142  0.098269 -0.137099 -0.124600 -0.008266 -0.048118 -0.070328 -0.039522 -0.002084  0.000001
                                -0.000000  0.000004 -0.000000  0.000021 -0.000001  0.000097 -0.000003  0.000376 -0.000012  0.001181
                                -0.000039  0.003039 -0.000100  0.006101 -0.000201  0.008730 -0.000286  0.006280 -0.000208 -0.008527
                                 0.000297 -0.020836  0.000669 -0.016095  0.000698 -0.002103 -0.000198 -0.025934  0.001268  0.017868
                                -0.001022  0.032804 -0.001144  0.000194 -0.001259  0.080421 -0.001052  0.034503 -0.002414 -0.023337
                                -0.000707 -0.005240 -0.000196 -0.000006 -0.000000 -0.000052 -0.000001 -0.000303 -0.000006 -0.001084
                                -0.000023 -0.002969 -0.000063 -0.005713 -0.000129 -0.008030 -0.000175 -0.007043 -0.000187 -0.008566
                                 0.000199  0.012660 -0.000522 -0.020965  0.001051  0.030403 -0.000555 -0.008229  0.001469  0.009355
                                -0.000365 -0.007812  0.000674  0.001162  0.000007 -0.000376  0.000268 -0.000064  0.000532  0.004391
                                 0.000081 -0.000544 -0.000160 -0.000917 -0.004530 -0.017859 -0.056394 -0.139500 -0.173198  0.555229
                                 0.144811  0.447779  0.010657  0.007596  0.092785 -0.001028 -0.010118 -0.030390 -0.074625 -0.093322
                                -0.000707 -0.000389 -0.017027  0.003387 -0.000488  0.020300 -0.000949  0.000148 -0.000190  0.017989
                                -0.003558 -0.002484 -0.000341 -0.003984  0.000249

  18.1   2    -0.6255  -37.8767  0.000000  0.000000  0.000000  0.000001  0.000002  0.000004  0.000007  0.000012  0.000021  0.000037
                                 0.000065  0.000115  0.000205  0.000370  0.000668  0.001147  0.001764 -0.000072  0.001746 -0.001019
                                -0.008192 -0.014985 -0.001055  0.032283  0.017208  0.024307 -0.025596 -0.128281  0.075509 -0.089543
                                 0.156795  0.063584  0.005573 -0.008536  0.049945  0.035778 -0.007457 -0.000000 -0.000000 -0.000000
                                -0.000001 -0.000002 -0.000005 -0.000012 -0.000028 -0.000068 -0.000167 -0.000417 -0.000990 -0.002239
                                 0.000172 -0.004249 -0.005183 -0.001947  0.010585  0.023394  0.012121 -0.036343  0.008607 -0.110761
                                 0.126355 -0.129298  0.105796  0.112788 -0.052462  0.066824  0.032921  0.044531  0.003457 -0.000001
                                 0.000000 -0.000009  0.000002 -0.000050  0.000009 -0.000233  0.000039 -0.000894  0.000153 -0.002819
                                 0.000478 -0.007219  0.001239 -0.014580  0.002468 -0.020665  0.003572 -0.015206  0.002464  0.021503
                                -0.003363  0.044926 -0.009735  0.066466 -0.000709 -0.037568 -0.009750  0.107738 -0.001684 -0.077921
                                 0.001698 -0.070157  0.019098 -0.043418  0.001705 -0.154990  0.028589 -0.136186  0.026763 -0.030656
                                 0.013053  0.006774  0.001805  0.000006  0.000000  0.000050  0.000001  0.000292  0.000007  0.001036
                                 0.000028  0.002859  0.000072  0.005435  0.000151  0.007742  0.000189  0.006103  0.000229  0.012355
                                -0.000259 -0.027398  0.000765  0.045679 -0.001439 -0.058748  0.001122  0.021749 -0.002012 -0.019915
                                 0.000538  0.001722 -0.001729 -0.002320 -0.000089  0.000564  0.001821  0.000283 -0.000882 -0.008802
                                -0.000324  0.001068 -0.000035 -0.000199 -0.000987 -0.003878 -0.012418 -0.032971 -0.043330  0.125901
                                 0.043179  0.113851  0.006793  0.003127 -0.059099  0.007063  0.076886  0.254465  0.414846  0.297684
                                 0.007398  0.003227  0.035057 -0.010323  0.000006 -0.035825 -0.000055 -0.000378 -0.000038 -0.021922
                                -0.000298  0.004355  0.001808  0.005378  0.001153

  19.1   2    -0.3612  -47.8741 -0.000000 -0.000000 -0.000001 -0.000002 -0.000003 -0.000006 -0.000012 -0.000021 -0.000038 -0.000066
                                -0.000115 -0.000204 -0.000365 -0.000658 -0.001185 -0.002046 -0.003071 -0.000010 -0.002966  0.001671
                                 0.014830  0.026015  0.003779 -0.068007 -0.006101 -0.066543  0.063522  0.192296 -0.004105  0.029221
                                -0.258858  0.024460 -0.246790  0.174298  0.382408  0.120112 -0.001901  0.000000  0.000000  0.000000
                                 0.000000  0.000000  0.000001  0.000002  0.000006  0.000014  0.000034  0.000084  0.000200  0.000450
                                -0.000026  0.000848  0.001053  0.000382 -0.002114 -0.004764 -0.002345  0.007009  0.000404  0.019289
                                -0.025444  0.030978 -0.029423 -0.000970 -0.028789  0.006362  0.014752  0.004646 -0.003257 -0.000001
                                 0.000002 -0.000006  0.000015 -0.000036  0.000082 -0.000166  0.000379 -0.000645  0.001474 -0.002011
                                 0.004598 -0.005218  0.011915 -0.010370  0.023712 -0.015069  0.034382 -0.010285  0.023618  0.013838
                                -0.031956  0.042455 -0.094725 -0.005267  0.000161  0.053764 -0.104529 -0.007205 -0.003114  0.004309
                                 0.004965 -0.086595  0.184945  0.011873  0.000971 -0.142800  0.290973 -0.105938  0.263176 -0.064075
                                 0.152140 -0.019267  0.037101 -0.000001 -0.000000 -0.000010 -0.000002 -0.000056 -0.000012 -0.000207
                                -0.000041 -0.000547 -0.000119 -0.001102 -0.000213 -0.001441 -0.000330 -0.001491 -0.000222 -0.000171
                                -0.000391 -0.000738  0.000611  0.001738 -0.000670  0.000889  0.000909  0.001066  0.000758  0.006745
                                 0.000922  0.003994 -0.002546 -0.000312 -0.000256  0.002897  0.000498  0.001039 -0.005706 -0.001649
                                -0.001196  0.007622  0.000005  0.000031  0.000153  0.000596  0.001966  0.006013  0.008309 -0.021693
                                -0.007349 -0.041976 -0.002692 -0.001078 -0.037425 -0.001425 -0.015453 -0.051115 -0.080836 -0.069846
                                -0.001429 -0.000635 -0.012748 -0.001313  0.001226 -0.003175  0.004780 -0.000060  0.000068  0.000774
                                 0.005745  0.000925 -0.001028  0.000596 -0.003621

  20.1   +    -0.3931  -45.9651  0.000000  0.000000  0.000001  0.000002  0.000004  0.000007  0.000014  0.000024  0.000043  0.000075
                                 0.000132  0.000234  0.000419  0.000756  0.001360  0.002351  0.003517  0.000031  0.003387 -0.001899
                                -0.017061 -0.029781 -0.004578  0.079307  0.003867  0.079408 -0.075402 -0.213123 -0.016844 -0.013113
                                 0.278844  0.002609  0.271265 -0.223557 -0.451039 -0.132165  0.002559 -0.000000 -0.000000 -0.000000
                                -0.000000 -0.000000 -0.000000 -0.000000 -0.000000 -0.000001 -0.000002 -0.000006 -0.000013 -0.000030
                                 0.000001 -0.000057 -0.000071 -0.000026  0.000138  0.000310  0.000169 -0.000452  0.000742 -0.002945
                                 0.006844 -0.010583  0.009408 -0.018786  0.037102 -0.022991  0.003834  0.009937  0.004225  0.000001
                                 0.000002  0.000008  0.000013  0.000045  0.000070  0.000206  0.000325  0.000798  0.001262  0.002493
                                 0.003937  0.006450  0.010201  0.012862  0.020307  0.018592  0.029432  0.012908  0.020252 -0.017503
                                -0.027374 -0.049863 -0.080871 -0.007273 -0.000891 -0.045341 -0.087775 -0.013549 -0.004632  0.010642
                                 0.005496  0.094718  0.156730  0.004503  0.002327  0.160199  0.246796  0.137774  0.231167  0.083704
                                 0.132503  0.022680  0.023927  0.000001  0.000000  0.000005  0.000001  0.000027  0.000003  0.000108
                                 0.000013  0.000271  0.000029  0.000587  0.000076  0.000687  0.000065  0.000947  0.000151 -0.001318
                                -0.000254  0.004273  0.000798 -0.008340 -0.001089  0.007626  0.000646 -0.006826 -0.000455 -0.003003
                                 0.000164 -0.004302 -0.003556  0.000009 -0.001960  0.002031  0.000292  0.005061 -0.000901  0.000479
                                -0.006343  0.002451 -0.000005 -0.000027 -0.000136 -0.000528 -0.001742 -0.005344 -0.007274  0.019999
                                 0.005847  0.029870  0.002361  0.000979  0.033254  0.000707  0.007586  0.025082  0.038556  0.041360
                                 0.000658  0.000302  0.010163  0.002637  0.001289  0.008643  0.004546  0.000111  0.000056  0.002897
                                -0.000514 -0.001844 -0.000703 -0.002007 -0.000137

  21.1   0     0.0165  -17.0316  0.000000  0.000000  0.000000  0.000000  0.000000  0.000000  0.000001  0.000002  0.000003  0.000005
                                 0.000008  0.000014  0.000027  0.000045  0.000092  0.000122  0.000405 -0.000395  0.000598 -0.000505
                                -0.000357 -0.003561  0.004737 -0.022316  0.064730 -0.055817  0.042073 -0.128547  0.437705 -0.490003
                                 0.376938 -0.733681  0.647943 -0.414499 -0.189314 -1.732843  1.592757 -0.000000 -0.000000 -0.000000
                                -0.000001 -0.000002 -0.000004 -0.000010 -0.000024 -0.000059 -0.000146 -0.000360 -0.000867 -0.001899
                                -0.000016 -0.003505 -0.004640 -0.001471  0.008769  0.021228  0.008326 -0.024431 -0.057912  0.021183
                                -0.055596  0.044224  0.032333  0.090440  0.042372 -0.004240 -0.300503 -0.516922 -0.566614  0.000001
                                 0.000000  0.000005  0.000000  0.000029  0.000001  0.000135  0.000006  0.000524  0.000025  0.001638
                                 0.000078  0.004236  0.000206  0.008453  0.000402  0.012206  0.000602  0.008491  0.000378 -0.011579
                                -0.000453 -0.032473 -0.002097 -0.006623  0.002585 -0.026846 -0.005712 -0.012830  0.004191  0.010711
                                -0.003170  0.059019  0.004796  0.012956 -0.004616  0.102165  0.009087  0.050784  0.005024 -0.032236
                                 0.004836 -0.027002 -0.005909  0.000001 -0.000000  0.000009 -0.000001  0.000041 -0.000003  0.000188
                                -0.000016  0.000400 -0.000031  0.001041 -0.000094  0.000838 -0.000062  0.002249 -0.000220 -0.006250
                                 0.000618  0.017569 -0.001517 -0.030416  0.002961  0.036418 -0.003074 -0.037727  0.002391  0.005343
                                -0.001638 -0.042454  0.001863 -0.003029 -0.000261  0.000239  0.007557  0.000441  0.000008 -0.008143
                                -0.000715 -0.000033  0.000006  0.000035  0.000171  0.000696  0.002022  0.002341  0.001153 -0.058963
                                -0.001164  0.201059  0.005440  0.001716  1.244191  0.001249  0.013831  0.047317  0.075772 -0.185617
                                 0.001389  0.000589 -0.244148  0.000979 -0.000282  0.020944 -0.001196  0.000140 -0.000008  0.076268
                                -0.001305 -0.001264  0.000541 -0.010486  0.001374

  22.1   0     0.0473  -15.0765  0.000000  0.000000  0.000000  0.000000  0.000001  0.000001  0.000002  0.000004  0.000008  0.000013
                                 0.000023  0.000041  0.000074  0.000131  0.000241  0.000401  0.000691 -0.000156  0.000749 -0.000487
                                -0.002701 -0.005881  0.001176  0.003188  0.025768 -0.009675  0.004686 -0.079026  0.147544 -0.163290
                                 0.143786 -0.132513  0.128472  0.021337 -0.279566 -3.186049  2.146731  0.000000  0.000000  0.000000
                                 0.000001  0.000002  0.000004  0.000010  0.000025  0.000059  0.000151  0.000357  0.000919  0.001700
                                 0.000864  0.002623  0.005424  0.000388 -0.006791 -0.026207  0.002825 -0.012560  0.420085 -0.693805
                                 1.126000 -1.200847  0.598238 -0.744639  0.939216 -0.700544  0.515010 -1.080356  0.772516 -0.000000
                                -0.000000 -0.000003 -0.000000 -0.000016 -0.000001 -0.000070 -0.000007 -0.000293 -0.000025 -0.000847
                                -0.000080 -0.002386 -0.000205 -0.004280 -0.000411 -0.007251 -0.000591 -0.002901 -0.000415  0.001267
                                 0.000566  0.045146  0.001526 -0.145221  0.000550  0.241990  0.000972 -0.239621  0.000849  0.180709
                                -0.000586 -0.151026 -0.002635  0.279026 -0.000867 -0.305522 -0.004600  0.026079 -0.005438 -0.110134
                                -0.002277 -0.299153 -0.000876 -0.000001  0.000000 -0.000001  0.000001 -0.000038  0.000004 -0.000037
                                 0.000018 -0.000381  0.000040 -0.000081  0.000101 -0.001601  0.000092  0.002357  0.000196 -0.019507
                                -0.000369  0.051038  0.000921 -0.088258 -0.002032  0.103772  0.002056 -0.101189 -0.001627  0.081390
                                 0.001221 -0.048904 -0.002423 -0.000024  0.000079 -0.000478  0.000659 -0.000037  0.000954 -0.000581
                                 0.000137 -0.001050  0.000002  0.000008  0.000046  0.000155  0.000687  0.004429  0.006993 -0.006607
                                -0.006249 -0.017663 -0.005630 -0.002120  1.574001 -0.001210 -0.013547 -0.046095 -0.072669 -0.040699
                                -0.001404 -0.000585 -0.755953 -0.001298 -0.000012  0.004234  0.000090 -0.000063  0.000001 -0.034851
                                 0.002794  0.000267 -0.000562 -0.003232 -0.001001

                                   1 2px     1 2px     1 2px     1 2px     1 2px     1 2px     1 2px     1 2px     1 2px     1 2px  
                                   1 2px     1 2px     1 2px     1 2px     1 2px     1 2px     1 2px     1 2px     1 2px     1 2px  
                                   1 2px     1 2px     1 2px     1 2px     1 2px     1 2px     1 2px     1 2px     1 2px     1 2px  
                                   1 2px     1 2px     1 3d1+    1 3d1+    1 3d1+    1 3d1+    1 3d1+    1 3d1+    1 3d1+    1 3d1+ 
                                   1 3d1+    1 3d1+    1 3d1+    1 3d1+    1 3d1+    1 3d1+    1 3d1+    1 3d1+    1 3d1+    1 3d1+ 
                                   1 3d1+    1 3d1+    1 3d1+    1 3d1+    1 4f1+    1 4f3+    1 4f1+    1 4f3+    1 4f1+    1 4f3+ 
                                   1 4f1+    1 4f3+    1 4f1+    1 4f3+    1 4f1+    1 4f3+    1 4f1+    1 4f3+    1 4f1+    1 4f3+ 
                                   1 4f1+    1 4f3+    1 4f1+    1 4f3+    1 4f1+    1 4f3+    1 4f1+    1 4f3+    1 4f1+    1 4f3+ 
                                   1 4f1+    1 4f3+    1 4f1+    1 4f3+    1 5g1+    1 5g3+    1 5g1+    1 5g3+    1 5g1+    1 5g3+ 
                                   2 2px     2 2px     2 2px     2 2px     2 2px     2 2px     2 2px     2 2px     2 3d1+    2 3d1+ 
                                   2 3d1+    2 3d1+    2 4f1+    2 4f3+    2 4f1+    2 4f3+ 

   1.2   2  -433.4963-1210.2319  0.000003  0.000008  0.000024  0.000062  0.000153  0.000367  0.000873  0.002085  0.005048  0.012348
                                 0.030033  0.070112  0.147676 -0.000313  0.257464  0.326975  0.249426  0.089029  0.009866  0.000452
                                -0.000268  0.000435 -0.000602  0.000418 -0.000283  0.000076 -0.000019  0.000014 -0.000004  0.000001
                                -0.000000  0.000000 -0.000000 -0.000000 -0.000000 -0.000000 -0.000000 -0.000001 -0.000002 -0.000001
                                -0.000000 -0.000001 -0.000000 -0.000001  0.000001 -0.000001  0.000001 -0.000000  0.000000 -0.000000
                                 0.000000 -0.000000  0.000000 -0.000000  0.000000 -0.000000  0.000000  0.000000 -0.000000  0.000001
                                -0.000000  0.000000  0.000001  0.000001  0.000000  0.000000  0.000000  0.000000 -0.000000 -0.000000
                                -0.000000  0.000000 -0.000000 -0.000001  0.000000  0.000000 -0.000000 -0.000000  0.000000  0.000000
                                -0.000000 -0.000000  0.000000  0.000000  0.000000 -0.000000 -0.000000 -0.000000  0.000000  0.000000
                                 0.000000  0.000000  0.000000  0.000000 -0.000000  0.000000 -0.000000  0.000000  0.000000  0.000000
                                 0.000000  0.000000 -0.000000  0.000000 -0.000000  0.000000

   2.2   2   -99.6554 -434.2306 -0.000001 -0.000004 -0.000012 -0.000032 -0.000079 -0.000189 -0.000450 -0.001078 -0.002625 -0.006472
                                -0.015961 -0.038049 -0.083084  0.000803 -0.151974 -0.196302 -0.091913  0.227200  0.497340  0.337478
                                 0.075579  0.016773 -0.015274  0.013963 -0.009954  0.002937 -0.001016  0.000705 -0.000263  0.000023
                                -0.000007  0.000002 -0.000000 -0.000000 -0.000000 -0.000000 -0.000001 -0.000004 -0.000010 -0.000022
                                -0.000035 -0.000057 -0.000032  0.000006 -0.000021  0.000018 -0.000009  0.000000 -0.000001 -0.000003
[...]
                                -0.000354 -0.037176  0.004748  0.000005  0.008699 -0.000053

  10.3   +    -0.4357  -49.9936  0.000000  0.000000  0.000000  0.000001  0.000002  0.000004  0.000010  0.000023  0.000056  0.000138
                                 0.000343  0.000823  0.001818 -0.000028  0.003382  0.004376  0.001455 -0.008459 -0.019963 -0.008507
                                 0.025340  0.035777  0.016299 -0.006186  0.022698 -0.066935 -0.071801 -0.035086  0.004345  0.086557
                                 0.070393 -0.003795 -0.000003 -0.000018 -0.000100 -0.000462 -0.001793 -0.005595 -0.014498 -0.028861
                                -0.041825 -0.028752  0.039035  0.115217  0.001345  0.124750  0.006426 -0.007894 -0.228064 -0.007892
                                -0.359247 -0.309426 -0.158082 -0.027054 -0.000004  0.000000 -0.000036  0.000001 -0.000205  0.000003
                                -0.000740  0.000011 -0.002001  0.000028 -0.003899  0.000060 -0.005307  0.000076 -0.004881  0.000083
                                -0.002981  0.000080  0.002448 -0.000108 -0.001927 -0.000126  0.009718 -0.000042  0.007209  0.000142
                                 0.022657  0.000536  0.012423  0.000417  0.001067 -0.001069 -0.001243  0.001255  0.001510 -0.002542
                                 0.004489  0.048525  0.161354  0.257664  0.250126  0.004430  0.001983  0.054825  0.002110  0.000240
                                 0.000073 -0.013837 -0.001356  0.000016  0.001144 -0.000054

  11.3   0     0.0470  -16.3981  0.000000  0.000000  0.000000  0.000001  0.000001  0.000003  0.000008  0.000020  0.000047  0.000123
                                 0.000283  0.000754  0.001267  0.001055  0.001706  0.004658 -0.000161 -0.004554 -0.023026  0.007067
                                -0.025844  0.488490 -0.836464  1.339935 -1.426296  0.720293 -0.803616  0.986486 -0.672135  0.393603
                                -0.222156  1.287948  0.000000  0.000003  0.000017  0.000077  0.000303  0.000936  0.002449  0.004818
                                 0.007107  0.004628 -0.006022 -0.022595  0.016663 -0.046688  0.026296 -0.018795  0.051520 -0.026670
                                 0.087729  0.044764  0.050648  0.014425  0.000002  0.000000  0.000013  0.000000  0.000092  0.000003
                                 0.000285  0.000009  0.000907  0.000028  0.001450  0.000044  0.002691  0.000088  0.000658  0.000014
                                 0.009863  0.000474 -0.023179 -0.001101  0.035722  0.001586 -0.041921 -0.001832  0.028872  0.001819
                                -0.031190 -0.000507  0.021163  0.002032 -0.000717  0.000112  0.001272 -0.000052 -0.001548  0.000279
                                -0.001731 -0.017477 -0.054881 -0.094619 -0.098619 -0.001134 -0.000624 -0.344158 -0.000453 -0.005067
                                -0.000054  0.027280  0.000266  0.000020 -0.001267 -0.000094

  12.3   0     0.1674  -19.4906 -0.000000 -0.000000 -0.000000 -0.000001 -0.000003 -0.000006 -0.000015 -0.000035 -0.000090 -0.000204
                                -0.000564 -0.001138 -0.003659  0.003140 -0.008678 -0.004196 -0.006305  0.020895  0.014075  0.054438
                                -0.176096  1.260271 -2.471530  3.880135 -4.193305  2.340359 -2.029201  2.961603 -1.854308  0.749416
                                -2.022606  1.451025 -0.000001 -0.000004 -0.000022 -0.000092 -0.000400 -0.001104 -0.003275 -0.005501
                                -0.010237 -0.002502 -0.002183  0.082586 -0.311611  0.502159 -0.510954  0.383073 -0.291642  0.575033
                                -0.596689  0.115273 -0.335516  0.631920 -0.000001 -0.000000 -0.000011 -0.000000 -0.000053 -0.000003
                                -0.000223 -0.000009 -0.000520 -0.000032 -0.001212 -0.000048 -0.001220 -0.000106 -0.002205  0.000001
                                 0.004221 -0.000704 -0.011844  0.001654  0.019959 -0.002299 -0.017655  0.002635  0.017456 -0.002730
                                -0.006756  0.000297 -0.044928 -0.003486 -0.001702 -0.000084  0.003960 -0.000063 -0.003828 -0.000226
                                 0.000719  0.010525  0.042723  0.049029  0.210234  0.001930  0.000615 -0.147372  0.001938  0.013784
                                 0.000149 -0.063532 -0.000695 -0.000031  0.005099  0.000135

                                   1 3d2-    1 3d2-    1 3d2-    1 3d2-    1 3d2-    1 3d2-    1 3d2-    1 3d2-    1 3d2-    1 3d2- 
                                   1 3d2-    1 3d2-    1 3d2-    1 3d2-    1 3d2-    1 3d2-    1 3d2-    1 3d2-    1 3d2-    1 3d2- 
                                   1 3d2-    1 3d2-    1 4f2-    1 4f2-    1 4f2-    1 4f2-    1 4f2-    1 4f2-    1 4f2-    1 4f2- 
                                   1 4f2-    1 4f2-    1 4f2-    1 4f2-    1 4f2-    1 4f2-    1 4f2-    1 5g2-    1 5g4-    1 5g2- 
                                   1 5g4-    1 5g2-    1 5g4-    2 3d2-    2 3d2-    2 3d2-    2 3d2-    2 4f2-    2 4f2- 

   1.4   2   -77.9334 -399.4158  0.000023  0.000139  0.000775  0.003570  0.013712  0.042423  0.107387  0.212869  0.316986  0.314263
                                 0.165422  0.039800 -0.002998  0.006362 -0.001649  0.001196 -0.000145  0.000207 -0.000131  0.000009
                                -0.000004  0.000001 -0.000000 -0.000000  0.000000  0.000000 -0.000008 -0.000004  0.000000 -0.000003
                                 0.000002 -0.000003  0.000003 -0.000002  0.000001  0.000000  0.000000 -0.000000 -0.000000 -0.000000
                                 0.000000  0.000000 -0.000000  0.000000  0.000000  0.000000  0.000000 -0.000000  0.000000

   2.4   2   -12.1409 -166.7666 -0.000011 -0.000071 -0.000396 -0.001829 -0.007082 -0.022100 -0.056985 -0.113588 -0.164743 -0.123703
                                 0.108835  0.363936  0.028501  0.382573  0.028784  0.197800  0.045467 -0.007020  0.006355 -0.000196
                                 0.000106 -0.000017 -0.000000 -0.000000 -0.000002 -0.000008 -0.000019 -0.000040 -0.000067 -0.000128
                                -0.000032  0.000021 -0.000008 -0.000005 -0.000013 -0.000001  0.000001  0.000276 -0.000000 -0.000212
                                 0.000000  0.000089 -0.000000  0.000000 -0.000004 -0.000000 -0.000008 -0.000001  0.000009

   3.4   2    -3.0865 -139.8641 -0.000000 -0.000000 -0.000000 -0.000001 -0.000003 -0.000009 -0.000022 -0.000044 -0.000062 -0.000050
                                 0.000063  0.000142  0.000224 -0.000173  0.000262 -0.000185  0.000197 -0.000409  0.000031 -0.000384
                                -0.000064 -0.000003  0.000217  0.002021  0.011519  0.041984  0.112589  0.222646  0.305313  0.311428
                                 0.222695  0.006126  0.096095  0.003697  0.018695 -0.000849  0.000773 -0.000073  0.000000  0.000021
                                -0.000000 -0.000250  0.000000  0.000051  0.000283  0.000003 -0.000066 -0.000096 -0.000117

   4.4   +    -0.5450  -57.0598  0.000003  0.000020  0.000115  0.000529  0.002054  0.006410  0.016611  0.033058  0.047927  0.032929
                                -0.044532 -0.132369  0.001480 -0.147335 -0.002173  0.004232  0.260645  0.002553  0.413068  0.349777
                                 0.155430  0.018515  0.000001  0.000006  0.000032  0.000119  0.000310  0.000622  0.000788  0.000862
                                -0.000115  0.001396 -0.001340 -0.000053 -0.003825 -0.006759 -0.010561  0.003164  0.000000 -0.005099
                                -0.000001  0.007554  0.000001  0.001521  0.005616  0.000071  0.004144 -0.001063 -0.002381

   5.4   0     0.1938  -16.3277 -0.000001 -0.000003 -0.000025 -0.000086 -0.000456 -0.001025 -0.003808 -0.004742 -0.013192  0.003568
                                -0.020523  0.187936 -0.869612  1.354244 -1.425997  1.070155 -0.724986  1.592615 -1.508682  0.435536
                                -0.652420  1.321388 -0.000000  0.000005 -0.000005  0.000089 -0.000051  0.000592 -0.000741  0.003237
                                -0.018552  0.047641 -0.078183  0.084734 -0.073767  0.053106 -0.037452 -0.000259 -0.000000  0.000234
                                 0.000000 -0.000839 -0.000000 -0.000152  0.010735  0.000090 -0.012148  0.000946 -0.001571

   6.4   0     0.5538  -22.6310  0.000000  0.000001  0.000004  0.000028  0.000069  0.000347  0.000521  0.001971  0.000777  0.004682
                                -0.011611  0.047879 -0.288342  0.434090 -0.476038  0.359335 -0.215792  0.552185 -0.478622  0.204050
                                -0.283067  0.104991  0.000000 -0.000174 -0.000225 -0.003271 -0.002031 -0.020082  0.009050 -0.083844
                                 0.437616 -1.141590  1.899756 -2.088304  1.929987 -1.427443  1.344587 -0.004124 -0.000000  0.009479
                                 0.000000 -0.007624 -0.000000  0.014532  0.002006  0.000241  0.157953 -0.002722 -0.007019

 HOMO     20.1    -0.346158 =      -9.4194eV
 LUMO     21.1    -0.002375 =      -0.0646eV
 LUMO-HOMO         0.343783 =       9.3548eV


 **********************************************************************************************************************************
 DATASETS  * FILE   NREC   LENGTH (MB)   RECORD NAMES
              1      22       23.93       500      610      700      900      950      970     1000      129      960     1700   
                                          VAR    BASINP    GEOM    SYMINP    ZMAT    AOBASIS   BASIS     P2S    ABASIS    OPER   
                                         1101     1401     1411     1412     1650     1100     1400     1410     1200     1210   
                                          SR      EKINR    POTR     PVPR    MOLCAS      S      EKIN      POT      H0       H01  
                                         1080     1600   
                                         AOSYM     SMH  

              2       5        9.37       700     1000      520     2100     2101   
                                         GEOM     BASIS   MCVARS     RHF      RHF  

 PROGRAMS   *        TOTAL       RHF       RHF       INT
 CPU TIMES  *       216.96     10.41     33.94    172.39
 REAL TIME  *       232.06 SEC
 DISK USED  *        11.18 GB      
 SF USED    *         0.24 MB      
 GA USED    *         0.00 MB       (max)       0.00 MB       (current)
 **********************************************************************************************************************************
 SETTING SCF(1)         =    -17901.80584427  AU                              
 SETTING _CC_NORM_MAX   =         2.00000000                                  


 PROGRAM * CCSD (Restricted open-shell coupled cluster)     Authors: C. Hampel, H.-J. Werner, 1991, M. Deegan, P.J. Knowles, 1992


 Convergence thresholds:  THRVAR = 1.00D-08  THRDEN = 1.70D-06

 CCSD(T)     terms to be evaluated (factor= 1.000)


 Number of closed-shell orbitals:  41 (  20   9   9   3 )
 Number of active  orbitals:        3 (   0   1   1   1 )
 Number of external orbitals:     402 ( 165  96  96  45 )

 For full I/O caching in triples, increase memory by 261.06 Mwords to 1285.34 Mwords.

 Number of N-1 electron functions:              85
 Number of N-2 electron functions:            3570
 Number of singly external CSFs:             10608
 Number of doubly external CSFs:         112813020
 Total number of CSFs:                   112823628

 Molecular orbitals read from record     2101.2  Type=RHF/CANONICAL (state 1.1)

 Integral transformation finished. Total CPU:  53.31 sec, npass=  1  Memory used: 140.45 MW

 Starting RMP2 calculation

 Wavefunction is spin-projected

 ITER.      SQ.NORM     CORR.ENERGY   TOTAL ENERGY   ENERGY CHANGE        DEN1      VAR(S)    VAR(P)  DIIS     TIME
   1      1.29728922    -3.74293491-17905.54877918    -3.74293491    -0.00265237  0.33D-04  0.13D-02  1  1    73.10
   2      1.30063419    -3.74577268-17905.55161695    -0.00283776    -0.00001469  0.36D-06  0.10D-04  2  2   124.72
   3      1.30090159    -3.74591466-17905.55175894    -0.00014199    -0.00000009  0.66D-08  0.67D-07  3  3   145.77
   4      1.30090902    -3.74591538-17905.55175965    -0.00000071    -0.00000000  0.12D-09  0.40D-09  4  4   174.24

 Norm of t1 vector:      0.06684400      S-energy:    -0.00983367      T1 diagnostic:  0.00025690
 Norm of t2 vector:      0.54446387      P-energy:    -3.73608170
                                         Alpha-Beta:  -2.41649293
                                         Alpha-Alpha: -0.67838326
                                         Beta-Beta:   -0.64120552

 Spin contamination <S**2-Sz**2-Sz>     0.00000000
  Reference energy                   -17901.8058442708    
  RHF-RMP2 correlation energy          -3.745915375177
 !RHF-RMP2 energy                    -17905.5517596460    
 (NB above energy spin projected)

 Starting RCCSD calculation

 ITER.      SQ.NORM     CORR.ENERGY   TOTAL ENERGY   ENERGY CHANGE        DEN1      VAR(S)    VAR(P)  DIIS     TIME
   1      1.21306163    -3.30598862-17905.11183289    -3.30598862    -0.15741896  0.20D-01  0.17D-01  0  0   530.36
   2      1.24903602    -3.45084885-17905.25669312    -0.14486023    -0.02236677  0.23D-02  0.47D-02  0  0   871.45
   3      1.24757437    -3.40314572-17905.20898999     0.04770313    -0.00565899  0.29D-02  0.87D-03  1  1  1222.78
   4      1.25264249    -3.41821763-17905.22406190    -0.01507191    -0.00026811  0.13D-03  0.61D-04  2  2  1553.70
   5      1.25621817    -3.41901502-17905.22485929    -0.00079739    -0.00011683  0.11D-03  0.14D-04  3  3  1895.22
   6      1.26145463    -3.42029534-17905.22613961    -0.00128032    -0.00001069  0.92D-05  0.14D-05  4  4  2227.06
   7      1.26256661    -3.42042245-17905.22626672    -0.00012711    -0.00000406  0.34D-05  0.62D-06  5  5  2569.90
   8      1.26304978    -3.42037511-17905.22621938     0.00004734    -0.00000054  0.46D-06  0.10D-06  6  6  2916.13
   9      1.26314660    -3.42037914-17905.22622341    -0.00000403    -0.00000016  0.14D-06  0.31D-07  6  1  3230.84
  10      1.26316925    -3.42039320-17905.22623747    -0.00001406    -0.00000002  0.21D-07  0.37D-08  6  2  3600.86
  11      1.26317005    -3.42038733-17905.22623160     0.00000587    -0.00000001  0.73D-08  0.13D-08  6  3  3929.38
  12      1.26318233    -3.42039113-17905.22623540    -0.00000380    -0.00000000  0.13D-08  0.30D-09  6  4  4248.12
  13      1.26317867    -3.42038838-17905.22623265     0.00000275    -0.00000000  0.38D-09  0.77D-10  6  6  4588.47
  14      1.26318033    -3.42038855-17905.22623283    -0.00000017    -0.00000000  0.55D-10  0.22D-10  6  5  4939.02

 Norm of t1 vector:      0.18423471      S-energy:    -0.00928002      T1 diagnostic:  0.01315362
                                                                       D1 diagnostic:  0.06299873
 Norm of t2 vector:      0.47878795      P-energy:    -3.41110853
                                         Alpha-Beta:  -2.26905967
                                         Alpha-Alpha: -0.58802954
                                         Beta-Beta:   -0.55401933

 Singles amplitudes (print threshold =  0.500E-01):

         I         SYM. A    A   T(IA) [Beta-Beta]

        29         2         1     -0.08890312
        39         3         1     -0.08866010

 Doubles amplitudes (print threshold =  0.500E-01):

         I         J         SYM. A    SYM. B    A         B      T(IJ, AB) [Beta-Beta]

        39        29         2         3         1         1      0.06194450
        39        29         3         2         1         1     -0.06194450

 Spin contamination <S**2-Sz**2-Sz>     0.00000000

 For full I/O caching in triples, increase memory by 429.19 Mwords to 1453.47 Mwords.
 

  Correlated core orbitals:             1.1       2.1       3.1       4.1       5.1       6.1       7.1       8.1       9.1      10.1
                                       11.1      12.1      13.1      14.1      15.1      16.1       1.2       2.2       3.2       4.2
                                        5.2       6.2       7.2       8.2       1.3       2.3       3.3       4.3       5.3       6.3
                                        7.3       8.3       1.4       2.4       3.4
  Orbital energies:                 -2813.2568 -497.5609 -433.6015 -118.8468  -99.7579  -77.9393  -77.9369  -26.6970  -20.6185  -20.3058
                                      -12.1523  -12.1513   -4.3622   -3.0963   -3.0942   -2.6394 -433.6022  -99.7564  -77.9429  -20.3010
                                      -12.1632   -3.0981   -3.0907   -2.6127 -433.6022  -99.7564  -77.9429  -20.3010  -12.1632   -3.0981
                                       -3.0907   -2.6127  -77.9430  -12.1617   -3.1020
 
  RCCSD core-core energy               -2.550291440741
  RCCSD core-valence energy            -0.347970396285
  RCCSD valence correlation energy     -0.522126717974
 

 RESULTS
 =======

  Reference energy                   -17901.8058442708    
  RCCSD singles energy                 -0.009280024602
  RCCSD pair energy                    -3.411108530398
  RCCSD correlation energy             -3.420388555000
  Triples (T) contribution             -0.065647125952
  Total correlation energy             -3.486035680952
 
  RHF-RCCSD energy                   -17905.2262328258    
  RHF-RCCSD[T] energy                -17905.2984128692    
  RHF-RCCSD-T energy                 -17905.2912591340    
 !RHF-RCCSD(T) energy                -17905.2918799517    

 Program statistics:

 Available memory in ccsd:              1023983972
 Min. memory needed in ccsd:             308465420
 Max. memory used in ccsd:               456076551
 Max. memory used in cckext:             376073888 (14 integral passes)
 Max. memory used in cckint:             140449433 ( 1 integral passes)



 **********************************************************************************************************************************
 DATASETS  * FILE   NREC   LENGTH (MB)   RECORD NAMES
              1      22       23.93       500      610      700      900      950      970     1000      129      960     1700   
                                          VAR    BASINP    GEOM    SYMINP    ZMAT    AOBASIS   BASIS     P2S    ABASIS    OPER   
                                         1101     1401     1411     1412     1650     1100     1400     1410     1200     1210   
                                          SR      EKINR    POTR     PVPR    MOLCAS      S      EKIN      POT      H0       H01  
                                         1080     1600   
                                         AOSYM     SMH  

              2       5        9.37       700     1000      520     2100     2101   
                                         GEOM     BASIS   MCVARS     RHF      RHF  

 PROGRAMS   *        TOTAL  RCCSD(T)       RHF       RHF       INT
 CPU TIMES  *     14261.70  14044.64     10.41     33.94    172.39
 REAL TIME  *     17632.25 SEC
 DISK USED  *       169.44 GB      
 SF USED    *        30.11 GB      
 GA USED    *         0.00 MB       (max)       0.00 MB       (current)
 **********************************************************************************************************************************
 SETTING CCSD(1)        =    -17905.29187995  AU                              
 Output type csv         
                                                                                                                                                                                                                                                                

     Z,SCF  ,CCSD
   1.6,   -17901.80584,   -17905.29188
                                                  

 RCCSD(T)/USERDEF energy= -17905.291879951732

        RCCSD(T)        RHF-SCF         RHF-SCF 
 -17905.29187995 -17901.80584427 -17901.67127221
 **********************************************************************************************************************************
 Molpro calculation terminated
 Variable memory released
