
 Primary working directories    : /global/cscratch1/sd/aannabe
 Secondary working directories  : /global/cscratch1/sd/aannabe
 Wavefunction directory         : /global/homes/a/aannabe/wfu/
 Main file repository           : /global/cscratch1/sd/aannabe/

 SHA1      : 19cd028119e0e09f93f0674bd8af7968d9b3eff6
 NAME      : 2015.1.36
 ARCHNAME  : linux/x86_64
 FC        : /opt/cray/pe/craype/2.5.14/bin/ftn
 BLASLIB   : -L/opt/intel/compilers_and_libraries_2018.1.163/linux/mkl/lib/intel64 -Wl,-_start-group -lmkl_intel_ilp64 -lmkl_intel_thread -lmkl_core -Wl,-_end-group -liomp5
 id        : lbl

 Nodes     nprocs
 nid00663    23
 Number of processes for MPI-2 version of Molpro:   nprocs(total)=   24   nprocs(compute)=   23   nprocs(helper)=    1

 Using customized tuning parameters: mindgm=7; mindgv=16; mindgc=1; mindgr=1; noblas=0; minvec=7
 default implementation of scratch files=sf  

 ***,Calculation for Au atom
 memory,512,m
 
 
 geometry={
 1
 Au
 Au  0.0 0.0 0.0
 }
 
 basis={
 Including file /global/cscratch1/sd/aannabe/repos/heavy_element_ecps/Au/arep/atoms/MWBSTU/basis/MWBSTU
 Including file /global/cscratch1/sd/aannabe/repos/heavy_element_ecps/Au/arep/atoms/MWBSTU/basis/aug-cc-pwCVTZ.basis
 }
 
 Including file /global/cscratch1/sd/aannabe/repos/heavy_element_ecps/Au/arep/atoms/MWBSTU/basis/states.proc
 
 do i=1,15
     if (i.eq.1) then
         Is1dten
     else if (i.eq.2) then
         As2dten
     else if (i.eq.3) then
         Ip1dten
     else if (i.eq.4) then
         Is2d9
     else if (i.eq.5) then
         IIdten
     else if (i.eq.6) then
         IIs1d9
     else if (i.eq.7) then
         IIId9
     else if (i.eq.8) then
         IVd8
     else if (i.eq.9) then
         Vd7
     else if (i.eq.10) then
         VId6
     else if (i.eq.11) then
         VIId5
     else if (i.eq.12) then
         XIIXeandF
     else if (i.eq.13) then
         XVp3
     else if (i.eq.14) then
         XVIIIs2
     else if (i.eq.15) then
         VIId5f1
     endif
     scf(i)=energy
     _CC_NORM_MAX=2.0
     {rccsd(t),maxit=100;core}
     ccsd(i)=energy
 enddo
 
 
 table,scf,ccsd
 save, 3.csv,new
 

 Variables initialized (889), CPU time= 0.01 sec
 Commands  initialized (702), CPU time= 0.01 sec, 572 directives.
 Default parameters read. Elapsed time= 0.17 sec

 Checking input...
 Passed
1


                                         ***  PROGRAM SYSTEM MOLPRO  ***
                                       Copyright, TTI GmbH Stuttgart, 2015
                                    Version 2015.1 linked Dec 29 2018 15:55:43


 **********************************************************************************************************************************
 LABEL *   Calculation for Au atom                                                       
  64 bit mpp version                                                                     DATE: 04-May-21          TIME: 19:33:42  
 **********************************************************************************************************************************

 SHA1:             19cd028119e0e09f93f0674bd8af7968d9b3eff6
 **********************************************************************************************************************************

Geometry recognized as XYZ


 Variable memory set to  512000000 words,  buffer space   230000 words

 SETTING BASIS          =    USERDEF

 DO I                   =         1.00000000   

 Running procedure=IS1DTEN


 Recomputing integrals since basis changed


 Using spherical harmonics



 PROGRAM * SEWARD (Integral evaluation for generally contracted gaussian basis sets)     Author: Roland Lindh, 1990

 Geometry written to block  1 of record 700

 Orientation using atomic masses  
 Molecule type: Atom
 Symmetry elements: X,Y,Z
 Rotational constants:       0.0000000      0.0000000      0.0000000 GHz  (calculated with average atomic masses)

 Point group  D2h 



 ATOMIC COORDINATES

 NR  ATOM    CHARGE       X              Y              Z

   1  AU     19.00    0.000000000    0.000000000    0.000000000

 NUCLEAR CHARGE:                   19
 NUMBER OF PRIMITIVE AOS:         449
 NUMBER OF SYMMETRY AOS:          365
 NUMBER OF CONTRACTIONS:          365   (  86Ag  +  61B3u +  61B2u +  27B1g +  61B1u +  27B2g +  27B3g +  15Au  )
 NUMBER OF CORE ORBITALS:           4   (   1Ag  +   1B3u +   1B2u +   0B1g +   1B1u +   0B2g +   0B3g +   0Au  )
 NUMBER OF VALENCE ORBITALS:        6   (   3Ag  +   0B3u +   0B2u +   1B1g +   0B1u +   1B2g +   1B3g +   0Au  )


 NUCLEAR REPULSION ENERGY    0.00000000

 EXTRA SYMMETRY OF AOS IN SYMMETRY 1:   1 1 1 1 1 1 1 1 1 1   1 1 1 1 1 1 1 1 1 1   1 1 1 1 1 1 1 1 1 1   1 1 1 1 1 2 3 2 3 2
                                        3 2 3 2 3 2 3 2 3 2   3 2 3 2 3 2 3 2 3 2   3 2 3 2 3 2 3 2 3 2   3 2 3 2 3 2 3 4 5 6
                                        4 5 6 4 5 6
 EXTRA SYMMETRY OF AOS IN SYMMETRY 2:   1 1 1 1 1 1 1 1 1 1   1 1 1 1 1 1 1 1 1 1   1 1 1 1 1 1 1 1 1 1   1 2 3 2 3 2 3 2 3 2
                                        3 2 3 2 3 2 3 2 3 2   3 2 3 2 3 2 3 2 3 2   3
 EXTRA SYMMETRY OF AOS IN SYMMETRY 3:   1 1 1 1 1 1 1 1 1 1   1 1 1 1 1 1 1 1 1 1   1 1 1 1 1 1 1 1 1 1   1 2 3 2 3 2 3 2 3 2
                                        3 2 3 2 3 2 3 2 3 2   3 2 3 2 3 2 3 2 3 2   3
 EXTRA SYMMETRY OF AOS IN SYMMETRY 4:   1 1 1 1 1 1 1 1 1 1   1 1 1 1 1 1 1 1 1 1   1 2 3 2 3 2 3
 EXTRA SYMMETRY OF AOS IN SYMMETRY 5:   1 1 1 1 1 1 1 1 1 1   1 1 1 1 1 1 1 1 1 1   1 1 1 1 1 1 1 1 1 1   1 2 3 2 3 2 3 2 3 2
                                        3 2 3 2 3 2 3 2 3 2   3 2 3 2 3 2 3 2 3 2   3
 EXTRA SYMMETRY OF AOS IN SYMMETRY 6:   1 1 1 1 1 1 1 1 1 1   1 1 1 1 1 1 1 1 1 1   1 2 3 2 3 2 3
 EXTRA SYMMETRY OF AOS IN SYMMETRY 7:   1 1 1 1 1 1 1 1 1 1   1 1 1 1 1 1 1 1 1 1   1 2 3 2 3 2 3

 Eigenvalues of metric

         1 0.109E-05 0.119E-04 0.119E-04 0.186E-04 0.547E-04 0.121E-03 0.121E-03 0.172E-03
         2 0.490E-06 0.215E-04 0.415E-04 0.415E-04 0.153E-03 0.505E-03 0.891E-03 0.891E-03
         3 0.490E-06 0.215E-04 0.415E-04 0.415E-04 0.153E-03 0.505E-03 0.891E-03 0.891E-03
         4 0.119E-04 0.121E-03 0.616E-03 0.199E-02 0.555E-02 0.132E-01 0.261E-01 0.504E-01
         5 0.490E-06 0.215E-04 0.415E-04 0.415E-04 0.153E-03 0.505E-03 0.891E-03 0.891E-03
         6 0.119E-04 0.121E-03 0.616E-03 0.199E-02 0.555E-02 0.132E-01 0.261E-01 0.504E-01
         7 0.119E-04 0.121E-03 0.616E-03 0.199E-02 0.555E-02 0.132E-01 0.261E-01 0.504E-01
         8 0.415E-04 0.891E-03 0.509E-02 0.124E-01 0.336E-01 0.825E-01 0.168E+00 0.319E+00


 Contracted 2-electron integrals neglected if value below      1.0D-13
 AO integral compression algorithm  1   Integral accuracy      1.0D-13

     1798.046 MB (compressed) written to integral file ( 38.7%)

     Node minimum: 22.282 MB, node maximum: 142.868 MB


 NUMBER OF SORTED TWO-ELECTRON INTEGRALS:   12524691.     BUFFER LENGTH:  32768
 NUMBER OF SEGMENTS:   1  SEGMENT LENGTH:   12524691      RECORD LENGTH: 524288

 Memory used in sort:      13.08 MW

 SORT1 READ   581377519. AND WROTE     7269920. INTEGRALS IN     21 RECORDS. CPU TIME:    16.63 SEC, REAL TIME:    20.10 SEC
 SORT2 READ   169258147. AND WROTE   288141177. INTEGRALS IN   6785 RECORDS. CPU TIME:     1.27 SEC, REAL TIME:     1.56 SEC

 Node minimum:    12382733.  Node maximum:    12692957. integrals

 OPERATOR DM      FOR CENTER  0  COORDINATES:    0.000000    0.000000    0.000000


 **********************************************************************************************************************************
 DATASETS  * FILE   NREC   LENGTH (MB)   RECORD NAMES
              1      19       20.87       500      610      700      900      950      970     1000      129      960     1100   
                                          VAR    BASINP    GEOM    SYMINP    ZMAT    AOBASIS   BASIS     P2S    ABASIS      S 
                                         1400     1410     1420     1200     1210     1080     1600     1650     1700   
                                           T        V       ECP      H0       H01     AOSYM     SMH    MOLCAS    OPER   

 PROGRAMS   *        TOTAL       INT
 CPU TIMES  *       190.57    190.24
 REAL TIME  *       198.34 SEC
 DISK USED  *         3.87 GB      
 GA USED    *         0.00 MB       (max)       0.00 MB       (current)
 **********************************************************************************************************************************


 PROGRAM * RHF-SCF (OPEN SHELL)       Authors: W. Meyer, H.-J. Werner


 NUMBER OF ELECTRONS:      10+    9-    SPACE SYMMETRY=1    SPIN SYMMETRY: Doublet 
 CONVERGENCE THRESHOLDS:    1.00E-05 (Density)    1.00E-07 (Energy)
 MAX. NUMBER OF ITERATIONS:       60
 INTERPOLATION TYPE:            DIIS
 INTERPOLATION STEPS:              2 (START)      1 (STEP)
 LEVEL SHIFTS:                 -0.60 (CLOSED) -0.30 (OPEN) 


 Singly occupied orbitals:      4.1
 
 Extra symmetries of mos in symmetry 1:   1   3   2   1
 Orbital guess generated from atomic densities. Full valence occupancy:    4   1   1   1   1   1   1   0


 Molecular orbital dump at record        4202.2

 ITERATION    DDIFF          GRAD             ENERGY        2-EL.EN.            DIPOLE MOMENTS         DIIS   ORB.
    1      0.000D+00      0.000D+00      -134.75078168    212.944402    0.00000    0.00000    0.00000    0    start
    2      0.000D+00      0.102D-01      -134.78614226    207.953752    0.00000    0.00000    0.00000    1    diag,B
    3      0.502D-02      0.365D-02      -134.78889104    208.638746    0.00000    0.00000    0.00000    2    diag,B
    4      0.164D-02      0.521D-03      -134.78912873    208.521867    0.00000    0.00000    0.00000    3    diag,B
    5      0.752D-03      0.142D-03      -134.78916980    208.470683    0.00000    0.00000    0.00000    4    diag,B
    6      0.276D-03      0.369D-04      -134.78917500    208.453404    0.00000    0.00000    0.00000    5    diag,B
    7      0.158D-03      0.871D-05      -134.78917548    208.451707    0.00000    0.00000    0.00000    6    fixocc
    8      0.239D-04      0.447D-05      -134.78917564    208.449945    0.00000    0.00000    0.00000    7    diag,B
    9      0.177D-04      0.181D-05      -134.78917565    208.449463    0.00000    0.00000    0.00000    8    diag,B
   10      0.173D-04      0.300D-05      -134.78917565    208.449455    0.00000    0.00000    0.00000    9    orth
   11      0.176D-04      0.121D-05      -134.78917565    208.449395    0.00000    0.00000    0.00000    9    diag,B
   12      0.205D-05      0.104D-05      -134.78917565    208.449385    0.00000    0.00000    0.00000    0    orth

 Final alpha occupancy:   4   1   1   1   1   1   1   0
 Final beta  occupancy:   3   1   1   1   1   1   1   0

 !RHF STATE 1.1 Energy               -134.789175654382
 Nuclear energy                         0.00000000
 One-electron energy                 -239.01386817
 Two-electron energy                  104.22469251
 Virial quotient                       -2.92547312
 !RHF STATE 1.1 Dipole moment           0.00000000     0.00000000     0.00000000
 Dipole moment /Debye                   0.00000000     0.00000000     0.00000000

 ELECTRON ORBITALS
 =================


   Orb  Occ    Energy  Couls-En    Coefficients

                                   1 1s      1 1s      1 1s      1 1s      1 1s      1 1s      1 1s      1 1s      1 1s      1 1s   
                                   1 1s      1 1s      1 1s      1 1s      1 1s      1 1s      1 1s      1 1s      1 1s      1 1s   
                                   1 1s      1 1s      1 1s      1 1s      1 1s      1 1s      1 1s      1 1s      1 1s      1 1s   
                                   1 1s      1 1s      1 1s      1 1s      1 1s      1 3d0     1 3d2+    1 3d0     1 3d2+    1 3d0  
                                   1 3d2+    1 3d0     1 3d2+    1 3d0     1 3d2+    1 3d0     1 3d2+    1 3d0     1 3d2+    1 3d0  
                                   1 3d2+    1 3d0     1 3d2+    1 3d0     1 3d2+    1 3d0     1 3d2+    1 3d0     1 3d2+    1 3d0  
                                   1 3d2+    1 3d0     1 3d2+    1 3d0     1 3d2+    1 3d0     1 3d2+    1 3d0     1 3d2+    1 3d0  
                                   1 3d2+    1 3d0     1 3d2+    1 3d0     1 3d2+    1 3d0     1 3d2+    1 5g0     1 5g4+    1 5g2+ 
                                   1 5g0     1 5g4+    1 5g2+    1 5g0     1 5g4+    1 5g2+ 

   1.1   2    -4.6883  -21.9168 -0.000000  0.000000 -0.000000  0.000000 -0.000000  0.000000 -0.000000  0.000000 -0.000000  0.000000
                                -0.000001  0.000002 -0.000006  0.000016 -0.000041  0.000107 -0.000265  0.000669 -0.001623  0.003925
                                -0.009180  0.020866 -0.039427 -0.006909  0.435619 -1.157687 -0.617642  1.154321  0.600541  0.030217
                                -0.005134  0.002008 -0.000434  0.574129 -0.200295 -0.000000 -0.000000  0.000000  0.000000  0.000000
                                -0.000000 -0.000000  0.000000 -0.000000  0.000000  0.000000 -0.000000 -0.000000  0.000000  0.000000
                                -0.000000  0.000000  0.000000 -0.000000 -0.000000  0.000000  0.000000 -0.000000 -0.000000  0.000000
                                 0.000000  0.000000  0.000000 -0.000000 -0.000000 -0.000000  0.000000  0.000000 -0.000000 -0.000000
                                -0.000000  0.000000  0.000000 -0.000000 -0.000000  0.000000  0.000000 -0.000000 -0.000000 -0.000000
                                 0.000000  0.000000 -0.000000 -0.000000 -0.000000  0.000000

   2.1   2    -0.4538  -11.3445  0.000000 -0.000000 -0.000000  0.000000 -0.000000  0.000000 -0.000000  0.000000 -0.000000  0.000000
                                -0.000000  0.000000 -0.000000  0.000000 -0.000000  0.000000 -0.000000  0.000000 -0.000000  0.000000
                                -0.000000 -0.000000  0.000000 -0.000000  0.000001 -0.000002 -0.000008  0.000012  0.000009 -0.000007
                                 0.000013 -0.000023  0.000019  0.000006 -0.000015 -0.000000 -0.000000  0.000000  0.000000 -0.000000
                                -0.000000  0.000000  0.000001 -0.000002 -0.000002  0.000006  0.000007 -0.000015 -0.000017  0.000049
                                 0.000056 -0.000097 -0.000110  0.000338  0.000383 -0.001095 -0.001241  0.008331  0.009443 -0.029434
                                -0.033366  0.007105  0.008052  0.148145  0.167933  0.248650  0.281862  0.233017  0.264138  0.136794
                                 0.155063  0.038857  0.044048 -0.022771 -0.025810  0.009834  0.011144  0.000000  0.000000  0.000000
                                -0.000000 -0.000000  0.000000  0.000000  0.000000 -0.000000

   3.1   2    -0.4537  -11.3445  0.000000 -0.000000  0.000000 -0.000000  0.000000 -0.000000  0.000000 -0.000000  0.000000 -0.000000
                                 0.000000 -0.000000  0.000000 -0.000000  0.000000 -0.000000  0.000000 -0.000000  0.000000 -0.000000
                                 0.000000 -0.000000  0.000001  0.000000 -0.000003  0.000014  0.000035 -0.000003  0.000018 -0.000001
                                 0.000007  0.000001  0.000003 -0.000036 -0.000028 -0.000000  0.000000  0.000000 -0.000000 -0.000000
                                 0.000000  0.000001 -0.000000 -0.000002  0.000002  0.000007 -0.000006 -0.000017  0.000015  0.000056
                                -0.000049 -0.000110  0.000097  0.000383 -0.000338 -0.001241  0.001096  0.009445 -0.008333 -0.033369
                                 0.029441  0.008051 -0.007097  0.167931 -0.148148  0.281858 -0.248653  0.264139 -0.233017  0.155061
                                -0.136795  0.044049 -0.038858 -0.025807  0.022760  0.011148 -0.009829 -0.000000 -0.000000 -0.000000
                                 0.000000  0.000000  0.000000 -0.000000 -0.000000 -0.000000

   4.1   +    -0.2903   -7.1057  0.000000 -0.000000  0.000000 -0.000000  0.000000 -0.000000  0.000000 -0.000000  0.000000 -0.000000
                                 0.000000 -0.000001  0.000002 -0.000005  0.000013 -0.000035  0.000086 -0.000218  0.000529 -0.001284
                                 0.003021 -0.006951  0.013596 -0.000443 -0.141295  0.409751  0.234059 -0.524981 -0.379223  0.192824
                                 0.637251  0.366540  0.010654 -0.221447  0.110125 -0.000000 -0.000000  0.000000  0.000000 -0.000000
                                -0.000000  0.000000  0.000000 -0.000000  0.000000  0.000000 -0.000000 -0.000000  0.000000  0.000000
                                -0.000000  0.000000 -0.000000 -0.000000  0.000000  0.000000 -0.000000 -0.000000  0.000000  0.000000
                                -0.000001 -0.000000 -0.000001 -0.000002  0.000002 -0.000003  0.000003 -0.000002  0.000002 -0.000001
                                 0.000001 -0.000000  0.000001  0.000001  0.000001  0.000000 -0.000001 -0.000000 -0.000000 -0.000000
                                -0.000000  0.000000  0.000000  0.000000 -0.000000 -0.000000

   5.1   0     0.0393   -2.2683  0.000000 -0.000000  0.000000 -0.000000  0.000000 -0.000000  0.000000 -0.000000  0.000000 -0.000000
                                 0.000000 -0.000000  0.000001 -0.000003  0.000008 -0.000019  0.000048 -0.000118  0.000286 -0.000670
                                 0.001510 -0.003255  0.007305 -0.022911  0.091018 -0.342401 -1.051263  1.331316  0.892397 -0.543103
                                 0.852758 -2.284112  2.264303  0.875681 -1.498134 -0.000000 -0.000000  0.000000  0.000000 -0.000000
                                -0.000000  0.000000  0.000000 -0.000000 -0.000000  0.000000  0.000000  0.000000 -0.000000 -0.000000
                                 0.000000  0.000000  0.000000 -0.000000 -0.000000  0.000000  0.000000 -0.000000 -0.000000  0.000000
                                 0.000000  0.000001  0.000000 -0.000002 -0.000001 -0.000002 -0.000002 -0.000002 -0.000002 -0.000001
                                -0.000001 -0.000001 -0.000000 -0.000000 -0.000000  0.000001  0.000000  0.000000 -0.000000 -0.000000
                                -0.000000  0.000000  0.000000  0.000000 -0.000000 -0.000000

   6.1   0     0.2183   -3.4178 -0.000000  0.000000 -0.000000  0.000000 -0.000000  0.000000 -0.000000  0.000000 -0.000000  0.000000
                                -0.000001  0.000003 -0.000007  0.000019 -0.000049  0.000124 -0.000311  0.000773 -0.001879  0.004464
                                -0.010257  0.022795 -0.048153  0.086929 -0.127229  0.663686  3.621318 -4.263073 -2.843151  2.003796
                                -5.049028  5.312288 -1.982731 -2.968925  5.579682  0.000000  0.000000 -0.000000 -0.000000  0.000000
                                 0.000000 -0.000000 -0.000000  0.000000  0.000000 -0.000000  0.000000  0.000000 -0.000000 -0.000000
                                 0.000000  0.000000  0.000000 -0.000000 -0.000000  0.000000  0.000000 -0.000000 -0.000000  0.000001
                                 0.000000  0.000002  0.000001 -0.000001 -0.000001  0.000000 -0.000002 -0.000000  0.000001  0.000001
                                -0.000001 -0.000001  0.000001 -0.000002 -0.000001  0.000001  0.000002  0.000000 -0.000000 -0.000000
                                -0.000000  0.000000  0.000000  0.000000 -0.000000 -0.000000

                                   1 2px     1 2px     1 2px     1 2px     1 2px     1 2px     1 2px     1 2px     1 2px     1 2px  
                                   1 2px     1 2px     1 2px     1 2px     1 2px     1 2px     1 2px     1 2px     1 2px     1 2px  
                                   1 2px     1 2px     1 2px     1 2px     1 2px     1 2px     1 2px     1 2px     1 2px     1 2px  
                                   1 2px     1 4f1+    1 4f3+    1 4f1+    1 4f3+    1 4f1+    1 4f3+    1 4f1+    1 4f3+    1 4f1+ 
                                   1 4f3+    1 4f1+    1 4f3+    1 4f1+    1 4f3+    1 4f1+    1 4f3+    1 4f1+    1 4f3+    1 4f1+ 
                                   1 4f3+    1 4f1+    1 4f3+    1 4f1+    1 4f3+    1 4f1+    1 4f3+    1 4f1+    1 4f3+    1 4f1+ 
                                   1 4f3+ 

   1.2   2    -2.7267  -17.5323  0.000000 -0.000000  0.000000 -0.000000  0.000000 -0.000000  0.000000 -0.000000  0.000001 -0.000003
                                 0.000010 -0.000029  0.000078 -0.000193  0.000473 -0.001062  0.002401 -0.004634 -0.001784  0.099049
                                -0.328689 -0.163693  0.525541  0.528929  0.173510  0.016512  0.000493  0.000138 -0.000031  0.134904
                                -0.032310  0.000000  0.000000 -0.000000 -0.000000  0.000000  0.000000 -0.000000 -0.000000  0.000000
                                 0.000000 -0.000000 -0.000000  0.000000 -0.000000 -0.000000  0.000000  0.000000 -0.000000  0.000000
                                -0.000000 -0.000000  0.000000 -0.000000  0.000000 -0.000000  0.000000  0.000000 -0.000000 -0.000000
                                -0.000000

   2.2   0     0.0236   -2.4268  0.000000 -0.000000  0.000000 -0.000000  0.000000 -0.000000  0.000000 -0.000000  0.000000 -0.000001
                                 0.000003 -0.000008  0.000021 -0.000052  0.000122 -0.000275  0.000591 -0.001295  0.003662 -0.015777
                                 0.056919  0.484645 -0.219946 -0.474654  0.110999 -0.091075  0.353649 -0.423002  1.186541 -0.447660
                                 0.478693  0.000000  0.000000 -0.000000 -0.000000  0.000000  0.000000 -0.000000 -0.000000  0.000000
                                 0.000000 -0.000000 -0.000000  0.000000  0.000000 -0.000000 -0.000000  0.000000  0.000000  0.000000
                                 0.000000  0.000000  0.000000 -0.000000 -0.000000 -0.000000 -0.000000 -0.000000 -0.000000  0.000000
                                 0.000000

   3.2   0     0.0748   -3.2818 -0.000000  0.000000 -0.000000  0.000000 -0.000000  0.000000 -0.000000  0.000000 -0.000001  0.000004
                                -0.000011  0.000031 -0.000082  0.000204 -0.000486  0.001097 -0.002402  0.005106 -0.009712  0.010933
                                -0.041742 -1.234531  0.391203  1.050707 -0.347375  0.458168 -0.517085  2.010672 -1.418396  1.139800
                                -1.257004  0.000000  0.000000 -0.000000 -0.000000  0.000000  0.000000 -0.000000 -0.000000  0.000000
                                 0.000000 -0.000000 -0.000000  0.000000  0.000000 -0.000000 -0.000000  0.000000  0.000000  0.000000
                                 0.000000  0.000000  0.000000 -0.000000 -0.000000 -0.000000 -0.000000 -0.000000 -0.000000  0.000000
                                 0.000000

                                   1 2py     1 2py     1 2py     1 2py     1 2py     1 2py     1 2py     1 2py     1 2py     1 2py  
                                   1 2py     1 2py     1 2py     1 2py     1 2py     1 2py     1 2py     1 2py     1 2py     1 2py  
                                   1 2py     1 2py     1 2py     1 2py     1 2py     1 2py     1 2py     1 2py     1 2py     1 2py  
                                   1 2py     1 4f1-    1 4f3-    1 4f1-    1 4f3-    1 4f1-    1 4f3-    1 4f1-    1 4f3-    1 4f1- 
                                   1 4f3-    1 4f1-    1 4f3-    1 4f1-    1 4f3-    1 4f1-    1 4f3-    1 4f1-    1 4f3-    1 4f1- 
                                   1 4f3-    1 4f1-    1 4f3-    1 4f1-    1 4f3-    1 4f1-    1 4f3-    1 4f1-    1 4f3-    1 4f1- 
                                   1 4f3- 

   1.3   2    -2.7267  -17.5323  0.000000 -0.000000  0.000000 -0.000000  0.000000 -0.000000  0.000000 -0.000000  0.000001 -0.000003
                                 0.000010 -0.000029  0.000078 -0.000193  0.000473 -0.001062  0.002401 -0.004634 -0.001785  0.099049
                                -0.328689 -0.163698  0.525541  0.528927  0.173510  0.016512  0.000493  0.000138 -0.000031  0.134909
                                -0.032309  0.000000  0.000000 -0.000000 -0.000000  0.000000  0.000000 -0.000000 -0.000000  0.000000
                                 0.000000 -0.000000 -0.000000  0.000000  0.000000 -0.000000  0.000000  0.000000 -0.000000  0.000000
                                -0.000000  0.000000 -0.000000 -0.000000  0.000000 -0.000000  0.000000 -0.000000  0.000000  0.000000
                                -0.000000

   2.3   0     0.0236   -2.4268  0.000000 -0.000000  0.000000 -0.000000  0.000000 -0.000000  0.000000 -0.000000  0.000000 -0.000001
                                 0.000003 -0.000008  0.000021 -0.000052  0.000122 -0.000275  0.000591 -0.001295  0.003662 -0.015778
                                 0.056919  0.484647 -0.219947 -0.474656  0.110999 -0.091076  0.353650 -0.423005  1.186543 -0.447662
                                 0.478695  0.000000  0.000000  0.000000 -0.000000 -0.000000  0.000000  0.000000 -0.000000 -0.000000
                                 0.000000  0.000000 -0.000000 -0.000000  0.000000  0.000000 -0.000000  0.000000  0.000000  0.000000
                                 0.000000  0.000000  0.000000 -0.000000 -0.000000 -0.000000 -0.000000 -0.000000 -0.000000  0.000000
                                 0.000000

   3.3   0     0.0748   -3.2818 -0.000000  0.000000 -0.000000  0.000000 -0.000000  0.000000 -0.000000  0.000000 -0.000001  0.000004
                                -0.000011  0.000031 -0.000082  0.000204 -0.000486  0.001097 -0.002402  0.005106 -0.009712  0.010933
                                -0.041742 -1.234530  0.391202  1.050707 -0.347374  0.458167 -0.517085  2.010672 -1.418395  1.139800
                                -1.257004  0.000000  0.000000 -0.000000 -0.000000 -0.000000  0.000000  0.000000 -0.000000 -0.000000
                                 0.000000  0.000000 -0.000000 -0.000000  0.000000  0.000000 -0.000000 -0.000000  0.000000  0.000000
                                 0.000000 -0.000000  0.000000  0.000000 -0.000000 -0.000000 -0.000000 -0.000000 -0.000000  0.000000
                                 0.000000

                                   1 3d2-    1 3d2-    1 3d2-    1 3d2-    1 3d2-    1 3d2-    1 3d2-    1 3d2-    1 3d2-    1 3d2- 
                                   1 3d2-    1 3d2-    1 3d2-    1 3d2-    1 3d2-    1 3d2-    1 3d2-    1 3d2-    1 3d2-    1 3d2- 
                                   1 3d2-    1 5g2-    1 5g4-    1 5g2-    1 5g4-    1 5g2-    1 5g4- 

   1.4   2    -0.4538  -11.3445 -0.000000  0.000000 -0.000000  0.000001 -0.000002  0.000009 -0.000023  0.000074 -0.000146  0.000511
                                -0.001654  0.012592 -0.044493  0.010740  0.223937  0.375861  0.352231  0.206778  0.058738 -0.034421
                                 0.014865 -0.000000 -0.000000 -0.000000  0.000000  0.000000  0.000000

   2.4   0     0.2723   -3.7407  0.000000 -0.000001  0.000004 -0.000017  0.000065 -0.000219  0.000637 -0.001644  0.003847 -0.008651
                                 0.019946 -0.055734  0.268380  0.661848 -0.793392 -1.682591  0.548369 -0.853535  1.410921 -0.652240
                                 1.763786  0.000000  0.000000 -0.000000 -0.000000  0.000000  0.000000

   3.4   0     0.9243   -4.5390 -0.000000  0.000002 -0.000011  0.000049 -0.000191  0.000638 -0.001859  0.004776 -0.011222  0.025013
                                -0.057128  0.149075 -0.741718 -2.017251  2.116358  4.791712 -2.409823  2.748129 -1.133382  2.008253
                                -5.542104  0.000000  0.000000 -0.000000 -0.000000  0.000000  0.000000

                                   1 2pz     1 2pz     1 2pz     1 2pz     1 2pz     1 2pz     1 2pz     1 2pz     1 2pz     1 2pz  
                                   1 2pz     1 2pz     1 2pz     1 2pz     1 2pz     1 2pz     1 2pz     1 2pz     1 2pz     1 2pz  
                                   1 2pz     1 2pz     1 2pz     1 2pz     1 2pz     1 2pz     1 2pz     1 2pz     1 2pz     1 2pz  
                                   1 2pz     1 4f0     1 4f2+    1 4f0     1 4f2+    1 4f0     1 4f2+    1 4f0     1 4f2+    1 4f0  
                                   1 4f2+    1 4f0     1 4f2+    1 4f0     1 4f2+    1 4f0     1 4f2+    1 4f0     1 4f2+    1 4f0  
                                   1 4f2+    1 4f0     1 4f2+    1 4f0     1 4f2+    1 4f0     1 4f2+    1 4f0     1 4f2+    1 4f0  
                                   1 4f2+ 

   1.5   2    -2.7267  -17.5323  0.000000 -0.000000  0.000000 -0.000000  0.000000 -0.000000  0.000000 -0.000000  0.000001 -0.000003
                                 0.000010 -0.000029  0.000078 -0.000193  0.000473 -0.001062  0.002401 -0.004634 -0.001785  0.099049
                                -0.328689 -0.163699  0.525541  0.528928  0.173510  0.016512  0.000493  0.000138 -0.000031  0.134910
                                -0.032309  0.000000 -0.000000 -0.000000  0.000000  0.000000 -0.000000 -0.000000  0.000000  0.000000
                                -0.000000 -0.000000  0.000000  0.000000 -0.000000 -0.000000  0.000000  0.000000 -0.000000  0.000000
                                -0.000000 -0.000000  0.000000 -0.000000  0.000000  0.000000  0.000000  0.000000 -0.000000 -0.000000
                                 0.000000

   2.5   0     0.0236   -2.4268  0.000000 -0.000000  0.000000 -0.000000  0.000000 -0.000000  0.000000 -0.000000  0.000000 -0.000001
                                 0.000003 -0.000008  0.000021 -0.000052  0.000122 -0.000275  0.000591 -0.001295  0.003662 -0.015777
                                 0.056919  0.484644 -0.219946 -0.474653  0.110998 -0.091075  0.353648 -0.423001  1.186541 -0.447659
                                 0.478692  0.000000  0.000000 -0.000000 -0.000000  0.000000  0.000000 -0.000000 -0.000000  0.000000
                                 0.000000 -0.000000 -0.000000  0.000000  0.000000 -0.000000 -0.000000  0.000000  0.000000  0.000000
                                 0.000000  0.000000  0.000000 -0.000000 -0.000000 -0.000000 -0.000000 -0.000000 -0.000000  0.000000
                                 0.000000

   3.5   0     0.0748   -3.2818 -0.000000  0.000000 -0.000000  0.000000 -0.000000  0.000000 -0.000000  0.000000 -0.000001  0.000004
                                -0.000011  0.000031 -0.000082  0.000204 -0.000486  0.001097 -0.002402  0.005106 -0.009712  0.010933
                                -0.041742 -1.234532  0.391203  1.050709 -0.347375  0.458168 -0.517086  2.010673 -1.418397  1.139801
                                -1.257006  0.000000  0.000000 -0.000000 -0.000000  0.000000  0.000000 -0.000000 -0.000000  0.000000
                                 0.000000 -0.000000 -0.000000  0.000000  0.000000 -0.000000 -0.000000  0.000000  0.000000  0.000000
                                 0.000000  0.000000  0.000000 -0.000000 -0.000000 -0.000000 -0.000000 -0.000000 -0.000000  0.000000
                                 0.000000

                                   1 3d1+    1 3d1+    1 3d1+    1 3d1+    1 3d1+    1 3d1+    1 3d1+    1 3d1+    1 3d1+    1 3d1+ 
                                   1 3d1+    1 3d1+    1 3d1+    1 3d1+    1 3d1+    1 3d1+    1 3d1+    1 3d1+    1 3d1+    1 3d1+ 
                                   1 3d1+    1 5g1+    1 5g3+    1 5g1+    1 5g3+    1 5g1+    1 5g3+ 

   1.6   2    -0.4538  -11.3445 -0.000000  0.000000 -0.000000  0.000001 -0.000002  0.000009 -0.000023  0.000074 -0.000146  0.000511
                                -0.001654  0.012592 -0.044493  0.010740  0.223937  0.375861  0.352231  0.206778  0.058738 -0.034421
                                 0.014865 -0.000000 -0.000000 -0.000000  0.000000  0.000000  0.000000

   2.6   0     0.2723   -3.7407  0.000000 -0.000001  0.000004 -0.000017  0.000065 -0.000219  0.000637 -0.001644  0.003847 -0.008651
                                 0.019946 -0.055734  0.268380  0.661848 -0.793392 -1.682591  0.548369 -0.853534  1.410921 -0.652240
                                 1.763786  0.000000  0.000000 -0.000000 -0.000000  0.000000  0.000000

   3.6   0     0.9243   -4.5390 -0.000000  0.000002 -0.000011  0.000049 -0.000191  0.000638 -0.001859  0.004776 -0.011222  0.025013
                                -0.057128  0.149075 -0.741718 -2.017251  2.116358  4.791712 -2.409823  2.748129 -1.133382  2.008252
                                -5.542104  0.000000  0.000000 -0.000000 -0.000000  0.000000  0.000000

                                   1 3d1-    1 3d1-    1 3d1-    1 3d1-    1 3d1-    1 3d1-    1 3d1-    1 3d1-    1 3d1-    1 3d1- 
                                   1 3d1-    1 3d1-    1 3d1-    1 3d1-    1 3d1-    1 3d1-    1 3d1-    1 3d1-    1 3d1-    1 3d1- 
                                   1 3d1-    1 5g1-    1 5g3-    1 5g1-    1 5g3-    1 5g1-    1 5g3- 

   1.7   2    -0.4538  -11.3445 -0.000000  0.000000 -0.000000  0.000001 -0.000002  0.000009 -0.000023  0.000074 -0.000146  0.000511
                                -0.001654  0.012592 -0.044493  0.010740  0.223937  0.375861  0.352231  0.206778  0.058738 -0.034421
                                 0.014865 -0.000000 -0.000000  0.000000  0.000000  0.000000  0.000000

   2.7   0     0.2723   -3.7407  0.000000 -0.000001  0.000004 -0.000017  0.000065 -0.000219  0.000637 -0.001644  0.003847 -0.008651
                                 0.019946 -0.055734  0.268380  0.661848 -0.793392 -1.682591  0.548369 -0.853534  1.410921 -0.652240
                                 1.763786  0.000000  0.000000 -0.000000 -0.000000  0.000000  0.000000

   3.7   0     0.9243   -4.5390 -0.000000  0.000002 -0.000011  0.000049 -0.000191  0.000638 -0.001859  0.004776 -0.011222  0.025013
                                -0.057128  0.149075 -0.741718 -2.017251  2.116358  4.791712 -2.409823  2.748129 -1.133382  2.008253
                                -5.542104  0.000000  0.000000 -0.000000 -0.000000  0.000000  0.000000

                                   1 4f2-    1 4f2-    1 4f2-    1 4f2-    1 4f2-    1 4f2-    1 4f2-    1 4f2-    1 4f2-    1 4f2- 
                                   1 4f2-    1 4f2-    1 4f2-    1 4f2-    1 4f2- 

   1.8   0     0.6541   -4.1444  0.000012 -0.000080  0.000364 -0.001278  0.003733 -0.009709  0.025268 -0.075088  0.462408  2.330994
                                 2.088583 -1.322363 -2.379241 -1.440983  1.317468

   2.8   0     1.5208   -4.9124 -0.000024  0.000164 -0.000746  0.002634 -0.007623  0.020198 -0.051164  0.156340 -0.976068 -5.027904
                                -4.688843  2.870319  5.408957  3.895515 -1.037114

 HOMO      4.1    -0.290301 =      -7.8995eV
 LUMO      2.5     0.023551 =       0.6408eV
 LUMO-HOMO         0.313851 =       8.5403eV


 **********************************************************************************************************************************
 DATASETS  * FILE   NREC   LENGTH (MB)   RECORD NAMES
              1      19       20.91       500      610      700      900      950      970     1000      129      960     1100   
                                          VAR    BASINP    GEOM    SYMINP    ZMAT    AOBASIS   BASIS     P2S    ABASIS      S 
                                         1400     1410     1420     1200     1210     1080     1600     1650     1700   
                                           T        V       ECP      H0       H01     AOSYM     SMH    MOLCAS    OPER   

              2       5        5.99       200      700     1000      520     4202   
                                        OPTIONS   GEOM     BASIS   MCVARS     RHF  

 PROGRAMS   *        TOTAL       RHF       INT
 CPU TIMES  *       192.08      1.51    190.24
 REAL TIME  *       200.31 SEC
 DISK USED  *         4.56 GB      
 SF USED    *         0.09 MB      
 GA USED    *         0.00 MB       (max)       0.00 MB       (current)
 **********************************************************************************************************************************


 PROGRAM * POP (Mulliken population analysis)

 
 Density matrix read from record         4202.2  Type=RHF/CHARGE (state 1.1)
 
 Population analysis by basis function type

 Unique atom        s        p        d        f        g    Total    Charge
   1  AU      3.00000  6.00000 10.00000  0.00000  0.00000 19.00000  - 0.00000


 **********************************************************************************************************************************
 DATASETS  * FILE   NREC   LENGTH (MB)   RECORD NAMES
              1      19       20.91       500      610      700      900      950      970     1000      129      960     1100   
                                          VAR    BASINP    GEOM    SYMINP    ZMAT    AOBASIS   BASIS     P2S    ABASIS      S 
                                         1400     1410     1420     1200     1210     1080     1600     1650     1700   
                                           T        V       ECP      H0       H01     AOSYM     SMH    MOLCAS    OPER   

              2       5        5.99       200      700     1000      520     4202   
                                        OPTIONS   GEOM     BASIS   MCVARS     RHF  

 PROGRAMS   *        TOTAL       POP       RHF       INT
 CPU TIMES  *       192.09      0.00      1.51    190.24
 REAL TIME  *       200.32 SEC
 DISK USED  *         4.56 GB      
 SF USED    *         0.09 MB      
 GA USED    *         0.00 MB       (max)       0.00 MB       (current)
 **********************************************************************************************************************************


 PROGRAM * MULTI (Direct Multiconfiguration SCF)       Authors: P.J. Knowles, H.-J. Werner (1984)     S.T. Elbert (1988)


 Number of closed-shell orbitals:   9 (   3   1   1   1   1   1   1   0 )
 Number of active  orbitals:        1 (   1   0   0   0   0   0   0   0 )
 Number of external orbitals:     355 (  82  60  60  26  60  26  26  15 )

 State symmetry 1

 Orbital occupancy restrictions for symmetry 1
  1      1       2                               

 Number of electrons:     1    Spin symmetry=Doublet   Space symmetry=1
 Number of states:        1
 Number of CSFs:          1
 
 Maximum number of shells:             1
 Maximum number of spin couplings:     1

 Storage for configuration lists       2, coupling coefficients      1, address lists      7

 Molecular orbitals read from record     4202.2  Type=RHF/CANONICAL (state 1.1)
 *** IN SYMMETRY 1 ORBITAL  2 SYMMETRY CONTAMINATION OF 0.469D+00 HAS BEEN REMOVED
 *** IN SYMMETRY 1 ORBITAL  3 SYMMETRY CONTAMINATION OF 0.469D+00 HAS BEEN REMOVED

 EXTRA SYMMETRY OF MOS IN SYMMETRY 1:   1 3 2 1 1 1 3 2 1 2   3 4 5 6 2 3 1 3 2 4   5 6 1 3 2 5 4 6 1 3   2 1 3 2 3 2 1 2 3 1
                                        3 2 1 3 2 1 1 2 3 1   2 3 1 3 2 1 3 2 1 3   2 1 2 3 1 3 2 1 1 3   2 1 2 3 1 1 1 1 1 1
                                        1 1 1 1 1 1
 EXTRA SYMMETRY OF MOS IN SYMMETRY 2:   1 1 1 1 2 3 1 2 3 1   2 3 1 2 3 1 2 3 2 3   1 3 2 1 3 2 1 3 2 1   3 2 1 3 2 1 1 3 2 1
                                        3 2 1 1 3 2 1 3 2 1   1 1 1 1 1 1 1 1 1 1   1
 EXTRA SYMMETRY OF MOS IN SYMMETRY 3:   1 1 1 1 2 3 1 3 2 1   2 3 1 3 2 1 3 2 3 2   1 3 2 1 2 3 1 3 2 1   2 3 1 2 3 1 1 3 2 1
                                        2 3 1 1 2 3 1 3 2 1   1 1 1 1 1 1 1 1 1 1   1
 EXTRA SYMMETRY OF MOS IN SYMMETRY 4:   1 1 1 2 3 1 1 3 2 1   3 2 1 1 1 1 1 1 1 1   1 1 1 1 1 1 1
 EXTRA SYMMETRY OF MOS IN SYMMETRY 5:   1 1 1 1 3 2 1 2 3 1   2 3 1 2 3 1 2 3 2 3   1 3 2 1 3 2 1 3 2 1   2 3 1 3 2 1 1 3 2 1
                                        3 2 1 1 3 2 1 2 3 1   1 1 1 1 1 1 1 1 1 1   1
 EXTRA SYMMETRY OF MOS IN SYMMETRY 6:   1 1 1 2 3 1 1 2 3 1   3 2 1 1 1 1 1 1 1 1   1 1 1 1 1 1 1
 EXTRA SYMMETRY OF MOS IN SYMMETRY 7:   1 1 1 2 3 1 1 3 2 1   2 3 1 1 1 1 1 1 1 1   1 1 1 1 1 1 1

 Wavefunction dump at record             5202.2

 Convergence thresholds  0.10E-01 (gradient)  0.10E-05 (energy)  0.10E-02 (step length)

 Number of orbital rotations:      589   (     3 Core/Active    504 Core/Virtual   0 Active/Active     82 Active/Virtual)
 Total number of variables:        590


 ITER. MIC  NCI  NEG     ENERGY(VAR)     ENERGY(PROJ)   ENERGY CHANGE     GRAD(0)  GRAD(ORB)   GRAD(CI)     STEP       TIME

   1   23    4    0    -134.78917565    -134.78917565   -0.00000000    0.00004426 0.00000000 0.00000000  0.92D-05      0.66

 ** WVFN ****  CONVERGENCE REACHED, FINAL GRADIENT:  0.67D-10


 First order charge density matrix for state 1.1 saved on record  5202.2 (density set 1)

 Results for state 1.1
 =====================

 !MCSCF STATE 1.1 Energy             -134.789175654475
 Nuclear energy                         0.00000000
 Kinetic energy                        46.07432056
 One electron energy                 -239.01385863
 Two electron energy                  104.22468297
 Virial ratio                           3.92547289

 !MCSCF STATE 1.1 Dipole moment         0.00000000     0.00000000     0.00000000
 Dipole moment /Debye                   0.00000000     0.00000000     0.00000000


 NATURAL ORBITALS
 ================

   Orb     Occ        Energy       Coefficients

                                   1 1s      1 1s      1 1s      1 1s      1 1s      1 1s      1 1s      1 1s      1 1s      1 1s   
                                   1 1s      1 1s      1 1s      1 1s      1 1s      1 1s      1 1s      1 1s      1 1s      1 1s   
                                   1 1s      1 1s      1 1s      1 1s      1 1s      1 1s      1 1s      1 1s      1 1s      1 1s   
                                   1 1s      1 1s      1 1s      1 1s      1 1s      1 3d0     1 3d2+    1 3d0     1 3d2+    1 3d0  
                                   1 3d2+    1 3d0     1 3d2+    1 3d0     1 3d2+    1 3d0     1 3d2+    1 3d0     1 3d2+    1 3d0  
                                   1 3d2+    1 3d0     1 3d2+    1 3d0     1 3d2+    1 3d0     1 3d2+    1 3d0     1 3d2+    1 3d0  
                                   1 3d2+    1 3d0     1 3d2+    1 3d0     1 3d2+    1 3d0     1 3d2+    1 3d0     1 3d2+    1 3d0  
                                   1 3d2+    1 3d0     1 3d2+    1 3d0     1 3d2+    1 3d0     1 3d2+    1 5g0     1 5g4+    1 5g2+ 
                                   1 5g0     1 5g4+    1 5g2+    1 5g0     1 5g4+    1 5g2+ 

   1.1  2.00000    -4.688313    -0.000000  0.000000 -0.000000  0.000000 -0.000000  0.000000 -0.000000  0.000000 -0.000000  0.000000
                                -0.000001  0.000002 -0.000006  0.000016 -0.000041  0.000107 -0.000265  0.000669 -0.001623  0.003925
                                -0.009180  0.020866 -0.039427 -0.006909  0.435620 -1.157691 -0.617653  1.154329  0.600543  0.030217
                                -0.005134  0.002008 -0.000434  0.574141 -0.200302  0.000000  0.000000  0.000000  0.000000  0.000000
                                 0.000000  0.000000  0.000000  0.000000  0.000000  0.000000  0.000000  0.000000  0.000000  0.000000
                                 0.000000  0.000000  0.000000  0.000000  0.000000  0.000000  0.000000  0.000000  0.000000  0.000000
                                 0.000000  0.000000  0.000000  0.000000  0.000000  0.000000  0.000000  0.000000  0.000000  0.000000
                                 0.000000  0.000000  0.000000  0.000000  0.000000  0.000000  0.000000  0.000000  0.000000  0.000000
                                 0.000000  0.000000  0.000000  0.000000  0.000000  0.000000

   2.1  2.00000    -0.453757     0.000000  0.000000  0.000000  0.000000  0.000000  0.000000  0.000000  0.000000  0.000000  0.000000
                                 0.000000  0.000000  0.000000  0.000000  0.000000  0.000000  0.000000  0.000000  0.000000  0.000000
                                 0.000000  0.000000  0.000000  0.000000  0.000000  0.000000  0.000000  0.000000  0.000000  0.000000
                                 0.000000  0.000000  0.000000  0.000000  0.000000 -0.000000  0.000000  0.000000  0.000000 -0.000000
                                 0.000000  0.000001  0.000000 -0.000002  0.000000  0.000009  0.000000 -0.000023  0.000000  0.000074
                                 0.000000 -0.000146  0.000000  0.000511  0.000000 -0.001654  0.000000  0.012592  0.000000 -0.044493
                                 0.000000  0.010739  0.000000  0.223937  0.000000  0.375862  0.000000  0.352230  0.000000  0.206778
                                 0.000000  0.058737  0.000000 -0.034421  0.000000  0.014864  0.000000  0.000000  0.000000  0.000000
                                 0.000000  0.000000  0.000000  0.000000  0.000000  0.000000

   3.1  2.00000    -0.453757     0.000000  0.000000  0.000000  0.000000  0.000000  0.000000  0.000000  0.000000  0.000000  0.000000
                                 0.000000  0.000000  0.000000  0.000000  0.000000  0.000000  0.000000  0.000000  0.000000  0.000000
                                 0.000000  0.000000  0.000000  0.000000  0.000000  0.000000  0.000000  0.000000  0.000000  0.000000
                                 0.000000  0.000000  0.000000  0.000000  0.000000  0.000000 -0.000000  0.000000  0.000000  0.000000
                                -0.000000  0.000000  0.000001  0.000000 -0.000002  0.000000  0.000009  0.000000 -0.000023  0.000000
                                 0.000074  0.000000 -0.000146  0.000000  0.000511  0.000000 -0.001654  0.000000  0.012592  0.000000
                                -0.044493  0.000000  0.010739  0.000000  0.223937  0.000000  0.375862  0.000000  0.352230  0.000000
                                 0.206778  0.000000  0.058737  0.000000 -0.034421  0.000000  0.014864  0.000000  0.000000  0.000000
                                 0.000000  0.000000  0.000000  0.000000  0.000000  0.000000

   4.1  1.00000    -0.142791     0.000000 -0.000000  0.000000 -0.000000  0.000000 -0.000000  0.000000 -0.000000  0.000000 -0.000000
                                 0.000000 -0.000001  0.000002 -0.000005  0.000013 -0.000035  0.000086 -0.000218  0.000529 -0.001284
                                 0.003021 -0.006951  0.013596 -0.000443 -0.141294  0.409749  0.234065 -0.524990 -0.379231  0.192830
                                 0.637223  0.366569  0.010648 -0.221451  0.110142  0.000000  0.000000  0.000000  0.000000  0.000000
                                 0.000000  0.000000  0.000000  0.000000  0.000000  0.000000  0.000000  0.000000  0.000000  0.000000
                                 0.000000  0.000000  0.000000  0.000000  0.000000  0.000000  0.000000  0.000000  0.000000  0.000000
                                 0.000000  0.000000  0.000000  0.000000  0.000000  0.000000  0.000000  0.000000  0.000000  0.000000
                                 0.000000  0.000000  0.000000  0.000000  0.000000  0.000000  0.000000  0.000000  0.000000  0.000000
                                 0.000000  0.000000  0.000000  0.000000  0.000000  0.000000

                                   1 2px     1 2px     1 2px     1 2px     1 2px     1 2px     1 2px     1 2px     1 2px     1 2px  
                                   1 2px     1 2px     1 2px     1 2px     1 2px     1 2px     1 2px     1 2px     1 2px     1 2px  
                                   1 2px     1 2px     1 2px     1 2px     1 2px     1 2px     1 2px     1 2px     1 2px     1 2px  
                                   1 2px     1 4f1+    1 4f3+    1 4f1+    1 4f3+    1 4f1+    1 4f3+    1 4f1+    1 4f3+    1 4f1+ 
                                   1 4f3+    1 4f1+    1 4f3+    1 4f1+    1 4f3+    1 4f1+    1 4f3+    1 4f1+    1 4f3+    1 4f1+ 
                                   1 4f3+    1 4f1+    1 4f3+    1 4f1+    1 4f3+    1 4f1+    1 4f3+    1 4f1+    1 4f3+    1 4f1+ 
                                   1 4f3+ 

   1.2  2.00000    -2.726667     0.000000 -0.000000  0.000000 -0.000000  0.000000 -0.000000  0.000000 -0.000000  0.000001 -0.000003
                                 0.000010 -0.000029  0.000078 -0.000193  0.000473 -0.001062  0.002401 -0.004634 -0.001785  0.099049
                                -0.328689 -0.163698  0.525541  0.528927  0.173510  0.016512  0.000493  0.000138 -0.000031  0.134909
                                -0.032309  0.000000  0.000000  0.000000  0.000000  0.000000  0.000000  0.000000  0.000000  0.000000
                                 0.000000  0.000000  0.000000  0.000000  0.000000  0.000000  0.000000  0.000000  0.000000  0.000000
                                 0.000000  0.000000  0.000000  0.000000  0.000000  0.000000  0.000000  0.000000  0.000000  0.000000
                                 0.000000

                                   1 2py     1 2py     1 2py     1 2py     1 2py     1 2py     1 2py     1 2py     1 2py     1 2py  
                                   1 2py     1 2py     1 2py     1 2py     1 2py     1 2py     1 2py     1 2py     1 2py     1 2py  
                                   1 2py     1 2py     1 2py     1 2py     1 2py     1 2py     1 2py     1 2py     1 2py     1 2py  
                                   1 2py     1 4f1-    1 4f3-    1 4f1-    1 4f3-    1 4f1-    1 4f3-    1 4f1-    1 4f3-    1 4f1- 
                                   1 4f3-    1 4f1-    1 4f3-    1 4f1-    1 4f3-    1 4f1-    1 4f3-    1 4f1-    1 4f3-    1 4f1- 
                                   1 4f3-    1 4f1-    1 4f3-    1 4f1-    1 4f3-    1 4f1-    1 4f3-    1 4f1-    1 4f3-    1 4f1- 
                                   1 4f3- 

   1.3  2.00000    -2.726667     0.000000 -0.000000  0.000000 -0.000000  0.000000 -0.000000  0.000000 -0.000000  0.000001 -0.000003
                                 0.000010 -0.000029  0.000078 -0.000193  0.000473 -0.001062  0.002401 -0.004634 -0.001785  0.099049
                                -0.328689 -0.163698  0.525541  0.528927  0.173510  0.016512  0.000493  0.000138 -0.000031  0.134909
                                -0.032309  0.000000  0.000000  0.000000  0.000000  0.000000  0.000000  0.000000  0.000000  0.000000
                                 0.000000  0.000000  0.000000  0.000000  0.000000  0.000000  0.000000  0.000000  0.000000  0.000000
                                 0.000000  0.000000  0.000000  0.000000  0.000000  0.000000  0.000000  0.000000  0.000000  0.000000
                                 0.000000

                                   1 3d2-    1 3d2-    1 3d2-    1 3d2-    1 3d2-    1 3d2-    1 3d2-    1 3d2-    1 3d2-    1 3d2- 
                                   1 3d2-    1 3d2-    1 3d2-    1 3d2-    1 3d2-    1 3d2-    1 3d2-    1 3d2-    1 3d2-    1 3d2- 
                                   1 3d2-    1 5g2-    1 5g4-    1 5g2-    1 5g4-    1 5g2-    1 5g4- 

   1.4  2.00000    -0.453757    -0.000000  0.000000 -0.000000  0.000001 -0.000002  0.000009 -0.000023  0.000074 -0.000146  0.000511
                                -0.001654  0.012592 -0.044493  0.010739  0.223937  0.375862  0.352230  0.206778  0.058737 -0.034421
                                 0.014864  0.000000  0.000000  0.000000  0.000000  0.000000  0.000000

                                   1 2pz     1 2pz     1 2pz     1 2pz     1 2pz     1 2pz     1 2pz     1 2pz     1 2pz     1 2pz  
                                   1 2pz     1 2pz     1 2pz     1 2pz     1 2pz     1 2pz     1 2pz     1 2pz     1 2pz     1 2pz  
                                   1 2pz     1 2pz     1 2pz     1 2pz     1 2pz     1 2pz     1 2pz     1 2pz     1 2pz     1 2pz  
                                   1 2pz     1 4f0     1 4f2+    1 4f0     1 4f2+    1 4f0     1 4f2+    1 4f0     1 4f2+    1 4f0  
                                   1 4f2+    1 4f0     1 4f2+    1 4f0     1 4f2+    1 4f0     1 4f2+    1 4f0     1 4f2+    1 4f0  
                                   1 4f2+    1 4f0     1 4f2+    1 4f0     1 4f2+    1 4f0     1 4f2+    1 4f0     1 4f2+    1 4f0  
                                   1 4f2+ 

   1.5  2.00000    -2.726667     0.000000 -0.000000  0.000000 -0.000000  0.000000 -0.000000  0.000000 -0.000000  0.000001 -0.000003
                                 0.000010 -0.000029  0.000078 -0.000193  0.000473 -0.001062  0.002401 -0.004634 -0.001785  0.099049
                                -0.328689 -0.163698  0.525541  0.528927  0.173510  0.016512  0.000493  0.000138 -0.000031  0.134909
                                -0.032309  0.000000  0.000000  0.000000  0.000000  0.000000  0.000000  0.000000  0.000000  0.000000
                                 0.000000  0.000000  0.000000  0.000000  0.000000  0.000000  0.000000  0.000000  0.000000  0.000000
                                 0.000000  0.000000  0.000000  0.000000  0.000000  0.000000  0.000000  0.000000  0.000000  0.000000
                                 0.000000

                                   1 3d1+    1 3d1+    1 3d1+    1 3d1+    1 3d1+    1 3d1+    1 3d1+    1 3d1+    1 3d1+    1 3d1+ 
                                   1 3d1+    1 3d1+    1 3d1+    1 3d1+    1 3d1+    1 3d1+    1 3d1+    1 3d1+    1 3d1+    1 3d1+ 
                                   1 3d1+    1 5g1+    1 5g3+    1 5g1+    1 5g3+    1 5g1+    1 5g3+ 

   1.6  2.00000    -0.453757    -0.000000  0.000000 -0.000000  0.000001 -0.000002  0.000009 -0.000023  0.000074 -0.000146  0.000511
                                -0.001654  0.012592 -0.044493  0.010739  0.223937  0.375862  0.352230  0.206778  0.058737 -0.034421
                                 0.014864  0.000000  0.000000  0.000000  0.000000  0.000000  0.000000

                                   1 3d1-    1 3d1-    1 3d1-    1 3d1-    1 3d1-    1 3d1-    1 3d1-    1 3d1-    1 3d1-    1 3d1- 
                                   1 3d1-    1 3d1-    1 3d1-    1 3d1-    1 3d1-    1 3d1-    1 3d1-    1 3d1-    1 3d1-    1 3d1- 
                                   1 3d1-    1 5g1-    1 5g3-    1 5g1-    1 5g3-    1 5g1-    1 5g3- 

   1.7  2.00000    -0.453757    -0.000000  0.000000 -0.000000  0.000001 -0.000002  0.000009 -0.000023  0.000074 -0.000146  0.000511
                                -0.001654  0.012592 -0.044493  0.010739  0.223937  0.375862  0.352230  0.206778  0.058737 -0.034421
                                 0.014864  0.000000  0.000000  0.000000  0.000000  0.000000  0.000000
 

 EXTRA SYMMETRY OF MOS IN SYMMETRY 1:   1 2 3 1 1 1 3 2 1 3   2 4 5 6 2 3 1 2 3 6   4 5 1 2 3 4 6 5 1 2   3 1 3 2 3 2 1 3 2 1
                                        3 2 1 3 2 1 1 3 2 1   2 3 1 3 2 1 3 2 1 2   3 1 3 2 1 2 3 1 1 3   2 1 2 3 1 1 1 1 1 1
                                        1 1 1 1 1 1
 EXTRA SYMMETRY OF MOS IN SYMMETRY 2:   1 1 1 1 3 2 1 2 3 1   2 3 1 3 2 1 3 2 3 2   1 3 2 1 2 3 1 2 3 1   3 2 1 3 2 1 1 3 2 1
                                        3 2 1 1 3 2 1 3 2 1   1 1 1 1 1 1 1 1 1 1   1
 EXTRA SYMMETRY OF MOS IN SYMMETRY 3:   1 1 1 1 2 3 1 2 3 1   2 3 1 3 2 1 3 2 3 2   1 2 3 1 3 2 1 2 3 1   2 3 1 2 3 1 1 2 3 1
                                        3 2 1 1 3 2 1 3 2 1   1 1 1 1 1 1 1 1 1 1   1
 EXTRA SYMMETRY OF MOS IN SYMMETRY 4:   1 1 1 2 3 1 1 2 3 1   3 2 1 1 1 1 1 1 1 1   1 1 1 1 1 1 1
 EXTRA SYMMETRY OF MOS IN SYMMETRY 5:   1 1 1 1 2 3 1 3 2 1   2 3 1 2 3 1 2 3 2 3   1 2 3 1 2 3 1 2 3 1   2 3 1 2 3 1 1 2 3 1
                                        2 3 1 1 3 2 1 3 2 1   1 1 1 1 1 1 1 1 1 1   1
 EXTRA SYMMETRY OF MOS IN SYMMETRY 6:   1 1 1 2 3 1 1 3 2 1   2 3 1 1 1 1 1 1 1 1   1 1 1 1 1 1 1

 Natural orbital dump at molpro section  5202.2    (Orbital set 2)


 CI vector
 =========

 /             1.0000000


 **********************************************************************************************************************************
 DATASETS  * FILE   NREC   LENGTH (MB)   RECORD NAMES
              1      20       32.94       500      610      700      900      950      970     1000      129      960     1100   
                                          VAR    BASINP    GEOM    SYMINP    ZMAT    AOBASIS   BASIS     P2S    ABASIS      S 
                                         1400     1410     1420     1200     1210     1080     1600     1650     1700     1380   
                                           T        V       ECP      H0       H01     AOSYM     SMH    MOLCAS    OPER     JKOP   

              2       6        9.24       200      700     1000      520     4202     5202   
                                        OPTIONS   GEOM     BASIS   MCVARS     RHF     MCSCF   

 PROGRAMS   *        TOTAL     MULTI       POP       RHF       INT
 CPU TIMES  *       193.33      1.24      0.00      1.51    190.24
 REAL TIME  *       204.43 SEC
 DISK USED  *         4.56 GB      
 SF USED    *        51.48 MB      
 GA USED    *         0.00 MB       (max)       0.00 MB       (current)
 **********************************************************************************************************************************


 PROGRAM * RHF-SCF (OPEN SHELL)       Authors: W. Meyer, H.-J. Werner


 NUMBER OF ELECTRONS:      10+    9-    SPACE SYMMETRY=1    SPIN SYMMETRY: Doublet 
 CONVERGENCE THRESHOLDS:    1.00E-05 (Density)    1.00E-07 (Energy)
 MAX. NUMBER OF ITERATIONS:        0
 INTERPOLATION TYPE:            DIIS
 INTERPOLATION STEPS:              2 (START)      1 (STEP)
 LEVEL SHIFTS:                 -0.60 (CLOSED) -0.30 (OPEN) 


 Singly occupied orbitals:      4.1
 Molecular orbitals read from record     5202.2  Type=MCSCF/NATURAL (state 1.1)

 Molecular orbital dump at record        2103.2

 ITERATION    DDIFF          GRAD             ENERGY        2-EL.EN.            DIPOLE MOMENTS         DIIS   ORB.
    1      0.000D+00      0.000D+00      -134.78917565    208.449366    0.00000    0.00000    0.00000    0    start

 Final alpha occupancy:   4   1   1   1   1   1   1   0
 Final beta  occupancy:   3   1   1   1   1   1   1   0

 !RHF STATE 1.1 Energy               -134.789175654475
 Nuclear energy                         0.00000000
 One-electron energy                 -239.01385863
 Two-electron energy                  104.22468297
 Virial quotient                       -2.92547289
 !RHF STATE 1.1 Dipole moment           0.00000000     0.00000000     0.00000000
 Dipole moment /Debye                   0.00000000     0.00000000     0.00000000

 Orbital energies:

         1.1          2.1          3.1          4.1          5.1          6.1
     -4.688313    -0.453757    -0.453757    -0.142791     0.041454     0.226986

         1.2          2.2          3.2
     -2.726667     0.026851     0.086700

         1.3          2.3          3.3
     -2.726667     0.026851     0.086700

         1.4          2.4          3.4
     -0.453757     0.277229     0.931891

         1.5          2.5          3.5
     -2.726667     0.026851     0.086700

         1.6          2.6          3.6
     -0.453757     0.277229     0.931891

         1.7          2.7          3.7
     -0.453757     0.277229     0.931891

         1.8          2.8
      0.661389     1.526566

 HOMO      4.1    -0.142791 =      -3.8855eV
 LUMO      2.3     0.026851 =       0.7307eV
 LUMO-HOMO         0.169642 =       4.6162eV


 **********************************************************************************************************************************
 DATASETS  * FILE   NREC   LENGTH (MB)   RECORD NAMES
              1      20       32.94       500      610      700      900      950      970     1000      129      960     1100   
                                          VAR    BASINP    GEOM    SYMINP    ZMAT    AOBASIS   BASIS     P2S    ABASIS      S 
                                         1400     1410     1420     1200     1210     1080     1600     1650     1700     1380   
                                           T        V       ECP      H0       H01     AOSYM     SMH    MOLCAS    OPER     JKOP   

              2       7       12.43       200      700     1000      520     4202     5202     2103   
                                        OPTIONS   GEOM     BASIS   MCVARS     RHF     MCSCF     RHF  

 PROGRAMS   *        TOTAL       RHF     MULTI       POP       RHF       INT
 CPU TIMES  *       193.74      0.40      1.24      0.00      1.51    190.24
 REAL TIME  *       204.93 SEC
 DISK USED  *         4.56 GB      
 SF USED    *        51.48 MB      
 GA USED    *         0.00 MB       (max)       0.00 MB       (current)
 **********************************************************************************************************************************
 SETTING SCF(1)         =      -134.78917565  AU                              
 SETTING _CC_NORM_MAX   =         2.00000000                                  


 PROGRAM * CCSD (Restricted open-shell coupled cluster)     Authors: C. Hampel, H.-J. Werner, 1991, M. Deegan, P.J. Knowles, 1992


 Convergence thresholds:  THRVAR = 1.00D-08  THRDEN = 1.00D-06

 CCSD(T)     terms to be evaluated (factor= 1.000)


 Number of closed-shell orbitals:   9 (   3   1   1   1   1   1   1   0 )
 Number of active  orbitals:        1 (   1   0   0   0   0   0   0   0 )
 Number of external orbitals:     355 (  82  60  60  26  60  26  26  15 )

 Memory could be reduced to 104.31 Mwords without degradation in triples

 Number of N-1 electron functions:              19
 Number of N-2 electron functions:             171
 Number of singly external CSFs:              1097
 Number of doubly external CSFs:           2120319
 Total number of CSFs:                     2121416

 Molecular orbitals read from record     2103.2  Type=RHF/CANONICAL (state 1.1)

 Integral transformation finished. Total CPU:   2.59 sec, npass=  1  Memory used:  18.50 MW

 Starting RMP2 calculation

 Wavefunction is spin-projected

 ITER.      SQ.NORM     CORR.ENERGY   TOTAL ENERGY   ENERGY CHANGE        DEN1      VAR(S)    VAR(P)  DIIS     TIME
   1      1.14014347    -0.73080621  -135.51998187    -0.73080621    -0.00139929  0.32D-05  0.53D-03  1  1     4.27
   2      1.14138084    -0.73228595  -135.52146160    -0.00147973    -0.00000325  0.23D-07  0.20D-05  2  2     6.13
   3      1.14144347    -0.73232519  -135.52150084    -0.00003924    -0.00000001  0.81D-10  0.63D-08  3  3     8.19
   4      1.14144497    -0.73232552  -135.52150118    -0.00000034    -0.00000000  0.16D-12  0.23D-10  4  4     9.87

 Norm of t1 vector:      0.01619601      S-energy:    -0.00044489      T1 diagnostic:  0.00001120
 Norm of t2 vector:      0.37574281      P-energy:    -0.73188063
                                         Alpha-Beta:  -0.50264385
                                         Alpha-Alpha: -0.12605987
                                         Beta-Beta:   -0.10317691

 Spin contamination <S**2-Sz**2-Sz>     0.00000000
  Reference energy                   -134.789175654475
  RHF-RMP2 correlation energy          -0.732325524214
 !RHF-RMP2 energy                    -135.521501178689
 (NB above energy spin projected)

 Starting RCCSD calculation

 ITER.      SQ.NORM     CORR.ENERGY   TOTAL ENERGY   ENERGY CHANGE        DEN1      VAR(S)    VAR(P)  DIIS     TIME
   1      1.11571009    -0.67683378  -135.46600943    -0.67683378    -0.01424016  0.24D-02  0.23D-02  1  1    13.57
   2      1.12427440    -0.68953461  -135.47871027    -0.01270083    -0.00078528  0.24D-03  0.22D-03  2  2    16.61
   3      1.12726097    -0.69044334  -135.47961899    -0.00090872    -0.00009965  0.89D-04  0.12D-04  3  3    19.94
   4      1.12899059    -0.69098293  -135.48015858    -0.00053959    -0.00001224  0.11D-04  0.18D-05  4  4    22.84
   5      1.12967273    -0.69113587  -135.48031152    -0.00015294    -0.00000092  0.83D-06  0.15D-06  5  5    26.22
   6      1.12982426    -0.69115316  -135.48032881    -0.00001729    -0.00000004  0.34D-07  0.79D-08  6  6    29.41
   7      1.12984951    -0.69115710  -135.48033275    -0.00000394    -0.00000000  0.13D-08  0.67D-09  6  1    33.60
   8      1.12985170    -0.69115729  -135.48033295    -0.00000020    -0.00000000  0.79D-10  0.56D-10  6  2    37.03

 Norm of t1 vector:      0.08498111      S-energy:    -0.00050755      T1 diagnostic:  0.01348325
                                                                       D1 diagnostic:  0.04930020
 Norm of t2 vector:      0.35018554      P-energy:    -0.69064975
                                         Alpha-Beta:  -0.49255934
                                         Alpha-Alpha: -0.10876690
                                         Beta-Beta:   -0.08932351

 Singles amplitudes (print threshold =  0.500E-01):

         I         SYM. A    A   T(IA) [Alpha-Alpha]

         4         1         3     -0.05223795

 Spin contamination <S**2-Sz**2-Sz>     0.00000000

 Memory could be reduced to 106.18 Mwords without degradation in triples
 

  Correlated core orbitals:             1.1       1.2       1.3       1.5
  Orbital energies:                    -4.6940   -2.7304   -2.7304   -2.7304
 
  RCCSD core-core energy               -0.100241196079
  RCCSD core-valence energy            -0.224264593339
  RCCSD valence correlation energy     -0.366651505087
 

 RESULTS
 =======

  Reference energy                   -134.789175654475
  RCCSD singles energy                 -0.000507546296
  RCCSD pair energy                    -0.690649748209
  RCCSD correlation energy             -0.691157294505
  Triples (T) contribution             -0.026490131958
  Total correlation energy             -0.717647426463
 
  RHF-RCCSD energy                   -135.480332948979
  RHF-RCCSD[T] energy                -135.507479178003
  RHF-RCCSD-T energy                 -135.506632328152
 !RHF-RCCSD(T) energy                -135.506823080938

 Program statistics:

 Available memory in ccsd:               511999000
 Min. memory needed in ccsd:               6270096
 Max. memory used in ccsd:                 8856394
 Max. memory used in cckext:               6831890 ( 8 integral passes)
 Max. memory used in cckint:              18500488 ( 1 integral passes)



 **********************************************************************************************************************************
 DATASETS  * FILE   NREC   LENGTH (MB)   RECORD NAMES
              1      20       32.94       500      610      700      900      950      970     1000      129      960     1100   
                                          VAR    BASINP    GEOM    SYMINP    ZMAT    AOBASIS   BASIS     P2S    ABASIS      S 
                                         1400     1410     1420     1200     1210     1080     1600     1650     1700     1380   
                                           T        V       ECP      H0       H01     AOSYM     SMH    MOLCAS    OPER     JKOP   

              2       7       12.43       200      700     1000      520     4202     5202     2103   
                                        OPTIONS   GEOM     BASIS   MCVARS     RHF     MCSCF     RHF  

 PROGRAMS   *        TOTAL  RCCSD(T)       RHF     MULTI       POP       RHF       INT
 CPU TIMES  *       262.09     68.23      0.40      1.24      0.00      1.51    190.24
 REAL TIME  *       317.31 SEC
 DISK USED  *        11.03 GB      
 SF USED    *         1.62 GB      
 GA USED    *         0.00 MB       (max)       0.00 MB       (current)
 **********************************************************************************************************************************
 SETTING CCSD(1)        =      -135.50682308  AU                              

 DO I                   =         2.00000000   

 Running procedure=AS2DTEN


 PROGRAM * RHF-SCF (CLOSED SHELL)       Authors: W. Meyer, H.-J. Werner


 NUMBER OF ELECTRONS:      10+   10-    SPACE SYMMETRY=1    SPIN SYMMETRY: Singlet 
 CONVERGENCE THRESHOLDS:    1.00E-05 (Density)    1.00E-07 (Energy)
 MAX. NUMBER OF ITERATIONS:       60
 INTERPOLATION TYPE:            DIIS
 INTERPOLATION STEPS:              2 (START)      1 (STEP)
 LEVEL SHIFTS:                  0.00 (CLOSED)  0.00 (OPEN) 

 Number of closed-shell orbitals:   10 (   4   1   1   1   1   1   1   0 )


 
 Extra symmetries of mos in symmetry 1:   1   3   2   1
 Orbital guess generated from atomic densities. Full valence occupancy:    4   1   1   1   1   1   1   0


 Molecular orbital dump at record        2114.2

 ITERATION    DDIFF          GRAD             ENERGY        2-EL.EN.            DIPOLE MOMENTS         DIIS   ORB.
    1      0.000D+00      0.000D+00      -134.69523614    227.295296    0.00000    0.00000    0.00000    0    start
    2      0.000D+00      0.143D-01      -134.73802210    211.501454    0.00000    0.00000    0.00000    1    diag
    3      0.111D-01      0.146D-01      -134.81107047    217.843261    0.00000    0.00000    0.00000    2    diag
    4      0.316D-02      0.926D-03      -134.81262855    217.802120    0.00000    0.00000    0.00000    3    diag
    5      0.152D-02      0.264D-03      -134.81293958    217.649340    0.00000    0.00000    0.00000    4    diag
    6      0.108D-02      0.734D-04      -134.81295430    217.586258    0.00000    0.00000    0.00000    5    diag
    7      0.403D-03      0.103D-04      -134.81295496    217.579860    0.00000    0.00000    0.00000    6    diag
    8      0.148D-03      0.372D-05      -134.81295498    217.579000    0.00000    0.00000    0.00000    7    diag
    9      0.211D-04      0.185D-05      -134.81295499    217.578639    0.00000    0.00000    0.00000    8    diag
   10      0.923D-05      0.153D-05      -134.81295499    217.578638    0.00000    0.00000    0.00000    0    orth

 Final occupancy:   4   1   1   1   1   1   1   0

 !RHF STATE 1.1 Energy               -134.812954987981
 Nuclear energy                         0.00000000
 One-electron energy                 -243.60227374
 Two-electron energy                  108.78931875
 Virial quotient                       -2.93131856
 !RHF STATE 1.1 Dipole moment           0.00000000     0.00000000     0.00000000
 Dipole moment /Debye                   0.00000000     0.00000000     0.00000000

 ELECTRON ORBITALS
 =================


   Orb  Occ    Energy  Couls-En    Coefficients

                                   1 1s      1 1s      1 1s      1 1s      1 1s      1 1s      1 1s      1 1s      1 1s      1 1s   
                                   1 1s      1 1s      1 1s      1 1s      1 1s      1 1s      1 1s      1 1s      1 1s      1 1s   
                                   1 1s      1 1s      1 1s      1 1s      1 1s      1 1s      1 1s      1 1s      1 1s      1 1s   
                                   1 1s      1 1s      1 1s      1 1s      1 1s      1 3d0     1 3d2+    1 3d0     1 3d2+    1 3d0  
                                   1 3d2+    1 3d0     1 3d2+    1 3d0     1 3d2+    1 3d0     1 3d2+    1 3d0     1 3d2+    1 3d0  
                                   1 3d2+    1 3d0     1 3d2+    1 3d0     1 3d2+    1 3d0     1 3d2+    1 3d0     1 3d2+    1 3d0  
                                   1 3d2+    1 3d0     1 3d2+    1 3d0     1 3d2+    1 3d0     1 3d2+    1 3d0     1 3d2+    1 3d0  
                                   1 3d2+    1 3d0     1 3d2+    1 3d0     1 3d2+    1 3d0     1 3d2+    1 5g0     1 5g4+    1 5g2+ 
                                   1 5g0     1 5g4+    1 5g2+    1 5g0     1 5g4+    1 5g2+ 

   1.1   2    -4.4505  -21.6826 -0.000000  0.000000 -0.000000  0.000000 -0.000000  0.000000 -0.000000  0.000000 -0.000000  0.000000
                                -0.000001  0.000002 -0.000006  0.000016 -0.000041  0.000107 -0.000266  0.000670 -0.001626  0.003934
                                -0.009200  0.020913 -0.039522 -0.006820  0.436004 -1.158608 -0.615857  1.154522  0.596126  0.029733
                                -0.005142  0.001774 -0.000426  0.572417 -0.195456  0.000000 -0.000000 -0.000000  0.000000  0.000000
                                -0.000000  0.000000  0.000000 -0.000000 -0.000000  0.000000  0.000000 -0.000000 -0.000000  0.000000
                                 0.000000 -0.000000 -0.000000  0.000000 -0.000000 -0.000000  0.000000  0.000000 -0.000000 -0.000001
                                 0.000000 -0.000001  0.000000  0.000000  0.000000  0.000001  0.000000  0.000000 -0.000000 -0.000000
                                -0.000000 -0.000000 -0.000000  0.000002 -0.000000 -0.000001 -0.000000 -0.000000  0.000000 -0.000000
                                 0.000000 -0.000000  0.000000  0.000000 -0.000000  0.000000

   2.1   2    -0.2125  -11.0469  0.000000 -0.000000 -0.000000  0.000000 -0.000000  0.000000 -0.000000  0.000000 -0.000000  0.000000
                                -0.000000  0.000000 -0.000000  0.000000 -0.000000  0.000000 -0.000000  0.000000 -0.000000  0.000000
                                -0.000000  0.000000 -0.000000 -0.000000  0.000000 -0.000001  0.000000  0.000001  0.000001 -0.000001
                                -0.000001 -0.000003  0.000003 -0.000000 -0.000001 -0.000000 -0.000000  0.000000  0.000000 -0.000000
                                -0.000000  0.000000  0.000001 -0.000000 -0.000002  0.000000  0.000007 -0.000001 -0.000018  0.000003
                                 0.000062 -0.000005 -0.000118  0.000020  0.000446 -0.000067 -0.001503  0.000543  0.012128 -0.001896
                                -0.042354  0.000684  0.015280  0.009729  0.217283  0.016232  0.362488  0.015743  0.351639  0.009015
                                 0.201325  0.003632  0.081130 -0.001738 -0.038821  0.001211  0.027081  0.000000 -0.000000  0.000000
                                -0.000000 -0.000000 -0.000000 -0.000000 -0.000000 -0.000000

   3.1   2    -0.2125  -11.0469 -0.000000  0.000000 -0.000000  0.000000 -0.000000  0.000000 -0.000000  0.000000 -0.000000  0.000000
                                -0.000000  0.000000 -0.000000  0.000000 -0.000000  0.000000 -0.000000  0.000000 -0.000000  0.000000
                                -0.000000 -0.000000  0.000000  0.000000 -0.000001  0.000003  0.000006 -0.000005 -0.000002  0.000002
                                 0.000001  0.000002 -0.000003 -0.000006  0.000003 -0.000000  0.000000  0.000000 -0.000000 -0.000000
                                 0.000000  0.000001 -0.000000 -0.000002  0.000000  0.000007 -0.000000 -0.000018  0.000001  0.000062
                                -0.000003 -0.000118  0.000005  0.000446 -0.000020 -0.001503  0.000068  0.012128 -0.000544 -0.042355
                                 0.001901  0.015276 -0.000673  0.217286 -0.009734  0.362492 -0.016230  0.351637 -0.015746  0.201326
                                -0.009011  0.081131 -0.003636 -0.038817  0.001725  0.027076 -0.001209  0.000000 -0.000000 -0.000000
                                -0.000000 -0.000000 -0.000000 -0.000000 -0.000000 -0.000000

   4.1   2    -0.0420   -6.0219  0.000000 -0.000000  0.000000 -0.000000  0.000000 -0.000000  0.000000 -0.000000  0.000000 -0.000000
                                 0.000000 -0.000001  0.000002 -0.000005  0.000012 -0.000030  0.000075 -0.000189  0.000458 -0.001111
                                 0.002609 -0.005996  0.011762 -0.001242 -0.115842  0.332622  0.156396 -0.386905 -0.268557  0.144977
                                 0.417136  0.333009  0.320124 -0.152692  0.021731 -0.000000 -0.000000  0.000000  0.000000 -0.000000
                                -0.000000  0.000000  0.000000 -0.000000 -0.000000  0.000000  0.000000  0.000000 -0.000000 -0.000000
                                 0.000000  0.000000 -0.000000 -0.000000  0.000000  0.000000 -0.000000 -0.000000  0.000000  0.000000
                                 0.000000 -0.000001 -0.000001  0.000001  0.000003  0.000003  0.000004 -0.000002 -0.000001  0.000001
                                 0.000002 -0.000002 -0.000001  0.000000  0.000000 -0.000003 -0.000005 -0.000000  0.000000 -0.000000
                                -0.000000 -0.000000  0.000000 -0.000000 -0.000000 -0.000000

   5.1   0     0.1573   -2.3100  0.000000 -0.000000  0.000000 -0.000000  0.000000 -0.000000  0.000000 -0.000000  0.000000 -0.000000
                                 0.000000 -0.000001  0.000002 -0.000005  0.000014 -0.000035  0.000088 -0.000217  0.000529 -0.001239
                                 0.002804 -0.006081  0.013488 -0.038967  0.143371 -0.547980 -1.759474  2.201604  1.456665 -0.893507
                                 1.509564 -3.134159  2.504680  1.464868 -2.505605 -0.000000  0.000000  0.000000 -0.000000 -0.000000
                                 0.000000  0.000000 -0.000000 -0.000000 -0.000000  0.000000  0.000000 -0.000000 -0.000000  0.000000
                                 0.000000 -0.000000 -0.000000  0.000000  0.000000 -0.000000 -0.000000  0.000000  0.000000 -0.000000
                                -0.000001  0.000000 -0.000001 -0.000000 -0.000001 -0.000001 -0.000002  0.000002  0.000000 -0.000001
                                -0.000002  0.000001  0.000001 -0.000000  0.000002  0.000002  0.000002  0.000000  0.000000  0.000000
                                 0.000000  0.000000  0.000000  0.000000  0.000000  0.000000

   6.1   0     0.3931   -3.6774 -0.000000  0.000000 -0.000000  0.000000 -0.000000  0.000000 -0.000000  0.000000 -0.000000  0.000000
                                -0.000001  0.000003 -0.000009  0.000023 -0.000059  0.000150 -0.000377  0.000938 -0.002280  0.005415
                                -0.012438  0.027627 -0.058404  0.106653 -0.163487  0.835955  4.450818 -5.248999 -3.507239  2.379532
                                -5.411599  5.100195 -1.706807 -3.652268  6.837026 -0.000000  0.000000  0.000000 -0.000000 -0.000000
                                 0.000000  0.000000 -0.000000 -0.000000  0.000000  0.000000 -0.000000 -0.000000  0.000000  0.000000
                                -0.000000 -0.000001  0.000000  0.000001 -0.000001 -0.000002  0.000001  0.000006 -0.000003 -0.000028
                                 0.000013 -0.000065  0.000024  0.000072 -0.000023  0.000148 -0.000044 -0.000048  0.000015  0.000073
                                -0.000022 -0.000112  0.000031  0.000067 -0.000027 -0.000157  0.000047  0.000000 -0.000000  0.000000
                                -0.000000  0.000000 -0.000000  0.000000 -0.000000  0.000000

                                   1 2px     1 2px     1 2px     1 2px     1 2px     1 2px     1 2px     1 2px     1 2px     1 2px  
                                   1 2px     1 2px     1 2px     1 2px     1 2px     1 2px     1 2px     1 2px     1 2px     1 2px  
                                   1 2px     1 2px     1 2px     1 2px     1 2px     1 2px     1 2px     1 2px     1 2px     1 2px  
                                   1 2px     1 4f1+    1 4f3+    1 4f1+    1 4f3+    1 4f1+    1 4f3+    1 4f1+    1 4f3+    1 4f1+ 
                                   1 4f3+    1 4f1+    1 4f3+    1 4f1+    1 4f3+    1 4f1+    1 4f3+    1 4f1+    1 4f3+    1 4f1+ 
                                   1 4f3+    1 4f1+    1 4f3+    1 4f1+    1 4f3+    1 4f1+    1 4f3+    1 4f1+    1 4f3+    1 4f1+ 
                                   1 4f3+ 

   1.2   2    -2.4856  -17.2914  0.000000 -0.000000  0.000000 -0.000000  0.000000 -0.000000  0.000000 -0.000000  0.000001 -0.000003
                                 0.000010 -0.000029  0.000078 -0.000194  0.000474 -0.001063  0.002405 -0.004642 -0.001773  0.099087
                                -0.328849 -0.163105  0.525983  0.526039  0.172363  0.017675  0.001355  0.000294 -0.000006  0.134285
                                -0.029615 -0.000000 -0.000000  0.000000  0.000000 -0.000000 -0.000000  0.000000  0.000000 -0.000000
                                -0.000000  0.000000  0.000000 -0.000000 -0.000000  0.000000  0.000000 -0.000000 -0.000000 -0.000000
                                 0.000000 -0.000000  0.000000  0.000000  0.000000  0.000000 -0.000000  0.000000 -0.000000 -0.000000
                                 0.000000

   2.2   0     0.1242   -1.6595  0.000000 -0.000000  0.000000 -0.000000  0.000000 -0.000000  0.000000 -0.000000  0.000001 -0.000003
                                 0.000009 -0.000025  0.000066 -0.000166  0.000394 -0.000888  0.001929 -0.004149  0.009359 -0.024837
                                 0.090664  1.208861 -0.462810 -1.094792  0.303181 -0.327329  0.642697 -1.265659  1.676486 -1.116687
                                 1.203777 -0.000000  0.000000  0.000000 -0.000000 -0.000000  0.000000  0.000000 -0.000000 -0.000000
[...]
                                 0.000001 -0.000003  0.000009 -0.000021  0.000059 -0.000135  0.000367 -0.000617 -0.004725  0.064655
                                -0.237992 -0.830909  0.654961  1.218563 -0.553381 -0.801121 -0.022241 -0.007047  0.002483  0.765573
                                -0.831140  0.000000  0.000000  0.000000  0.000000  0.000000  0.000000  0.000000  0.000000  0.000000
                                 0.000000  0.000000  0.000000  0.000000  0.000000  0.000000  0.000000  0.000000  0.000000  0.000000
                                 0.000000  0.000000  0.000000  0.000000  0.000000  0.000000  0.000000  0.000000  0.000000  0.000000
                                 0.000000

   3.5  0.00000    -0.790118     0.000000  0.000000  0.000000  0.000000  0.000000  0.000000  0.000000  0.000000  0.000000  0.000000
                                 0.000000  0.000000  0.000000  0.000000  0.000000  0.000000  0.000000  0.000000  0.000000  0.000000
                                 0.000000  0.000000  0.000000  0.000000  0.000000  0.000000  0.000000  0.000000  0.000000  0.000000
                                 0.000000 -0.000002  0.000000  0.000012  0.000000 -0.000050  0.000000  0.000195  0.000000 -0.000467
                                 0.000000  0.001653  0.000000 -0.002190  0.000000  0.010299  0.000000 -0.067896  0.000000 -0.337400
                                 0.000000 -0.164596  0.000000  0.276367  0.000000  0.582476  0.000000  0.687173  0.000000  0.214915
                                 0.000000

                                   1 3d1+    1 3d1+    1 3d1+    1 3d1+    1 3d1+    1 3d1+    1 3d1+    1 3d1+    1 3d1+    1 3d1+ 
                                   1 3d1+    1 3d1+    1 3d1+    1 3d1+    1 3d1+    1 3d1+    1 3d1+    1 3d1+    1 3d1+    1 3d1+ 
                                   1 3d1+    1 5g1+    1 5g3+    1 5g1+    1 5g3+    1 5g1+    1 5g3+ 

   1.6  1.00000    -2.691890    -0.000000  0.000000 -0.000000  0.000001 -0.000005  0.000018 -0.000049  0.000144 -0.000304  0.000907
                                -0.002678  0.017359 -0.064478 -0.011935  0.312639  0.543384  0.296376  0.028383 -0.000460 -0.018755
                                -0.031781  0.000000  0.000000  0.000000  0.000000  0.000000  0.000000

                                   1 3d1-    1 3d1-    1 3d1-    1 3d1-    1 3d1-    1 3d1-    1 3d1-    1 3d1-    1 3d1-    1 3d1- 
                                   1 3d1-    1 3d1-    1 3d1-    1 3d1-    1 3d1-    1 3d1-    1 3d1-    1 3d1-    1 3d1-    1 3d1- 
                                   1 3d1-    1 5g1-    1 5g3-    1 5g1-    1 5g3-    1 5g1-    1 5g3- 

   1.7  1.00000    -2.691890    -0.000000  0.000000 -0.000000  0.000001 -0.000005  0.000018 -0.000049  0.000144 -0.000304  0.000907
                                -0.002678  0.017359 -0.064478 -0.011935  0.312639  0.543384  0.296376  0.028383 -0.000460 -0.018755
                                -0.031781  0.000000  0.000000  0.000000  0.000000  0.000000  0.000000

                                   1 4f2-    1 4f2-    1 4f2-    1 4f2-    1 4f2-    1 4f2-    1 4f2-    1 4f2-    1 4f2-    1 4f2- 
                                   1 4f2-    1 4f2-    1 4f2-    1 4f2-    1 4f2- 

   1.8  0.25000    -0.916503    -0.000001  0.000006 -0.000023  0.000096 -0.000205  0.000857 -0.000719  0.005414 -0.035291 -0.175108
                                -0.087321  0.153823  0.368996  0.546728  0.441963

 Total charge:   5.000000000000
 

 EXTRA SYMMETRY OF MOS IN SYMMETRY 1:   1 3 2 1 3 2 1 1 2 3   1 4 5 6 2 3 1 4 5 6   2 3 1 2 3 4 5 6 1 2   3 1 2 3 2 3 1 2 3 1
                                        2 3 1 3 2 1 1 3 2 1   3 2 1 3 2 1 3 2 1 3   2 1 3 2 1 3 2 1 1 3   2 1 3 2 1 1 1 1 1 1
                                        1 1 1 1 1 1
 EXTRA SYMMETRY OF MOS IN SYMMETRY 2:   1 1 3 2 1 1 3 1 2 1   3 2 1 3 2 1 3 2 3 2   1 3 2 1 3 2 1 3 2 1   3 2 1 3 2 1 1 3 2 1
                                        3 2 1 1 3 2 1 3 2 1   1 1 1 1 1 1 1 1 1 1   1
 EXTRA SYMMETRY OF MOS IN SYMMETRY 3:   1 1 3 2 1 1 3 1 2 1   3 2 1 3 2 1 3 2 3 2   1 3 2 1 3 2 1 3 2 1   3 2 1 3 2 1 1 3 2 1
                                        3 2 1 1 3 2 1 3 2 1   1 1 1 1 1 1 1 1 1 1   1
 EXTRA SYMMETRY OF MOS IN SYMMETRY 4:   1 1 1 2 3 1 3 2 1 1   3 2 1 1 1 1 1 1 1 1   1 1 1 1 1 1 1
 EXTRA SYMMETRY OF MOS IN SYMMETRY 5:   1 1 2 3 1 1 2 1 3 1   2 3 1 2 3 1 2 3 2 3   1 2 3 1 2 3 1 2 3 1   2 3 1 2 3 1 1 2 3 1
                                        2 3 1 1 2 3 1 2 3 1   1 1 1 1 1 1 1 1 1 1   1
 EXTRA SYMMETRY OF MOS IN SYMMETRY 6:   1 1 1 3 2 1 2 3 1 1   2 3 1 1 1 1 1 1 1 1   1 1 1 1 1 1 1
 EXTRA SYMMETRY OF MOS IN SYMMETRY 7:   1 1 1 3 2 1 2 3 1 1   2 3 1 1 1 1 1 1 1 1   1 1 1 1 1 1 1

 Natural orbital dump (state averaged) at molpro section  5202.2    (Orbital set 2)


 CI vector for state symmetry 1
 ==============================

 // 00 00 / 00 / / /      1.0000000

 CI vector for state symmetry 2
 ==============================

 // /0 00 / 00 / / 0      1.0000000

 CI vector for state symmetry 3
 ==============================

 // 00 /0 / 00 / / 0      1.0000000

 CI vector for state symmetry 4
 ==============================

 // 00 00 / /0 / / 0      1.0000000


 **********************************************************************************************************************************
 DATASETS  * FILE   NREC   LENGTH (MB)   RECORD NAMES
              1      20       49.30       500      610      700      900      950      970     1000      129      960     1100   
                                          VAR    BASINP    GEOM    SYMINP    ZMAT    AOBASIS   BASIS     P2S    ABASIS      S 
                                         1400     1410     1420     1200     1210     1080     1600     1650     1700     1380   
                                           T        V       ECP      H0       H01     AOSYM     SMH    MOLCAS    OPER     JKOP   

              2      23       56.61       200      700     1000      520     4202     5202     2103     2114     5202(1)  2105   
                                        OPTIONS   GEOM     BASIS   MCVARS     RHF     MCSCF     RHF      RHF     MCSCF     RHF  
                                         5202(2)  2101     2109     2107     2116     5202(3)  2118     2120     2122     2124   
                                         MCSCF     RHF      RHF      RHF      RHF     MCSCF     RHF      RHF      RHF      RHF  
                                         2110     2113     2111   
                                          RHF      RHF      RHF  

 PROGRAMS   *        TOTAL     MULTI       POP       RHF  RCCSD(T)       RHF  RCCSD(T)       RHF     MULTI       POP       RHF
 CPU TIMES  *       806.43      4.27      0.00      3.90      1.53      1.64      5.48      0.44      0.83      0.01      1.48
 REAL TIME  *      1342.11 SEC
 DISK USED  *        11.79 GB      
 SF USED    *         1.62 GB      
 GA USED    *         0.00 MB       (max)       0.00 MB       (current)
 **********************************************************************************************************************************


 PROGRAM * RHF-SCF (OPEN SHELL)       Authors: W. Meyer, H.-J. Werner


 NUMBER OF ELECTRONS:      10+    4-    SPACE SYMMETRY=8    SPIN SYMMETRY: Septet  
 CONVERGENCE THRESHOLDS:    1.00E-05 (Density)    1.00E-07 (Energy)
 MAX. NUMBER OF ITERATIONS:        0
 INTERPOLATION TYPE:            DIIS
 INTERPOLATION STEPS:              2 (START)      1 (STEP)
 LEVEL SHIFTS:                 -0.60 (CLOSED) -0.30 (OPEN) 


 Singly occupied orbitals:      2.1       3.1       1.4       1.6       1.7       1.8
 Molecular orbitals read from record     5202.2  Type=MCSCF/NATURAL  

 Molecular orbital dump at record        2126.2

 ITERATION    DDIFF          GRAD             ENERGY        2-EL.EN.            DIPOLE MOMENTS         DIIS   ORB.
    1      0.000D+00      0.000D+00      -127.42973208    127.159663    0.00000    0.00000    0.00000    0    start

 Final alpha occupancy:   3   1   1   1   1   1   1   1
 Final beta  occupancy:   1   1   1   0   1   0   0   0

 !RHF STATE 1.8 Energy               -127.429732080641
 Nuclear energy                         0.00000000
 One-electron energy                 -191.00956342
 Two-electron energy                   63.57983134
 Virial quotient                       -3.12744277
 !RHF STATE 1.8 Dipole moment           0.00000000     0.00000000     0.00000000
 Dipole moment /Debye                   0.00000000     0.00000000     0.00000000

 Orbital energies:

         1.1          2.1          3.1          4.1          5.1
     -7.432080    -2.689943    -2.689946    -1.900115    -0.982804

         1.2          2.2          3.2
     -5.371056    -1.495274    -0.789110

         1.3          2.3          3.3
     -5.371056    -1.495274    -0.789110

         1.4          2.4          3.4
     -2.691889    -0.983020    -0.511215

         1.5          2.5          3.5
     -5.371059    -1.495276    -0.790118

         1.6          2.6          3.6
     -2.691890    -0.983021    -0.511216

         1.7          2.7          3.7
     -2.691890    -0.983021    -0.511216

         1.8          2.8          3.8
     -0.916503    -0.332177     0.933749

 HOMO      1.8    -0.916503 =     -24.9393eV
 LUMO      4.1    -1.900115 =     -51.7048eV
 LUMO-HOMO        -0.983612 =     -26.7654eV


 **********************************************************************************************************************************
 DATASETS  * FILE   NREC   LENGTH (MB)   RECORD NAMES
              1      20       49.30       500      610      700      900      950      970     1000      129      960     1100   
                                          VAR    BASINP    GEOM    SYMINP    ZMAT    AOBASIS   BASIS     P2S    ABASIS      S 
                                         1400     1410     1420     1200     1210     1080     1600     1650     1700     1380   
                                           T        V       ECP      H0       H01     AOSYM     SMH    MOLCAS    OPER     JKOP   

              2      24       60.12       200      700     1000      520     4202     5202     2103     2114     5202(1)  2105   
                                        OPTIONS   GEOM     BASIS   MCVARS     RHF     MCSCF     RHF      RHF     MCSCF     RHF  
                                         5202(2)  2101     2109     2107     2116     5202(3)  2118     2120     2122     2124   
                                         MCSCF     RHF      RHF      RHF      RHF     MCSCF     RHF      RHF      RHF      RHF  
                                         2110     2113     2111     2126   
                                          RHF      RHF      RHF      RHF  

 PROGRAMS   *        TOTAL       RHF     MULTI       POP       RHF  RCCSD(T)       RHF  RCCSD(T)       RHF     MULTI       POP
 CPU TIMES  *       806.99      0.56      4.27      0.00      3.90      1.53      1.64      5.48      0.44      0.83      0.01
 REAL TIME  *      1342.93 SEC
 DISK USED  *        11.79 GB      
 SF USED    *         1.62 GB      
 GA USED    *         0.00 MB       (max)       0.00 MB       (current)
 **********************************************************************************************************************************
 SETTING SCF(15)        =      -127.42973208  AU                              
 SETTING _CC_NORM_MAX   =         2.00000000                                  


 PROGRAM * CCSD (Restricted open-shell coupled cluster)     Authors: C. Hampel, H.-J. Werner, 1991, M. Deegan, P.J. Knowles, 1992


 Convergence thresholds:  THRVAR = 1.00D-08  THRDEN = 1.00D-06

 CCSD(T)     terms to be evaluated (factor= 1.000)


 Number of closed-shell orbitals:   4 (   1   1   1   0   1   0   0   0 )
 Number of active  orbitals:        6 (   2   0   0   1   0   1   1   1 )
 Number of external orbitals:     355 (  83  60  60  26  60  26  26  14 )

 Memory could be reduced to 102.43 Mwords without degradation in triples

 Number of N-1 electron functions:              14
 Number of N-2 electron functions:              91
 Number of singly external CSFs:               796
 Number of doubly external CSFs:           1075671
 Total number of CSFs:                     1076467

 Molecular orbitals read from record     2126.2  Type=RHF/CANONICAL (state 1.8)

 Integral transformation finished. Total CPU:   2.88 sec, npass=  1  Memory used:  19.80 MW

 Starting RMP2 calculation

 Wavefunction is spin-projected

 ITER.      SQ.NORM     CORR.ENERGY   TOTAL ENERGY   ENERGY CHANGE        DEN1      VAR(S)    VAR(P)  DIIS     TIME
   1      1.04917092    -0.40529653  -127.83502861    -0.40529653    -0.00031376  0.11D-05  0.57D-04  1  1     3.79
   2      1.04930632    -0.40562354  -127.83535562    -0.00032701    -0.00000066  0.76D-09  0.19D-06  2  2     4.78
   3      1.04931027    -0.40562710  -127.83535918    -0.00000356    -0.00000001  0.22D-11  0.25D-08  3  3     5.68
   4      1.04931058    -0.40562725  -127.83535933    -0.00000015    -0.00000000  0.28D-13  0.13D-10  4  4     6.62

 Norm of t1 vector:      0.02611097      S-energy:    -0.00369277      T1 diagnostic:  0.00349571
 Norm of t2 vector:      0.22051938      P-energy:    -0.40193448
                                         Alpha-Beta:  -0.26850498
                                         Alpha-Alpha: -0.10655892
                                         Beta-Beta:   -0.02687058

 Spin contamination <S**2-Sz**2-Sz>     0.00000000
  Reference energy                   -127.429732080641
  RHF-RMP2 correlation energy          -0.405627252033
 !RHF-RMP2 energy                    -127.835359332675
 (NB above energy spin projected)

 Starting RCCSD calculation

 ITER.      SQ.NORM     CORR.ENERGY   TOTAL ENERGY   ENERGY CHANGE        DEN1      VAR(S)    VAR(P)  DIIS     TIME
   1      1.04849967    -0.40647249  -127.83620457    -0.40647249    -0.00281405  0.46D-04  0.38D-03  1  1     8.33
   2      1.04970596    -0.40934210  -127.83907418    -0.00286961    -0.00010567  0.44D-05  0.52D-04  2  2    10.19
   3      1.05018258    -0.40952195  -127.83925403    -0.00017985    -0.00003831  0.53D-06  0.28D-04  3  3    11.74
   4      1.05112281    -0.40971201  -127.83944409    -0.00019006    -0.00001409  0.18D-06  0.10D-04  4  4    13.43
   5      1.05245698    -0.40985044  -127.83958252    -0.00013842    -0.00000182  0.20D-06  0.88D-06  5  5    15.24
   6      1.05283187    -0.40987837  -127.83961045    -0.00002794    -0.00000011  0.73D-09  0.49D-07  6  6    16.81
   7      1.05287244    -0.40988104  -127.83961312    -0.00000267    -0.00000001  0.70D-09  0.43D-08  6  1    18.34
   8      1.05287911    -0.40988186  -127.83961394    -0.00000082    -0.00000000  0.11D-09  0.12D-09  6  2    20.04

 Norm of t1 vector:      0.02660113      S-energy:    -0.00358735      T1 diagnostic:  0.00359985
                                                                       D1 diagnostic:  0.00665794
 Norm of t2 vector:      0.22841079      P-energy:    -0.40629451
                                         Alpha-Beta:  -0.27769257
                                         Alpha-Alpha: -0.10372515
                                         Beta-Beta:   -0.02487680

 Spin contamination <S**2-Sz**2-Sz>     0.00000000

 Memory could be reduced to 106.33 Mwords without degradation in triples
 

  Correlated core orbitals:             1.1       1.2       1.3       1.5
  Orbital energies:                    -7.5971   -5.5973   -5.5973   -5.5973
 
  RCCSD core-core energy               -0.134014851372
  RCCSD core-valence energy            -0.206846899889
  RCCSD valence correlation energy     -0.069020108338
 

 RESULTS
 =======

  Reference energy                   -127.429732080641
  RCCSD singles energy                 -0.003587347032
  RCCSD pair energy                    -0.406294512568
  RCCSD correlation energy             -0.409881859600
  Triples (T) contribution             -0.007646120373
  Total correlation energy             -0.417527979973
 
  RHF-RCCSD energy                   -127.839613940241
  RHF-RCCSD[T] energy                -127.847223247470
  RHF-RCCSD-T energy                 -127.847258025949
 !RHF-RCCSD(T) energy                -127.847260060615

 Program statistics:

 Available memory in ccsd:               511999000
 Min. memory needed in ccsd:               3698493
 Max. memory used in ccsd:                 5009178
 Max. memory used in cckext:               4035369 ( 8 integral passes)
 Max. memory used in cckint:              19801882 ( 1 integral passes)



 **********************************************************************************************************************************
 DATASETS  * FILE   NREC   LENGTH (MB)   RECORD NAMES
              1      20       49.30       500      610      700      900      950      970     1000      129      960     1100   
                                          VAR    BASINP    GEOM    SYMINP    ZMAT    AOBASIS   BASIS     P2S    ABASIS      S 
                                         1400     1410     1420     1200     1210     1080     1600     1650     1700     1380   
                                           T        V       ECP      H0       H01     AOSYM     SMH    MOLCAS    OPER     JKOP   

              2      24       60.12       200      700     1000      520     4202     5202     2103     2114     5202(1)  2105   
                                        OPTIONS   GEOM     BASIS   MCVARS     RHF     MCSCF     RHF      RHF     MCSCF     RHF  
                                         5202(2)  2101     2109     2107     2116     5202(3)  2118     2120     2122     2124   
                                         MCSCF     RHF      RHF      RHF      RHF     MCSCF     RHF      RHF      RHF      RHF  
                                         2110     2113     2111     2126   
                                          RHF      RHF      RHF      RHF  

 PROGRAMS   *        TOTAL  RCCSD(T)       RHF     MULTI       POP       RHF  RCCSD(T)       RHF  RCCSD(T)       RHF     MULTI
 CPU TIMES  *       842.70     35.39      0.56      4.27      0.00      3.90      1.53      1.64      5.48      0.44      0.83
 REAL TIME  *      1422.33 SEC
 DISK USED  *        11.79 GB      
 SF USED    *         1.62 GB      
 GA USED    *         0.00 MB       (max)       0.00 MB       (current)
 **********************************************************************************************************************************
 SETTING CCSD(15)       =      -127.84726006  AU                              
                                                                                                                                                                                                                                                                

         SCF             CCSD
    -134.78917565   -135.50682308
    -134.81295499   -135.58953077
    -134.63277509   -135.32206380
    -134.71873361   -135.44745445
    -134.50770648   -135.17021647
    -134.42352245   -135.08371843
    -133.80292365   -134.41120528
    -132.66591071   -133.21493459
    -131.02053435   -131.51846233
    -128.83315290   -129.28520381
    -126.11994143   -126.51766706
    -102.16464142   -102.42719597
     -72.12687779    -72.25171814
     -33.94859007    -33.99910990
    -127.42973208   -127.84726006
                                                  

 RCCSD(T)/USERDEF energy=   -127.847260060615

        RCCSD(T)        RHF-SCF         MULTI           RHF-SCF         RCCSD(T)        RHF-SCF         RCCSD(T)        RHF-SCF 
   -127.84726006   -127.42973208   -127.95747660   -127.43117042    -33.99910990    -33.94859007    -72.25171814    -72.12687779
 **********************************************************************************************************************************
 Molpro calculation terminated
 Variable memory released
