/global/cscratch1/sd/bkincaid/cutoffs/W/250-610/runs/scf_280

     Program PWSCF v.6.4.1 starts on 17Jan2022 at 19:43:20 

     This program is part of the open-source Quantum ESPRESSO suite
     for quantum simulation of materials; please cite
         "P. Giannozzi et al., J. Phys.:Condens. Matter 21 395502 (2009);
         "P. Giannozzi et al., J. Phys.:Condens. Matter 29 465901 (2017);
          URL http://www.quantum-espresso.org", 
     in publications or presentations arising from this work. More details at
     http://www.quantum-espresso.org/quote

     Parallel version (MPI & OpenMP), running on      32 processor cores
     Number of MPI processes:                32
     Threads/MPI process:                     1

     MPI processes distributed on     1 nodes
     R & G space division:  proc/nbgrp/npool/nimage =      32
     Reading input from scf_280.in

     Current dimensions of program PWSCF are:
     Max number of different atomic species (ntypx) = 10
     Max number of k-points (npk) =  40000
     Max angular momentum in pseudopotentials (lmaxx) =  3

     IMPORTANT: XC functional enforced from input :
     Exchange-correlation      = PBE ( 1  4  3  4 0 0)
     Any further DFT definition will be discarded
     Please, verify this is what you really want


     gamma-point specific algorithms are used

     Subspace diagonalization in iterative solution of the eigenvalue problem:
     one sub-group per band group will be used
     scalapack distributed-memory algorithm (size of sub-group:  4*  4 procs)

     Message from routine setup:
     DEPRECATED: symmetry with ibrav=0, use correct ibrav instead
 
     Parallelization info
     --------------------
     sticks:   dense  smooth     PW     G-vecs:    dense   smooth      PW
     Min        1430    1430    356               230642   230642   28812
     Max        1432    1432    358               230656   230656   28826
     Sum       45805   45805  11449              7380733  7380733  922329
 


     bravais-lattice index     =            0
     lattice parameter (alat)  =      22.6767  a.u.
     unit-cell volume          =   11661.1222 (a.u.)^3
     number of atoms/cell      =            1
     number of atomic types    =            1
     number of electrons       =        14.00 (up:   9.00, down:   5.00)
     number of Kohn-Sham states=           12
     kinetic-energy cutoff     =     280.0000  Ry
     charge density cutoff     =    1120.0000  Ry
     convergence threshold     =      1.0E-06
     mixing beta               =       0.7000
     number of iterations used =            8  plain     mixing
     Exchange-correlation      = PBE ( 1  4  3  4 0 0)

     celldm(1)=  22.676714  celldm(2)=   0.000000  celldm(3)=   0.000000
     celldm(4)=   0.000000  celldm(5)=   0.000000  celldm(6)=   0.000000

     crystal axes: (cart. coord. in units of alat)
               a(1) = (   1.000000   0.000000   0.000000 )  
               a(2) = (   0.000000   1.000000   0.000000 )  
               a(3) = (   0.000000   0.000000   1.000000 )  

     reciprocal axes: (cart. coord. in units 2 pi/alat)
               b(1) = (  1.000000  0.000000  0.000000 )  
               b(2) = (  0.000000  1.000000  0.000000 )  
               b(3) = (  0.000000  0.000000  1.000000 )  


     PseudoPot. # 1 for W  read from file:
     ./W.upf
     MD5 check sum: 4ed05a8c0c5f577ff01fd4795b4ecf91
     Pseudo is Norm-conserving, Zval = 14.0
     Generated by new atomic code, or converted to UPF format
     Using radial grid of 1187 points,  3 beta functions with: 
                l(1) =   0
                l(2) =   2
                l(3) =   3

     atomic species   valence    mass     pseudopotential
        W             14.00   183.85000     W ( 1.00)

     Starting magnetic structure 
     atomic species   magnetization
        W            0.500

     48 Sym. Ops., with inversion, found


                                    s                        frac. trans.

      isym =  1     identity                                     

 cryst.   s( 1) = (     1          0          0      )
                  (     0          1          0      )
                  (     0          0          1      )

 cart.    s( 1) = (  1.0000000  0.0000000  0.0000000 )
                  (  0.0000000  1.0000000  0.0000000 )
                  (  0.0000000  0.0000000  1.0000000 )


      isym =  2     180 deg rotation - cart. axis [0,0,1]        

 cryst.   s( 2) = (    -1          0          0      )
                  (     0         -1          0      )
                  (     0          0          1      )

 cart.    s( 2) = ( -1.0000000  0.0000000  0.0000000 )
                  (  0.0000000 -1.0000000  0.0000000 )
                  (  0.0000000  0.0000000  1.0000000 )


      isym =  3     180 deg rotation - cart. axis [0,1,0]        

 cryst.   s( 3) = (    -1          0          0      )
                  (     0          1          0      )
                  (     0          0         -1      )

 cart.    s( 3) = ( -1.0000000  0.0000000  0.0000000 )
                  (  0.0000000  1.0000000  0.0000000 )
                  (  0.0000000  0.0000000 -1.0000000 )


      isym =  4     180 deg rotation - cart. axis [1,0,0]        

 cryst.   s( 4) = (     1          0          0      )
                  (     0         -1          0      )
                  (     0          0         -1      )

 cart.    s( 4) = (  1.0000000  0.0000000  0.0000000 )
                  (  0.0000000 -1.0000000  0.0000000 )
                  (  0.0000000  0.0000000 -1.0000000 )


      isym =  5     180 deg rotation - cart. axis [1,1,0]        

 cryst.   s( 5) = (     0          1          0      )
                  (     1          0          0      )
                  (     0          0         -1      )

 cart.    s( 5) = (  0.0000000  1.0000000  0.0000000 )
                  (  1.0000000  0.0000000  0.0000000 )
                  (  0.0000000  0.0000000 -1.0000000 )


      isym =  6     180 deg rotation - cart. axis [1,-1,0]       

 cryst.   s( 6) = (     0         -1          0      )
                  (    -1          0          0      )
                  (     0          0         -1      )

 cart.    s( 6) = (  0.0000000 -1.0000000  0.0000000 )
                  ( -1.0000000  0.0000000  0.0000000 )
                  (  0.0000000  0.0000000 -1.0000000 )


      isym =  7      90 deg rotation - cart. axis [0,0,-1]       

 cryst.   s( 7) = (     0         -1          0      )
                  (     1          0          0      )
                  (     0          0          1      )

 cart.    s( 7) = (  0.0000000  1.0000000  0.0000000 )
                  ( -1.0000000  0.0000000  0.0000000 )
                  (  0.0000000  0.0000000  1.0000000 )


      isym =  8      90 deg rotation - cart. axis [0,0,1]        

 cryst.   s( 8) = (     0          1          0      )
                  (    -1          0          0      )
                  (     0          0          1      )

 cart.    s( 8) = (  0.0000000 -1.0000000  0.0000000 )
                  (  1.0000000  0.0000000  0.0000000 )
                  (  0.0000000  0.0000000  1.0000000 )


      isym =  9     180 deg rotation - cart. axis [1,0,1]        

 cryst.   s( 9) = (     0          0          1      )
                  (     0         -1          0      )
                  (     1          0          0      )

 cart.    s( 9) = (  0.0000000  0.0000000  1.0000000 )
                  (  0.0000000 -1.0000000  0.0000000 )
                  (  1.0000000  0.0000000  0.0000000 )


      isym = 10     180 deg rotation - cart. axis [-1,0,1]       

 cryst.   s(10) = (     0          0         -1      )
                  (     0         -1          0      )
                  (    -1          0          0      )

 cart.    s(10) = (  0.0000000  0.0000000 -1.0000000 )
                  (  0.0000000 -1.0000000  0.0000000 )
                  ( -1.0000000  0.0000000  0.0000000 )


      isym = 11      90 deg rotation - cart. axis [0,1,0]        

 cryst.   s(11) = (     0          0         -1      )
                  (     0          1          0      )
                  (     1          0          0      )

 cart.    s(11) = (  0.0000000  0.0000000  1.0000000 )
                  (  0.0000000  1.0000000  0.0000000 )
                  ( -1.0000000  0.0000000  0.0000000 )


      isym = 12      90 deg rotation - cart. axis [0,-1,0]       

 cryst.   s(12) = (     0          0          1      )
                  (     0          1          0      )
                  (    -1          0          0      )

 cart.    s(12) = (  0.0000000  0.0000000 -1.0000000 )
                  (  0.0000000  1.0000000  0.0000000 )
                  (  1.0000000  0.0000000  0.0000000 )


      isym = 13     180 deg rotation - cart. axis [0,1,1]        

 cryst.   s(13) = (    -1          0          0      )
                  (     0          0          1      )
                  (     0          1          0      )

 cart.    s(13) = ( -1.0000000  0.0000000  0.0000000 )
                  (  0.0000000  0.0000000  1.0000000 )
                  (  0.0000000  1.0000000  0.0000000 )


      isym = 14     180 deg rotation - cart. axis [0,1,-1]       

 cryst.   s(14) = (    -1          0          0      )
                  (     0          0         -1      )
                  (     0         -1          0      )

 cart.    s(14) = ( -1.0000000  0.0000000  0.0000000 )
                  (  0.0000000  0.0000000 -1.0000000 )
                  (  0.0000000 -1.0000000  0.0000000 )


      isym = 15      90 deg rotation - cart. axis [-1,0,0]       

 cryst.   s(15) = (     1          0          0      )
                  (     0          0         -1      )
                  (     0          1          0      )

 cart.    s(15) = (  1.0000000  0.0000000  0.0000000 )
                  (  0.0000000  0.0000000  1.0000000 )
                  (  0.0000000 -1.0000000  0.0000000 )


      isym = 16      90 deg rotation - cart. axis [1,0,0]        

 cryst.   s(16) = (     1          0          0      )
                  (     0          0          1      )
                  (     0         -1          0      )

 cart.    s(16) = (  1.0000000  0.0000000  0.0000000 )
                  (  0.0000000  0.0000000 -1.0000000 )
                  (  0.0000000  1.0000000  0.0000000 )


      isym = 17     120 deg rotation - cart. axis [-1,-1,-1]     

 cryst.   s(17) = (     0          0          1      )
                  (     1          0          0      )
                  (     0          1          0      )

 cart.    s(17) = (  0.0000000  1.0000000  0.0000000 )
                  (  0.0000000  0.0000000  1.0000000 )
                  (  1.0000000  0.0000000  0.0000000 )


      isym = 18     120 deg rotation - cart. axis [-1,1,1]       

 cryst.   s(18) = (     0          0         -1      )
                  (    -1          0          0      )
                  (     0          1          0      )

 cart.    s(18) = (  0.0000000 -1.0000000  0.0000000 )
                  (  0.0000000  0.0000000  1.0000000 )
                  ( -1.0000000  0.0000000  0.0000000 )


      isym = 19     120 deg rotation - cart. axis [1,1,-1]       

 cryst.   s(19) = (     0          0         -1      )
                  (     1          0          0      )
                  (     0         -1          0      )

 cart.    s(19) = (  0.0000000  1.0000000  0.0000000 )
                  (  0.0000000  0.0000000 -1.0000000 )
                  ( -1.0000000  0.0000000  0.0000000 )


      isym = 20     120 deg rotation - cart. axis [1,-1,1]       

 cryst.   s(20) = (     0          0          1      )
                  (    -1          0          0      )
                  (     0         -1          0      )

 cart.    s(20) = (  0.0000000 -1.0000000  0.0000000 )
                  (  0.0000000  0.0000000 -1.0000000 )
                  (  1.0000000  0.0000000  0.0000000 )


      isym = 21     120 deg rotation - cart. axis [1,1,1]        

 cryst.   s(21) = (     0          1          0      )
                  (     0          0          1      )
                  (     1          0          0      )

 cart.    s(21) = (  0.0000000  0.0000000  1.0000000 )
                  (  1.0000000  0.0000000  0.0000000 )
                  (  0.0000000  1.0000000  0.0000000 )


      isym = 22     120 deg rotation - cart. axis [-1,1,-1]      

 cryst.   s(22) = (     0         -1          0      )
                  (     0          0         -1      )
                  (     1          0          0      )

 cart.    s(22) = (  0.0000000  0.0000000  1.0000000 )
                  ( -1.0000000  0.0000000  0.0000000 )
                  (  0.0000000 -1.0000000  0.0000000 )


      isym = 23     120 deg rotation - cart. axis [1,-1,-1]      

 cryst.   s(23) = (     0         -1          0      )
                  (     0          0          1      )
                  (    -1          0          0      )

 cart.    s(23) = (  0.0000000  0.0000000 -1.0000000 )
                  ( -1.0000000  0.0000000  0.0000000 )
                  (  0.0000000  1.0000000  0.0000000 )


      isym = 24     120 deg rotation - cart. axis [-1,-1,1]      

 cryst.   s(24) = (     0          1          0      )
                  (     0          0         -1      )
                  (    -1          0          0      )

 cart.    s(24) = (  0.0000000  0.0000000 -1.0000000 )
                  (  1.0000000  0.0000000  0.0000000 )
                  (  0.0000000 -1.0000000  0.0000000 )


      isym = 25     inversion                                    

 cryst.   s(25) = (    -1          0          0      )
                  (     0         -1          0      )
                  (     0          0         -1      )

 cart.    s(25) = ( -1.0000000  0.0000000  0.0000000 )
                  (  0.0000000 -1.0000000  0.0000000 )
                  (  0.0000000  0.0000000 -1.0000000 )


      isym = 26     inv. 180 deg rotation - cart. axis [0,0,1]   

 cryst.   s(26) = (     1          0          0      )
                  (     0          1          0      )
                  (     0          0         -1      )

 cart.    s(26) = (  1.0000000  0.0000000  0.0000000 )
                  (  0.0000000  1.0000000  0.0000000 )
                  (  0.0000000  0.0000000 -1.0000000 )


      isym = 27     inv. 180 deg rotation - cart. axis [0,1,0]   

 cryst.   s(27) = (     1          0          0      )
                  (     0         -1          0      )
                  (     0          0          1      )

 cart.    s(27) = (  1.0000000  0.0000000  0.0000000 )
                  (  0.0000000 -1.0000000  0.0000000 )
                  (  0.0000000  0.0000000  1.0000000 )


      isym = 28     inv. 180 deg rotation - cart. axis [1,0,0]   

 cryst.   s(28) = (    -1          0          0      )
                  (     0          1          0      )
                  (     0          0          1      )

 cart.    s(28) = ( -1.0000000  0.0000000  0.0000000 )
                  (  0.0000000  1.0000000  0.0000000 )
                  (  0.0000000  0.0000000  1.0000000 )


      isym = 29     inv. 180 deg rotation - cart. axis [1,1,0]   

 cryst.   s(29) = (     0         -1          0      )
                  (    -1          0          0      )
                  (     0          0          1      )

 cart.    s(29) = (  0.0000000 -1.0000000  0.0000000 )
                  ( -1.0000000  0.0000000  0.0000000 )
                  (  0.0000000  0.0000000  1.0000000 )


      isym = 30     inv. 180 deg rotation - cart. axis [1,-1,0]  

 cryst.   s(30) = (     0          1          0      )
                  (     1          0          0      )
                  (     0          0          1      )

 cart.    s(30) = (  0.0000000  1.0000000  0.0000000 )
                  (  1.0000000  0.0000000  0.0000000 )
                  (  0.0000000  0.0000000  1.0000000 )


      isym = 31     inv.  90 deg rotation - cart. axis [0,0,-1]  

 cryst.   s(31) = (     0          1          0      )
                  (    -1          0          0      )
                  (     0          0         -1      )

 cart.    s(31) = (  0.0000000 -1.0000000  0.0000000 )
                  (  1.0000000  0.0000000  0.0000000 )
                  (  0.0000000  0.0000000 -1.0000000 )


      isym = 32     inv.  90 deg rotation - cart. axis [0,0,1]   

 cryst.   s(32) = (     0         -1          0      )
                  (     1          0          0      )
                  (     0          0         -1      )

 cart.    s(32) = (  0.0000000  1.0000000  0.0000000 )
                  ( -1.0000000  0.0000000  0.0000000 )
                  (  0.0000000  0.0000000 -1.0000000 )


      isym = 33     inv. 180 deg rotation - cart. axis [1,0,1]   

 cryst.   s(33) = (     0          0         -1      )
                  (     0          1          0      )
                  (    -1          0          0      )

 cart.    s(33) = (  0.0000000  0.0000000 -1.0000000 )
                  (  0.0000000  1.0000000  0.0000000 )
                  ( -1.0000000  0.0000000  0.0000000 )


      isym = 34     inv. 180 deg rotation - cart. axis [-1,0,1]  

 cryst.   s(34) = (     0          0          1      )
                  (     0          1          0      )
                  (     1          0          0      )

 cart.    s(34) = (  0.0000000  0.0000000  1.0000000 )
                  (  0.0000000  1.0000000  0.0000000 )
                  (  1.0000000  0.0000000  0.0000000 )


      isym = 35     inv.  90 deg rotation - cart. axis [0,1,0]   

 cryst.   s(35) = (     0          0          1      )
                  (     0         -1          0      )
                  (    -1          0          0      )

 cart.    s(35) = (  0.0000000  0.0000000 -1.0000000 )
                  (  0.0000000 -1.0000000  0.0000000 )
                  (  1.0000000  0.0000000  0.0000000 )


      isym = 36     inv.  90 deg rotation - cart. axis [0,-1,0]  

 cryst.   s(36) = (     0          0         -1      )
                  (     0         -1          0      )
                  (     1          0          0      )

 cart.    s(36) = (  0.0000000  0.0000000  1.0000000 )
                  (  0.0000000 -1.0000000  0.0000000 )
                  ( -1.0000000  0.0000000  0.0000000 )


      isym = 37     inv. 180 deg rotation - cart. axis [0,1,1]   

 cryst.   s(37) = (     1          0          0      )
                  (     0          0         -1      )
                  (     0         -1          0      )

 cart.    s(37) = (  1.0000000  0.0000000  0.0000000 )
                  (  0.0000000  0.0000000 -1.0000000 )
                  (  0.0000000 -1.0000000  0.0000000 )


      isym = 38     inv. 180 deg rotation - cart. axis [0,1,-1]  

 cryst.   s(38) = (     1          0          0      )
                  (     0          0          1      )
                  (     0          1          0      )

 cart.    s(38) = (  1.0000000  0.0000000  0.0000000 )
                  (  0.0000000  0.0000000  1.0000000 )
                  (  0.0000000  1.0000000  0.0000000 )


      isym = 39     inv.  90 deg rotation - cart. axis [-1,0,0]  

 cryst.   s(39) = (    -1          0          0      )
                  (     0          0          1      )
                  (     0         -1          0      )

 cart.    s(39) = ( -1.0000000  0.0000000  0.0000000 )
                  (  0.0000000  0.0000000 -1.0000000 )
                  (  0.0000000  1.0000000  0.0000000 )


      isym = 40     inv.  90 deg rotation - cart. axis [1,0,0]   

 cryst.   s(40) = (    -1          0          0      )
                  (     0          0         -1      )
                  (     0          1          0      )

 cart.    s(40) = ( -1.0000000  0.0000000  0.0000000 )
                  (  0.0000000  0.0000000  1.0000000 )
                  (  0.0000000 -1.0000000  0.0000000 )


      isym = 41     inv. 120 deg rotation - cart. axis [-1,-1,-1]

 cryst.   s(41) = (     0          0         -1      )
                  (    -1          0          0      )
                  (     0         -1          0      )

 cart.    s(41) = (  0.0000000 -1.0000000  0.0000000 )
                  (  0.0000000  0.0000000 -1.0000000 )
                  ( -1.0000000  0.0000000  0.0000000 )


      isym = 42     inv. 120 deg rotation - cart. axis [-1,1,1]  

 cryst.   s(42) = (     0          0          1      )
                  (     1          0          0      )
                  (     0         -1          0      )

 cart.    s(42) = (  0.0000000  1.0000000  0.0000000 )
                  (  0.0000000  0.0000000 -1.0000000 )
                  (  1.0000000  0.0000000  0.0000000 )


      isym = 43     inv. 120 deg rotation - cart. axis [1,1,-1]  

 cryst.   s(43) = (     0          0          1      )
                  (    -1          0          0      )
                  (     0          1          0      )

 cart.    s(43) = (  0.0000000 -1.0000000  0.0000000 )
                  (  0.0000000  0.0000000  1.0000000 )
                  (  1.0000000  0.0000000  0.0000000 )


      isym = 44     inv. 120 deg rotation - cart. axis [1,-1,1]  

 cryst.   s(44) = (     0          0         -1      )
                  (     1          0          0      )
                  (     0          1          0      )

 cart.    s(44) = (  0.0000000  1.0000000  0.0000000 )
                  (  0.0000000  0.0000000  1.0000000 )
                  ( -1.0000000  0.0000000  0.0000000 )


      isym = 45     inv. 120 deg rotation - cart. axis [1,1,1]   

 cryst.   s(45) = (     0         -1          0      )
                  (     0          0         -1      )
                  (    -1          0          0      )

 cart.    s(45) = (  0.0000000  0.0000000 -1.0000000 )
                  ( -1.0000000  0.0000000  0.0000000 )
                  (  0.0000000 -1.0000000  0.0000000 )


      isym = 46     inv. 120 deg rotation - cart. axis [-1,1,-1] 

 cryst.   s(46) = (     0          1          0      )
                  (     0          0          1      )
                  (    -1          0          0      )

 cart.    s(46) = (  0.0000000  0.0000000 -1.0000000 )
                  (  1.0000000  0.0000000  0.0000000 )
                  (  0.0000000  1.0000000  0.0000000 )


      isym = 47     inv. 120 deg rotation - cart. axis [1,-1,-1] 

 cryst.   s(47) = (     0          1          0      )
                  (     0          0         -1      )
                  (     1          0          0      )

 cart.    s(47) = (  0.0000000  0.0000000  1.0000000 )
                  (  1.0000000  0.0000000  0.0000000 )
                  (  0.0000000 -1.0000000  0.0000000 )


      isym = 48     inv. 120 deg rotation - cart. axis [-1,-1,1] 

 cryst.   s(48) = (     0         -1          0      )
                  (     0          0          1      )
                  (     1          0          0      )

 cart.    s(48) = (  0.0000000  0.0000000  1.0000000 )
                  ( -1.0000000  0.0000000  0.0000000 )
                  (  0.0000000  1.0000000  0.0000000 )


   Cartesian axes

     site n.     atom                  positions (alat units)
         1           W   tau(   1) = (   0.5000000   0.5000000   0.5000000  )

   Crystallographic axes

     site n.     atom                  positions (cryst. coord.)
         1           W   tau(   1) = (  0.5000000  0.5000000  0.5000000  )

     number of k points=     1
                       cart. coord. in units 2pi/alat
        k(    1) = (   0.0000000   0.0000000   0.0000000), wk =   1.0000000

                       cryst. coord.
        k(    1) = (   0.0000000   0.0000000   0.0000000), wk =   1.0000000

     Dense  grid:  3690367 G-vectors     FFT dimensions: ( 243, 243, 243)

     Dynamical RAM for                 wfc:       2.64 MB

     Dynamical RAM for     wfc (w. buffer):       7.92 MB

     Dynamical RAM for           str. fact:       1.76 MB

     Dynamical RAM for           local pot:       0.00 MB

     Dynamical RAM for          nlocal pot:       2.86 MB

     Dynamical RAM for                qrad:       3.87 MB

     Dynamical RAM for          rho,v,vnew:      32.18 MB

     Dynamical RAM for               rhoin:      10.73 MB

     Dynamical RAM for            rho*nmix:      56.31 MB

     Dynamical RAM for           G-vectors:       7.48 MB

     Dynamical RAM for          h,s,v(r/c):       0.00 MB

     Dynamical RAM for          <psi|beta>:       0.00 MB

     Dynamical RAM for                 psi:      10.56 MB

     Dynamical RAM for                hpsi:      10.56 MB

     Dynamical RAM for      wfcinit/wfcrot:       7.05 MB

     Estimated static dynamical RAM per process >     148.25 MB

     Estimated max dynamical RAM per process >     169.37 MB

     Estimated total dynamical RAM >       5.29 GB
     Generating pointlists ...
     new r_m :   0.4125 (alat units)  9.3541 (a.u.) for type    1

     Initial potential from superposition of free atoms

     starting charge   11.30112, renormalised to   14.00000

     negative rho (up, down):  6.052E-03 0.000E+00
     Starting wfcs are   16 randomized atomic wfcs

     total cpu time spent up to now is        5.0 secs

     Self-consistent Calculation

     iteration #  1     ecut=   280.00 Ry     beta= 0.70
     Davidson diagonalization with overlap
     ethr =  1.00E-02,  avg # of iterations = 12.5

     negative rho (up, down):  2.000E-05 3.140E-02

     total cpu time spent up to now is       13.2 secs

     total energy              =    -127.10162033 Ry
     Harris-Foulkes estimate   =    -137.10215679 Ry
     estimated scf accuracy    <      12.94487721 Ry

     total magnetization       =     4.00 Bohr mag/cell
     absolute magnetization    =     4.13 Bohr mag/cell

     iteration #  2     ecut=   280.00 Ry     beta= 0.70
     Davidson diagonalization with overlap
     ethr =  1.00E-02,  avg # of iterations =  7.5

     negative rho (up, down):  1.173E-05 3.088E-02

     total cpu time spent up to now is       19.8 secs

     total energy              =    -134.76025587 Ry
     Harris-Foulkes estimate   =    -139.04932297 Ry
     estimated scf accuracy    <       7.41173608 Ry

     total magnetization       =     4.00 Bohr mag/cell
     absolute magnetization    =     4.00 Bohr mag/cell

     iteration #  3     ecut=   280.00 Ry     beta= 0.70
     Davidson diagonalization with overlap
     ethr =  1.00E-02,  avg # of iterations =  2.5

     negative rho (up, down):  1.037E-05 3.090E-02

     total cpu time spent up to now is       24.0 secs

     total energy              =    -134.93880087 Ry
     Harris-Foulkes estimate   =    -135.17505868 Ry
     estimated scf accuracy    <       1.51518287 Ry

     total magnetization       =     4.00 Bohr mag/cell
     absolute magnetization    =     4.00 Bohr mag/cell

     iteration #  4     ecut=   280.00 Ry     beta= 0.70
     Davidson diagonalization with overlap
     ethr =  1.00E-02,  avg # of iterations =  1.0

     negative rho (up, down):  1.096E-05 3.092E-02

     total cpu time spent up to now is       27.8 secs

     total energy              =    -135.22395746 Ry
     Harris-Foulkes estimate   =    -134.96572547 Ry
     estimated scf accuracy    <       0.82573817 Ry

     total magnetization       =     4.00 Bohr mag/cell
     absolute magnetization    =     4.12 Bohr mag/cell

     iteration #  5     ecut=   280.00 Ry     beta= 0.70
     Davidson diagonalization with overlap
     ethr =  5.90E-03,  avg # of iterations =  1.0

     negative rho (up, down):  1.092E-05 3.092E-02

     total cpu time spent up to now is       31.5 secs

     total energy              =    -135.26818451 Ry
     Harris-Foulkes estimate   =    -135.27350035 Ry
     estimated scf accuracy    <       1.67227673 Ry

     total magnetization       =     4.00 Bohr mag/cell
     absolute magnetization    =     4.00 Bohr mag/cell

     iteration #  6     ecut=   280.00 Ry     beta= 0.70
     Davidson diagonalization with overlap
     ethr =  5.90E-03,  avg # of iterations =  1.0

     negative rho (up, down):  1.064E-05 3.144E-02

     total cpu time spent up to now is       35.3 secs

     total energy              =    -135.19105307 Ry
     Harris-Foulkes estimate   =    -135.27181661 Ry
     estimated scf accuracy    <       1.67133336 Ry

     total magnetization       =     4.00 Bohr mag/cell
     absolute magnetization    =     4.00 Bohr mag/cell

     iteration #  7     ecut=   280.00 Ry     beta= 0.70
     Davidson diagonalization with overlap
     ethr =  5.90E-03,  avg # of iterations =  1.0

     negative rho (up, down):  1.046E-05 3.138E-02

     total cpu time spent up to now is       39.1 secs

     total energy              =    -135.17405341 Ry
     Harris-Foulkes estimate   =    -135.19596006 Ry
     estimated scf accuracy    <       1.56102725 Ry

     total magnetization       =     4.00 Bohr mag/cell
     absolute magnetization    =     4.01 Bohr mag/cell

     iteration #  8     ecut=   280.00 Ry     beta= 0.70
     Davidson diagonalization with overlap
     ethr =  5.90E-03,  avg # of iterations =  1.0

     negative rho (up, down):  9.204E-06 3.358E-02

     total cpu time spent up to now is       42.9 secs

     total energy              =    -134.76564475 Ry
     Harris-Foulkes estimate   =    -135.17579284 Ry
     estimated scf accuracy    <       1.52107262 Ry

     total magnetization       =     4.00 Bohr mag/cell
     absolute magnetization    =     4.02 Bohr mag/cell

     iteration #  9     ecut=   280.00 Ry     beta= 0.70
     Davidson diagonalization with overlap
     ethr =  5.90E-03,  avg # of iterations =  1.0

     negative rho (up, down):  5.563E-03 3.809E-02

     total cpu time spent up to now is       46.8 secs

     total energy              =    -134.46377835 Ry
     Harris-Foulkes estimate   =    -134.83548011 Ry
     estimated scf accuracy    <       0.82748714 Ry

     total magnetization       =     4.00 Bohr mag/cell
     absolute magnetization    =     4.47 Bohr mag/cell

     iteration # 10     ecut=   280.00 Ry     beta= 0.70
     Davidson diagonalization with overlap
     ethr =  5.90E-03,  avg # of iterations =  1.0

     negative rho (up, down):  1.722E-02 1.401E-01

     total cpu time spent up to now is       50.6 secs

     total energy              =    -134.20862910 Ry
     Harris-Foulkes estimate   =    -134.49073236 Ry
     estimated scf accuracy    <       0.70843850 Ry

     total magnetization       =     4.00 Bohr mag/cell
     absolute magnetization    =     4.40 Bohr mag/cell

     iteration # 11     ecut=   280.00 Ry     beta= 0.70
     Davidson diagonalization with overlap
     ethr =  5.06E-03,  avg # of iterations =  3.0

     negative rho (up, down):  1.102E-02 1.034E-01

     total cpu time spent up to now is       54.7 secs

     total energy              =    -134.33516216 Ry
     Harris-Foulkes estimate   =    -134.30129646 Ry
     estimated scf accuracy    <       0.70803368 Ry

     total magnetization       =     4.00 Bohr mag/cell
     absolute magnetization    =     4.14 Bohr mag/cell

     iteration # 12     ecut=   280.00 Ry     beta= 0.70
     Davidson diagonalization with overlap
     ethr =  5.06E-03,  avg # of iterations =  1.0

     negative rho (up, down):  3.855E-02 6.392E-02

     total cpu time spent up to now is       58.6 secs

     total energy              =    -134.07380895 Ry
     Harris-Foulkes estimate   =    -134.34007254 Ry
     estimated scf accuracy    <       0.59930534 Ry

     total magnetization       =     4.00 Bohr mag/cell
     absolute magnetization    =     4.12 Bohr mag/cell

     iteration # 13     ecut=   280.00 Ry     beta= 0.70
     Davidson diagonalization with overlap
     ethr =  4.28E-03,  avg # of iterations =  2.5

     negative rho (up, down):  1.695E-01 8.386E-02

     total cpu time spent up to now is       62.9 secs

     total energy              =    -134.45907019 Ry
     Harris-Foulkes estimate   =    -134.48167155 Ry
     estimated scf accuracy    <       0.77679222 Ry

     total magnetization       =     4.00 Bohr mag/cell
     absolute magnetization    =     4.03 Bohr mag/cell

     iteration # 14     ecut=   280.00 Ry     beta= 0.70
     Davidson diagonalization with overlap
     ethr =  4.28E-03,  avg # of iterations =  1.0

     negative rho (up, down):  4.141E-01 2.960E-01

     total cpu time spent up to now is       66.7 secs

     total energy              =    -134.76048827 Ry
     Harris-Foulkes estimate   =    -134.49548908 Ry
     estimated scf accuracy    <       1.44580649 Ry

     total magnetization       =     4.00 Bohr mag/cell
     absolute magnetization    =     4.05 Bohr mag/cell

     iteration # 15     ecut=   280.00 Ry     beta= 0.70
     Davidson diagonalization with overlap
     ethr =  4.28E-03,  avg # of iterations =  2.5

     negative rho (up, down):  5.537E-02 5.278E-02

     total cpu time spent up to now is       70.7 secs

     total energy              =    -134.38258980 Ry
     Harris-Foulkes estimate   =    -134.85600468 Ry
     estimated scf accuracy    <       2.93857237 Ry

     total magnetization       =     4.00 Bohr mag/cell
     absolute magnetization    =     4.04 Bohr mag/cell

     iteration # 16     ecut=   280.00 Ry     beta= 0.70
     Davidson diagonalization with overlap
     ethr =  4.28E-03,  avg # of iterations =  1.5

     negative rho (up, down):  9.843E-06 2.298E-02

     total cpu time spent up to now is       74.7 secs

     total energy              =    -134.51181947 Ry
     Harris-Foulkes estimate   =    -134.50166373 Ry
     estimated scf accuracy    <       1.01836430 Ry

     total magnetization       =     4.00 Bohr mag/cell
     absolute magnetization    =     4.02 Bohr mag/cell

     iteration # 17     ecut=   280.00 Ry     beta= 0.70
     Davidson diagonalization with overlap
     ethr =  4.28E-03,  avg # of iterations =  2.5

     negative rho (up, down):  9.813E-06 1.600E-02

     total cpu time spent up to now is       79.0 secs

     total energy              =    -134.68348095 Ry
     Harris-Foulkes estimate   =    -134.72104689 Ry
     estimated scf accuracy    <       0.15274899 Ry

     total magnetization       =     4.00 Bohr mag/cell
     absolute magnetization    =     4.01 Bohr mag/cell

     iteration # 18     ecut=   280.00 Ry     beta= 0.70
     Davidson diagonalization with overlap
     ethr =  1.09E-03,  avg # of iterations =  1.0

     negative rho (up, down):  3.681E-06 1.014E-02

     total cpu time spent up to now is       82.8 secs

     total energy              =    -134.67995609 Ry
     Harris-Foulkes estimate   =    -134.69506283 Ry
     estimated scf accuracy    <       0.08591855 Ry

     total magnetization       =     4.00 Bohr mag/cell
     absolute magnetization    =     4.02 Bohr mag/cell

     iteration # 19     ecut=   280.00 Ry     beta= 0.70
     Davidson diagonalization with overlap
     ethr =  6.14E-04,  avg # of iterations =  1.0

     negative rho (up, down):  1.956E-06 6.180E-03

     total cpu time spent up to now is       86.6 secs

     total energy              =    -134.67448186 Ry
     Harris-Foulkes estimate   =    -134.68304344 Ry
     estimated scf accuracy    <       0.04305908 Ry

     total magnetization       =     4.00 Bohr mag/cell
     absolute magnetization    =     4.03 Bohr mag/cell

     iteration # 20     ecut=   280.00 Ry     beta= 0.70
     Davidson diagonalization with overlap
     ethr =  3.08E-04,  avg # of iterations =  2.0

     negative rho (up, down):  6.458E-09 4.255E-03

     total cpu time spent up to now is       90.6 secs

     total energy              =    -134.68172792 Ry
     Harris-Foulkes estimate   =    -134.68099324 Ry
     estimated scf accuracy    <       0.00875155 Ry

     total magnetization       =     4.00 Bohr mag/cell
     absolute magnetization    =     4.10 Bohr mag/cell

     iteration # 21     ecut=   280.00 Ry     beta= 0.70
     Davidson diagonalization with overlap
     ethr =  6.25E-05,  avg # of iterations =  4.5

     negative rho (up, down):  8.207E-09 4.682E-03

     total cpu time spent up to now is       95.8 secs

     total energy              =    -134.68810700 Ry
     Harris-Foulkes estimate   =    -134.68755679 Ry
     estimated scf accuracy    <       0.00413344 Ry

     total magnetization       =     4.00 Bohr mag/cell
     absolute magnetization    =     4.19 Bohr mag/cell

     iteration # 22     ecut=   280.00 Ry     beta= 0.70
     Davidson diagonalization with overlap
     ethr =  2.95E-05,  avg # of iterations =  7.0

     negative rho (up, down):  6.999E-10 2.341E-03

     total cpu time spent up to now is      100.4 secs

     total energy              =    -134.69100976 Ry
     Harris-Foulkes estimate   =    -134.68824911 Ry
     estimated scf accuracy    <       0.00189071 Ry

     total magnetization       =     4.00 Bohr mag/cell
     absolute magnetization    =     4.20 Bohr mag/cell

     iteration # 23     ecut=   280.00 Ry     beta= 0.70
     Davidson diagonalization with overlap
     ethr =  1.35E-05,  avg # of iterations =  4.0

     negative rho (up, down):  3.680E-11 1.290E-03

     total cpu time spent up to now is      105.0 secs

     total energy              =    -134.69323432 Ry
     Harris-Foulkes estimate   =    -134.69246912 Ry
     estimated scf accuracy    <       0.00039507 Ry

     total magnetization       =     4.00 Bohr mag/cell
     absolute magnetization    =     4.28 Bohr mag/cell

     iteration # 24     ecut=   280.00 Ry     beta= 0.70
     Davidson diagonalization with overlap
     ethr =  2.82E-06,  avg # of iterations = 12.0

     negative rho (up, down):  2.985E-10 2.095E-03

     total cpu time spent up to now is      111.0 secs

     total energy              =    -134.69384941 Ry
     Harris-Foulkes estimate   =    -134.69375131 Ry
     estimated scf accuracy    <       0.00022737 Ry

     total magnetization       =     4.00 Bohr mag/cell
     absolute magnetization    =     4.33 Bohr mag/cell

     iteration # 25     ecut=   280.00 Ry     beta= 0.70
     Davidson diagonalization with overlap
     ethr =  1.62E-06,  avg # of iterations =  2.0

     negative rho (up, down):  2.970E-11 1.445E-03

     total cpu time spent up to now is      115.1 secs

     total energy              =    -134.69392516 Ry
     Harris-Foulkes estimate   =    -134.69391277 Ry
     estimated scf accuracy    <       0.00004050 Ry

     total magnetization       =     4.00 Bohr mag/cell
     absolute magnetization    =     4.35 Bohr mag/cell

     iteration # 26     ecut=   280.00 Ry     beta= 0.70
     Davidson diagonalization with overlap
     ethr =  2.89E-07,  avg # of iterations =  3.5

     negative rho (up, down):  8.322E-14 3.189E-04

     total cpu time spent up to now is      119.2 secs

     total energy              =    -134.69393993 Ry
     Harris-Foulkes estimate   =    -134.69393774 Ry
     estimated scf accuracy    <       0.00000937 Ry

     total magnetization       =     4.00 Bohr mag/cell
     absolute magnetization    =     4.35 Bohr mag/cell

     iteration # 27     ecut=   280.00 Ry     beta= 0.70
     Davidson diagonalization with overlap
     ethr =  6.70E-08,  avg # of iterations =  3.5

     total cpu time spent up to now is      123.6 secs

     total energy              =    -134.69394408 Ry
     Harris-Foulkes estimate   =    -134.69394209 Ry
     estimated scf accuracy    <       0.00000182 Ry

     total magnetization       =     4.00 Bohr mag/cell
     absolute magnetization    =     4.35 Bohr mag/cell

     iteration # 28     ecut=   280.00 Ry     beta= 0.70
     Davidson diagonalization with overlap
     ethr =  1.30E-08,  avg # of iterations =  3.0
 
     Magnetic moment per site:
     atom:    1    charge:   13.9994    magn:    4.0001    constr:    0.0000

     total cpu time spent up to now is      127.4 secs

     End of self-consistent calculation

 ------ SPIN UP ------------


          k = 0.0000 0.0000 0.0000 (461165 PWs)   bands (ev):

   -77.8041 -42.9053 -42.8766 -42.8762  -5.7615  -4.7945  -4.7938  -4.7764
    -4.7763  -3.9279  -1.2480  -1.2478

     occupation numbers 
     1.0000   1.0000   1.0000   1.0000   1.0000   1.0000   1.0000   1.0000
     1.0000   0.0000   0.0000   0.0000

 ------ SPIN DOWN ----------


          k = 0.0000 0.0000 0.0000 (461165 PWs)   bands (ev):

   -76.2574 -41.3604 -40.5171 -40.5166  -4.4839  -2.8905  -2.2494  -2.2482
    -1.7672  -1.7665  -0.8713  -0.2241

     occupation numbers 
     1.0000   1.0000   1.0000   1.0000   1.0000   0.0000   0.0000   0.0000
     0.0000   0.0000   0.0000   0.0000

     highest occupied, lowest unoccupied level (ev):    -4.4839   -3.9279

!    total energy              =    -134.69394553 Ry
     Harris-Foulkes estimate   =    -134.69394543 Ry
     estimated scf accuracy    <       0.00000059 Ry

     The total energy is the sum of the following terms:

     one-electron contribution =    -177.77630243 Ry
     hartree contribution      =      82.76765053 Ry
     xc contribution           =     -15.16188534 Ry
     ewald contribution        =     -24.52340829 Ry

     total magnetization       =     4.00 Bohr mag/cell
     absolute magnetization    =     4.36 Bohr mag/cell

     convergence has been achieved in  28 iterations

     Writing output data file pwscf.save/
 
     init_run     :      4.39s CPU      4.77s WALL (       1 calls)
     electrons    :    120.74s CPU    122.80s WALL (       1 calls)

     Called by init_run:
     wfcinit      :      0.98s CPU      1.09s WALL (       1 calls)
     wfcinit:atom :      0.01s CPU      0.02s WALL (       2 calls)
     wfcinit:wfcr :      0.94s CPU      1.04s WALL (       2 calls)
     potinit      :      1.25s CPU      1.31s WALL (       1 calls)
     hinit0       :      0.14s CPU      0.31s WALL (       1 calls)

     Called by electrons:
     c_bands      :     57.16s CPU     57.97s WALL (      28 calls)
     sum_band     :     19.46s CPU     19.53s WALL (      28 calls)
     v_of_rho     :     32.84s CPU     33.72s WALL (      29 calls)
     v_h          :      2.47s CPU      2.50s WALL (      29 calls)
     v_xc         :     30.37s CPU     31.22s WALL (      29 calls)
     mix_rho      :     11.28s CPU     11.40s WALL (      28 calls)

     Called by c_bands:
     init_us_2    :      0.64s CPU      0.65s WALL (     114 calls)
     regterg      :     56.03s CPU     56.81s WALL (      56 calls)

     Called by sum_band:

     Called by *egterg:
     h_psi        :     52.19s CPU     52.43s WALL (     232 calls)
     g_psi        :      0.17s CPU      0.17s WALL (     174 calls)
     rdiaghg      :      0.25s CPU      0.29s WALL (     230 calls)
     regterg:over :      1.10s CPU      1.11s WALL (     174 calls)
     regterg:upda :      1.64s CPU      1.66s WALL (     174 calls)
     regterg:last :      0.64s CPU      0.64s WALL (      64 calls)
     rdiaghg:chol :      0.06s CPU      0.07s WALL (     230 calls)
     rdiaghg:inve :      0.01s CPU      0.01s WALL (     230 calls)
     rdiaghg:para :      0.03s CPU      0.03s WALL (     460 calls)

     Called by h_psi:
     h_psi:pot    :     51.84s CPU     52.08s WALL (     232 calls)
     h_psi:calbec :      0.46s CPU      0.51s WALL (     232 calls)
     vloc_psi     :     50.95s CPU     51.13s WALL (     232 calls)
     add_vuspsi   :      0.43s CPU      0.43s WALL (     232 calls)

     General routines
     calbec       :      0.46s CPU      0.51s WALL (     232 calls)
     fft          :     28.36s CPU     28.71s WALL (     431 calls)
     ffts         :      2.76s CPU      2.78s WALL (      56 calls)
     fftw         :     50.74s CPU     50.93s WALL (    2234 calls)
 
     Parallel routines
     fft_scatt_xy :     20.48s CPU     20.51s WALL (    2721 calls)
     fft_scatt_yz :     25.37s CPU     25.64s WALL (    2721 calls)
 
     PWSCF        :   2m 5.38s CPU   2m 8.74s WALL

 
   This run was terminated on:  19:45:29  17Jan2022            

=------------------------------------------------------------------------------=
   JOB DONE.
=------------------------------------------------------------------------------=
