
 Primary working directories    : /global/cscratch1/sd/haihan
 Secondary working directories  : /global/cscratch1/sd/haihan
 Wavefunction directory         : /global/homes/h/haihan/wfu/
 Main file repository           : /global/cscratch1/sd/haihan/

 SHA1      : 19cd028119e0e09f93f0674bd8af7968d9b3eff6
 NAME      : 2015.1.36
 ARCHNAME  : linux/x86_64
 FC        : /opt/cray/pe/craype/2.5.14/bin/ftn
 BLASLIB   : -L/opt/intel/compilers_and_libraries_2018.1.163/linux/mkl/lib/intel64 -Wl,-_start-group -lmkl_intel_ilp64 -lmkl_intel_thread -lmkl_core -Wl,-_end-group -liomp5
 id        : lbl

 Nodes     nprocs
 nid00922    15
 Number of processes for MPI-2 version of Molpro:   nprocs(total)=   16   nprocs(compute)=   15   nprocs(helper)=    1

 Using customized tuning parameters: mindgm=7; mindgv=16; mindgc=1; mindgr=1; noblas=0; minvec=7
 default implementation of scratch files=sf  

 ***,W
 memory,512,m
 
 gthresh,twoint=1.e-12
 gprint,basis,orbitals
 
 angstrom
 geometry={
 1                                                                               ! Number of atoms
 W 0.0 0.0 0.0
 }
 
 basis={
 Including file /global/u2/h/haihan/Research/HZECP/W_basis/check_contractions_QZ/ecp.molpro
 Including file /global/u2/h/haihan/Research/HZECP/W_basis/check_contractions_QZ/basis.molpro
 }
 
 {rhf
  start,atden
  print,orbitals=2
  wf,14,1,4
  occ,3,1,1,1,1,1,1,0
  closed,2,1,1,0,1,0,0,0
  sym,1,1,1,3,2
  orbital,4202.2
 }
 pop
 {multi
  start,4202.2
  occ,4,1,1,1,1,1,1,0
  closed,2,1,1,0,1,0,0,0
  wf,14,1,4;state,2
  wf,14,4,4;state,1
  wf,14,6,4;state,1
  wf,14,7,4;state,1
  natorb,ci,print
  orbital,5202.2
 }
 {rhf,nitord=1,maxit=0
  start,5202.2
  wf,14,1,4
  occ,3,1,1,1,1,1,1,0
  closed,2,1,1,0,1,0,0,0
 }
 {ci;maxit,100;core,1,1,1,0,1,0,0,0
  natorb,ci,print=15
 
 }

 Variables initialized (889), CPU time= 0.01 sec
 Commands  initialized (702), CPU time= 0.01 sec, 572 directives.
 Default parameters read. Elapsed time= 0.13 sec

 Checking input...
 Passed
1


                                         ***  PROGRAM SYSTEM MOLPRO  ***
                                       Copyright, TTI GmbH Stuttgart, 2015
                                    Version 2015.1 linked Dec 29 2018 15:55:43


 **********************************************************************************************************************************
 LABEL *   W                                                                             
  64 bit mpp version                                                                     DATE: 08-Dec-21          TIME: 15:07:38  
 **********************************************************************************************************************************

 SHA1:             19cd028119e0e09f93f0674bd8af7968d9b3eff6
 **********************************************************************************************************************************

 THRESHOLDS:

 ZERO    =  1.00D-12  ONEINT  =  1.00D-12  TWOINT  =  1.00D-12  PREFAC  =  1.00D-14  LOCALI  =  1.00D-09  EORDER  =  1.00D-04
 ENERGY  =  0.00D+00  ETEST   =  0.00D+00  EDENS   =  0.00D+00  THRDEDEF=  1.00D-06  GRADIENT=  1.00D-02  STEP    =  1.00D-03
 ORBITAL =  1.00D-05  CIVEC   =  1.00D-05  COEFF   =  1.00D-04  PRINTCI =  5.00D-02  PUNCHCI =  9.90D+01  OPTGRAD =  3.00D-04
 OPTENERG=  1.00D-06  OPTSTEP =  3.00D-04  THRGRAD =  1.00D-10  COMPRESS=  1.00D-11  VARMIN  =  1.00D-07  VARMAX  =  1.00D-03
 THRDOUB =  0.00D+00  THRDIV  =  1.00D-05  THRRED  =  1.00D-07  THRPSP  =  1.00D+00  THRDC   =  1.00D-10  THRCS   =  1.00D-10
 THRNRM  =  1.00D-08  THREQ   =  0.00D+00  THRDE   =  1.00D+00  THRREF  =  1.00D-05  SPARFAC =  1.00D+00  THRDLP  =  1.00D-07
 THRDIA  =  1.00D-10  THRDLS  =  1.00D-07  THRGPS  =  0.00D+00  THRKEX  =  0.00D+00  THRDIS  =  2.00D-01  THRVAR  =  1.00D-10
 THRLOC  =  1.00D-06  THRGAP  =  1.00D-06  THRLOCT = -1.00D+00  THRGAPT = -1.00D+00  THRORB  =  1.00D-06  THRMLTP =  0.00D+00
 THRCPQCI=  1.00D-10  KEXTA   =  0.00D+00  THRCOARS=  0.00D+00  SYMTOL  =  1.00D-06  GRADTOL =  1.00D-06  THROVL  =  1.00D-08
 THRORTH =  1.00D-08  GRID    =  1.00D-06  GRIDMAX =  1.00D-03  DTMAX   =  0.00D+00  THROCCDE=  1.00D-01  THROCCDE=  1.00D-01



 ZUNIT=ANG
 

Geometry recognized as XYZ


 Variable memory set to  512000000 words,  buffer space   230000 words

 SETTING BASIS          =    USERDEF


 Recomputing integrals since basis changed


 Using spherical harmonics



 PROGRAM * SEWARD (Integral evaluation for generally contracted gaussian basis sets)     Author: Roland Lindh, 1990

 Geometry written to block  1 of record 700

 Orientation using atomic masses  
 Molecule type: Atom
 Symmetry elements: X,Y,Z
 Rotational constants:       0.0000000      0.0000000      0.0000000 GHz  (calculated with average atomic masses)

 Point group  D2h 



 ATOMIC COORDINATES

 NR  ATOM    CHARGE       X              Y              Z

   1  W      14.00    0.000000000    0.000000000    0.000000000


          W   CORE POTENTIAL

          g POTENTIAL

 POWERS             1              3              2              2
 EXPONENTIALS   10.18896       9.478240       10.14688       5.491651    
 COEFFICIENTS   14.00000       142.6454      -100.0787     -0.9415780    

          s - g POTENTIAL

 POWERS             2              2
 EXPONENTIALS   11.27396       8.410924    
 COEFFICIENTS   420.4798       39.58494    

          p - g POTENTIAL

 POWERS             2              2              4
 EXPONENTIALS   8.517824       1.608091       10.07349    
 COEFFICIENTS   320.8772     -0.4728210      0.1129290    

          d - g POTENTIAL

 POWERS             2              2              4
 EXPONENTIALS   6.059286       1.104853       6.262477    
 COEFFICIENTS   158.0780     -0.2832990     -0.4594900    

          f - g POTENTIAL

 POWERS             2              2
 EXPONENTIALS   2.075342       1.845947    
 COEFFICIENTS   7.745405       6.916005    


 BASIS DATA

   Nr Sym  Nuc  Type         Exponents   Contraction coefficients

    1.1 Ag    1  1s          74.376481    -0.001943    0.000543   -0.000723    0.001189   -0.003448
    2.1 Ag                   39.115990     0.017833   -0.005268    0.007492   -0.012299    0.012403
    3.1 Ag                   20.571835    -0.117540    0.036666   -0.054596    0.090706    0.012715
    4.1 Ag                   10.819115     0.471463   -0.153622    0.233521   -0.397491   -0.193600
    5.1 Ag                    5.689976    -0.655046    0.225025   -0.341100    0.605795    0.057617
                              2.992465    -0.399173    0.140074   -0.249111    0.501906    1.980190
                              1.573794     0.440734   -0.169850    0.263863   -0.857207   -3.521248
                              0.827688     0.743098   -0.392735    0.951309   -2.459031   -1.542366
                              0.435297     0.261234   -0.230076    0.314455    3.142185    9.303153
                              0.228931     0.028154    0.050209   -1.462869    1.378958   -9.669727
                              0.120399    -0.001891    0.441577   -0.753064   -2.606927    2.092967
                              0.063320     0.001524    0.452557    0.479974   -0.912496    3.747935
                              0.033301    -0.000367    0.285977    0.913763    1.669934   -2.554118
    6.1 Ag    1  3d0         61.907933    -0.000024
                             32.585172     0.000233
                             17.151169    -0.002245
                              9.027499     0.020877
                              4.751614    -0.090172
                              2.501007     0.023170
                              1.316402     0.205899
                              0.692887     0.321552
                              0.364700     0.323472
                              0.191960     0.230789
                              0.101038     0.111668
                              0.053181     0.026522
                              0.027992     0.001600
    7.1 Ag    1  3d2+        61.907933    -0.000024
                             32.585172     0.000233
                             17.151169    -0.002245
                              9.027499     0.020877
                              4.751614    -0.090172
                              2.501007     0.023170
                              1.316402     0.205899
                              0.692887     0.321552
                              0.364700     0.323472
                              0.191960     0.230789
                              0.101038     0.111668
                              0.053181     0.026522
                              0.027992     0.001600
    8.1 Ag    1  3d0         61.907933     0.000005
                             32.585172    -0.000160
                             17.151169     0.002296
                              9.027499    -0.024432
                              4.751614     0.112596
                              2.501007    -0.039514
                              1.316402    -0.295539
                              0.692887    -0.461445
                              0.364700    -0.080208
                              0.191960     0.499620
                              0.101038     0.418172
                              0.053181     0.115203
                              0.027992     0.006691
    9.1 Ag    1  3d2+        61.907933     0.000005
                             32.585172    -0.000160
                             17.151169     0.002296
                              9.027499    -0.024432
                              4.751614     0.112596
                              2.501007    -0.039514
                              1.316402    -0.295539
                              0.692887    -0.461445
                              0.364700    -0.080208
                              0.191960     0.499620
                              0.101038     0.418172
                              0.053181     0.115203
                              0.027992     0.006691
   10.1 Ag    1  3d0         61.907933    -0.000179
                             32.585172     0.000632
                             17.151169     0.000545
                              9.027499    -0.026852
                              4.751614     0.145145
                              2.501007    -0.035419
                              1.316402    -0.610909
                              0.692887    -0.499162
                              0.364700     1.209396
                              0.191960     0.263814
                              0.101038    -0.665665
                              0.053181    -0.302443
                              0.027992    -0.034465
   11.1 Ag    1  3d2+        61.907933    -0.000179
                             32.585172     0.000632
                             17.151169     0.000545
                              9.027499    -0.026852
                              4.751614     0.145145
                              2.501007    -0.035419
                              1.316402    -0.610909
                              0.692887    -0.499162
                              0.364700     1.209396
                              0.191960     0.263814
                              0.101038    -0.665665
                              0.053181    -0.302443
                              0.027992    -0.034465
   12.1 Ag    1  3d0         61.907933    -0.001192
                             32.585172     0.005075
                             17.151169    -0.011115
                              9.027499    -0.011167
                              4.751614     0.167220
                              2.501007     0.015095
                              1.316402    -1.515591
                              0.692887     1.242898
                              0.364700     1.191021
                              0.191960    -2.283323
                              0.101038     0.787104
                              0.053181     0.389678
                              0.027992     0.120442
   13.1 Ag    1  3d2+        61.907933    -0.001192
                             32.585172     0.005075
                             17.151169    -0.011115
                              9.027499    -0.011167
                              4.751614     0.167220
                              2.501007     0.015095
                              1.316402    -1.515591
                              0.692887     1.242898
                              0.364700     1.191021
                              0.191960    -2.283323
                              0.101038     0.787104
                              0.053181     0.389678
                              0.027992     0.120442
    1.2 B3u   1  2px         70.819882    -0.000490    0.000163    0.000303   -0.000287   -0.003145
    2.2 B3u                  37.221301     0.003813   -0.001343   -0.002446   -0.000323    0.012985
    3.2 B3u                  19.562660    -0.025616    0.009623    0.017437    0.019041   -0.015558
    4.2 B3u                  10.281684     0.138740   -0.054556   -0.100369   -0.154508   -0.104533
    5.2 B3u                   5.403817    -0.324560    0.133038    0.254215    0.432420    0.377080
                              2.840122    -0.052031    0.016039    0.008313    0.127307    0.719006
                              1.492703     0.389641   -0.166103   -0.306300   -1.400487   -4.461602
                              0.784530     0.505922   -0.285080   -0.886702   -0.505955    6.226316
                              0.412331     0.253444   -0.196871    0.536764    3.530620   -3.033959
                              0.216712     0.053377    0.313765    1.436864   -2.620064   -2.069095
                              0.113899     0.005287    0.600814   -0.560326   -0.404750    4.178160
                              0.059863     0.001309    0.278010   -0.664182    0.899083   -2.215449
                              0.031462    -0.000050    0.026886   -0.091688    0.172905    0.040468
    1.3 B2u   1  2py         70.819882    -0.000490    0.000163    0.000303   -0.000287   -0.003145
    2.3 B2u                  37.221301     0.003813   -0.001343   -0.002446   -0.000323    0.012985
    3.3 B2u                  19.562660    -0.025616    0.009623    0.017437    0.019041   -0.015558
    4.3 B2u                  10.281684     0.138740   -0.054556   -0.100369   -0.154508   -0.104533
    5.3 B2u                   5.403817    -0.324560    0.133038    0.254215    0.432420    0.377080
                              2.840122    -0.052031    0.016039    0.008313    0.127307    0.719006
                              1.492703     0.389641   -0.166103   -0.306300   -1.400487   -4.461602
                              0.784530     0.505922   -0.285080   -0.886702   -0.505955    6.226316
                              0.412331     0.253444   -0.196871    0.536764    3.530620   -3.033959
                              0.216712     0.053377    0.313765    1.436864   -2.620064   -2.069095
                              0.113899     0.005287    0.600814   -0.560326   -0.404750    4.178160
                              0.059863     0.001309    0.278010   -0.664182    0.899083   -2.215449
                              0.031462    -0.000050    0.026886   -0.091688    0.172905    0.040468
    1.4 B1g   1  3d2-        61.907933    -0.000024    0.000005   -0.000179   -0.001192
    2.4 B1g                  32.585172     0.000233   -0.000160    0.000632    0.005075
    3.4 B1g                  17.151169    -0.002245    0.002296    0.000545   -0.011115
    4.4 B1g                   9.027499     0.020877   -0.024432   -0.026852   -0.011167
                              4.751614    -0.090172    0.112596    0.145145    0.167220
                              2.501007     0.023170   -0.039514   -0.035419    0.015095
                              1.316402     0.205899   -0.295539   -0.610909   -1.515591
                              0.692887     0.321552   -0.461445   -0.499162    1.242898
                              0.364700     0.323472   -0.080208    1.209396    1.191021
                              0.191960     0.230789    0.499620    0.263814   -2.283323
                              0.101038     0.111668    0.418172   -0.665665    0.787104
                              0.053181     0.026522    0.115203   -0.302443    0.389678
                              0.027992     0.001600    0.006691   -0.034465    0.120442
    1.5 B1u   1  2pz         70.819882    -0.000490    0.000163    0.000303   -0.000287   -0.003145
    2.5 B1u                  37.221301     0.003813   -0.001343   -0.002446   -0.000323    0.012985
    3.5 B1u                  19.562660    -0.025616    0.009623    0.017437    0.019041   -0.015558
    4.5 B1u                  10.281684     0.138740   -0.054556   -0.100369   -0.154508   -0.104533
    5.5 B1u                   5.403817    -0.324560    0.133038    0.254215    0.432420    0.377080
                              2.840122    -0.052031    0.016039    0.008313    0.127307    0.719006
                              1.492703     0.389641   -0.166103   -0.306300   -1.400487   -4.461602
                              0.784530     0.505922   -0.285080   -0.886702   -0.505955    6.226316
                              0.412331     0.253444   -0.196871    0.536764    3.530620   -3.033959
                              0.216712     0.053377    0.313765    1.436864   -2.620064   -2.069095
                              0.113899     0.005287    0.600814   -0.560326   -0.404750    4.178160
                              0.059863     0.001309    0.278010   -0.664182    0.899083   -2.215449
                              0.031462    -0.000050    0.026886   -0.091688    0.172905    0.040468
    1.6 B2g   1  3d1+        61.907933    -0.000024    0.000005   -0.000179   -0.001192
    2.6 B2g                  32.585172     0.000233   -0.000160    0.000632    0.005075
    3.6 B2g                  17.151169    -0.002245    0.002296    0.000545   -0.011115
    4.6 B2g                   9.027499     0.020877   -0.024432   -0.026852   -0.011167
                              4.751614    -0.090172    0.112596    0.145145    0.167220
                              2.501007     0.023170   -0.039514   -0.035419    0.015095
                              1.316402     0.205899   -0.295539   -0.610909   -1.515591
                              0.692887     0.321552   -0.461445   -0.499162    1.242898
                              0.364700     0.323472   -0.080208    1.209396    1.191021
                              0.191960     0.230789    0.499620    0.263814   -2.283323
                              0.101038     0.111668    0.418172   -0.665665    0.787104
                              0.053181     0.026522    0.115203   -0.302443    0.389678
                              0.027992     0.001600    0.006691   -0.034465    0.120442
    1.7 B3g   1  3d1-        61.907933    -0.000024    0.000005   -0.000179   -0.001192
    2.7 B3g                  32.585172     0.000233   -0.000160    0.000632    0.005075
    3.7 B3g                  17.151169    -0.002245    0.002296    0.000545   -0.011115
    4.7 B3g                   9.027499     0.020877   -0.024432   -0.026852   -0.011167
                              4.751614    -0.090172    0.112596    0.145145    0.167220
                              2.501007     0.023170   -0.039514   -0.035419    0.015095
                              1.316402     0.205899   -0.295539   -0.610909   -1.515591
                              0.692887     0.321552   -0.461445   -0.499162    1.242898
                              0.364700     0.323472   -0.080208    1.209396    1.191021
                              0.191960     0.230789    0.499620    0.263814   -2.283323
                              0.101038     0.111668    0.418172   -0.665665    0.787104
                              0.053181     0.026522    0.115203   -0.302443    0.389678
                              0.027992     0.001600    0.006691   -0.034465    0.120442

 NUCLEAR CHARGE:                   14
 NUMBER OF PRIMITIVE AOS:         130
 NUMBER OF SYMMETRY AOS:          117
 NUMBER OF CONTRACTIONS:           40   (  13Ag  +   5B3u +   5B2u +   4B1g +   5B1u +   4B2g +   4B3g +   0Au  )
 NUMBER OF CORE ORBITALS:           4   (   1Ag  +   1B3u +   1B2u +   0B1g +   1B1u +   0B2g +   0B3g +   0Au  )
 NUMBER OF VALENCE ORBITALS:        6   (   3Ag  +   0B3u +   0B2u +   1B1g +   0B1u +   1B2g +   1B3g +   0Au  )


 NUCLEAR REPULSION ENERGY    0.00000000

 EXTRA SYMMETRY OF AOS IN SYMMETRY 1:   1 1 1 1 1 2 3 2 3 2   3 2 3

 Eigenvalues of metric

         1 0.982E+00 0.994E+00 0.994E+00 0.999E+00 0.100E+01 0.100E+01 0.100E+01 0.100E+01
         2 0.999E+00 0.100E+01 0.100E+01 0.100E+01 0.100E+01
         3 0.999E+00 0.100E+01 0.100E+01 0.100E+01 0.100E+01
         4 0.994E+00 0.100E+01 0.100E+01 0.101E+01
         5 0.999E+00 0.100E+01 0.100E+01 0.100E+01 0.100E+01
         6 0.994E+00 0.100E+01 0.100E+01 0.101E+01
         7 0.994E+00 0.100E+01 0.100E+01 0.101E+01


 Contracted 2-electron integrals neglected if value below      1.0D-12
 AO integral compression algorithm  1   Integral accuracy      1.0D-12

     3.932 MB (compressed) written to integral file (100.0%)

     Node minimum: 0.262 MB, node maximum: 0.262 MB


 NUMBER OF SORTED TWO-ELECTRON INTEGRALS:       3216.     BUFFER LENGTH:  32768
 NUMBER OF SEGMENTS:   1  SEGMENT LENGTH:       3216      RECORD LENGTH: 524288

 Memory used in sort:       0.56 MW

 SORT1 READ      141372. AND WROTE        2859. INTEGRALS IN      1 RECORDS. CPU TIME:     0.39 SEC, REAL TIME:     0.54 SEC
 SORT2 READ       44321. AND WROTE       49957. INTEGRALS IN     15 RECORDS. CPU TIME:     0.01 SEC, REAL TIME:     0.02 SEC

 Node minimum:        2244.  Node maximum:        4222. integrals

 OPERATOR DM      FOR CENTER  0  COORDINATES:    0.000000    0.000000    0.000000


 **********************************************************************************************************************************
 DATASETS  * FILE   NREC   LENGTH (MB)   RECORD NAMES
              1      19       19.90       500      610      700      900      950      970     1000      129      960     1100   
                                          VAR    BASINP    GEOM    SYMINP    ZMAT    AOBASIS   BASIS     P2S    ABASIS      S 
                                         1400     1410     1420     1200     1210     1080     1600     1650     1700   
                                           T        V       ECP      H0       H01     AOSYM     SMH    MOLCAS    OPER   

 PROGRAMS   *        TOTAL       INT
 CPU TIMES  *         1.95      1.32
 REAL TIME  *         5.41 SEC
 DISK USED  *        63.68 MB      
 GA USED    *         0.00 MB       (max)       0.00 MB       (current)
 **********************************************************************************************************************************


 PROGRAM * RHF-SCF (OPEN SHELL)       Authors: W. Meyer, H.-J. Werner


 NUMBER OF ELECTRONS:       9+    5-    SPACE SYMMETRY=1    SPIN SYMMETRY: Quintet 
 CONVERGENCE THRESHOLDS:    1.00E-05 (Density)    1.00E-07 (Energy)
 MAX. NUMBER OF ITERATIONS:       60
 INTERPOLATION TYPE:            DIIS
 INTERPOLATION STEPS:              2 (START)      1 (STEP)
 LEVEL SHIFTS:                 -0.60 (CLOSED) -0.30 (OPEN) 

 Number of closed-shell orbitals:    5 (   2   1   1   0   1   0   0 )
 Number of open-shell orbitals:      4 (   1   0   0   1   0   1   1 )


 
 Extra symmetries of mos in symmetry 1:   1   1   3   2

   Atom=W  basis=cc-pVTZ-PP        lmin=0  lmax=2

 Orbital guess generated from atomic densities. Full valence occupancy:    4   1   1   1   1   1   1   0


 Molecular orbital dump at record        4202.2

 ITERATION    DDIFF          GRAD             ENERGY        2-EL.EN.            DIPOLE MOMENTS         DIIS   ORB.
    1      0.000D+00      0.000D+00       -66.65476747     90.046918    0.00000    0.00000    0.00000    0    start
    2      0.000D+00      0.139D-01       -66.68834965     92.200690    0.00000    0.00000    0.00000    1    diag,B
    3      0.126D-01      0.628D-02       -66.69232468     92.374160    0.00000    0.00000    0.00000    2    diag,B
    4      0.349D-02      0.322D-02       -66.69456532     92.558133    0.00000    0.00000    0.00000    3    diag,B
    5      0.440D-02      0.107D-02       -66.69493134     92.563091    0.00000    0.00000    0.00000    4    diag,B
    6      0.218D-02      0.634D-03       -66.69513389     92.518228    0.00000    0.00000    0.00000    5    diag,B
    7      0.234D-02      0.360D-03       -66.69521556     92.510491    0.00000    0.00000    0.00000    6    fixocc
    8      0.169D-02      0.219D-03       -66.69525165     92.506557    0.00000    0.00000    0.00000    7    diag,B
    9      0.134D-02      0.123D-03       -66.69526242     92.523444    0.00000    0.00000    0.00000    8    diag,B
   10      0.885D-03      0.398D-04       -66.69526305     92.523304    0.00000    0.00000    0.00000    9    orth
   11      0.217D-03      0.591D-05       -66.69526307     92.523229    0.00000    0.00000    0.00000    9    diag,B
   12      0.208D-04      0.375D-05       -66.69526308     92.523206    0.00000    0.00000    0.00000    9    diag,B
   13      0.108D-04      0.259D-05       -66.69526308     92.523238    0.00000    0.00000    0.00000    9    diag,B
   14      0.710D-05      0.249D-05       -66.69526309     92.523236    0.00000    0.00000    0.00000    0    orth

 Final alpha occupancy:   3   1   1   1   1   1   1
 Final beta  occupancy:   2   1   1   0   1   0   0

 !RHF STATE 1.1 Energy                -66.695263085280
 Nuclear energy                         0.00000000
 One-electron energy                 -112.95688097
 Two-electron energy                   46.26161788
 Virial quotient                       -2.91923295
 !RHF STATE 1.1 Dipole moment           0.00000000     0.00000000     0.00000000
 Dipole moment /Debye                   0.00000000     0.00000000     0.00000000

 ELECTRON ORBITALS
 =================


   Orb  Occ    Energy  Couls-En    Coefficients

                                   1 1s      1 1s      1 1s      1 1s      1 1s      1 3d0     1 3d2+    1 3d0     1 3d2+    1 3d0  
                                   1 3d2+    1 3d0     1 3d2+ 

   1.1   2    -3.4287  -14.5233  0.999993  0.000036 -0.000030  0.000016  0.000003  0.002783  0.000091 -0.002171 -0.000022 -0.001306
                                -0.000013 -0.000619 -0.000006

   2.1   2    -0.2624   -4.6878 -0.000000  0.997511 -0.000013 -0.000001  0.000000  0.068765  0.001336  0.015054  0.000180 -0.001519
                                -0.000030  0.000991  0.000011

   3.1   +    -0.3609   -6.8024 -0.000103 -0.001648  0.000254  0.000025 -0.000006  0.004387  0.999989 -0.000000 -0.000009  0.000005
                                 0.000003 -0.000001  0.000002

   4.1   0     0.0417   -5.6806 -0.002344 -0.069951 -0.014220 -0.008945  0.004007  0.967868 -0.004357  0.211400 -0.000930 -0.098638
                                 0.000443  0.035925 -0.000161

   5.1   0     0.1231   -2.4624 -0.000021 -0.018755  0.835947  0.498506 -0.230414  0.015463 -0.000295  0.006743 -0.000084 -0.006524
                                 0.000024  0.002314 -0.000010

                                   1 2px     1 2px     1 2px     1 2px     1 2px  

   1.2   2    -1.9231  -11.2675  1.000000 -0.000016 -0.000011  0.000001 -0.000000

   2.2   0     0.0518   -3.2744 -0.000547  0.919410 -0.348392  0.167866 -0.071625

   3.2   0     0.4084   -3.0228 -0.000660  0.389177  0.740218 -0.492247  0.241477

                                   1 2py     1 2py     1 2py     1 2py     1 2py  

   1.3   2    -1.9230  -11.2673  1.000000  0.000014  0.000009  0.000003 -0.000003

   2.3   0     0.0518   -3.2747 -0.000568  0.919449 -0.348308  0.167833 -0.071609

   3.3   0     0.4084   -3.0227 -0.000685  0.389088  0.740260 -0.492251  0.241482

                                   1 3d2-    1 3d2-    1 3d2-    1 3d2- 

   1.4   +    -0.3609   -6.8024  1.000000 -0.000010  0.000003  0.000002

   2.4   0     0.2738   -2.6674 -0.004301  0.778065 -0.579135  0.243384

   3.4   0     1.0362   -2.8670 -0.003329  0.611027  0.607679 -0.507330

                                   1 2pz     1 2pz     1 2pz     1 2pz     1 2pz  

   1.5   2    -1.9312  -11.2805  0.999999 -0.002228 -0.001566 -0.000215  0.000263

   2.5   0     0.0492   -3.2799  0.001003  0.920255 -0.346978  0.166373 -0.071099

   3.5   0     0.4057   -3.0212  0.001180  0.387176  0.741563 -0.492125  0.240808

                                   1 3d1+    1 3d1+    1 3d1+    1 3d1+ 

   1.6   +    -0.3876   -6.8668  0.999970 -0.014115  0.004023 -0.000485

   2.6   0     0.2699   -2.6571  0.009136  0.781556 -0.575355  0.240777

   3.6   0     1.0259   -2.8600  0.002546  0.606801  0.612282 -0.506833

                                   1 3d1-    1 3d1-    1 3d1-    1 3d1- 

   1.7   +    -0.3874   -6.8662  0.999971 -0.013963  0.003996 -0.000482

   2.7   0     0.2700   -2.6572  0.009000  0.781521 -0.575395  0.240803

   3.7   0     1.0260   -2.8601  0.002472  0.606845  0.612234 -0.506840

 HOMO      3.1    -0.360899 =      -9.8206eV
 LUMO      4.1     0.041652 =       1.1334eV
 LUMO-HOMO         0.402551 =      10.9540eV


 **********************************************************************************************************************************
 DATASETS  * FILE   NREC   LENGTH (MB)   RECORD NAMES
              1      19       19.90       500      610      700      900      950      970     1000      129      960     1100   
                                          VAR    BASINP    GEOM    SYMINP    ZMAT    AOBASIS   BASIS     P2S    ABASIS      S 
                                         1400     1410     1420     1200     1210     1080     1600     1650     1700   
                                           T        V       ECP      H0       H01     AOSYM     SMH    MOLCAS    OPER   

              2       4        2.76       700     1000      520     4202   
                                         GEOM     BASIS   MCVARS     RHF  

 PROGRAMS   *        TOTAL       RHF       INT
 CPU TIMES  *         2.06      0.11      1.32
 REAL TIME  *         5.71 SEC
 DISK USED  *       405.12 MB      
 SF USED    *         0.00 MB      
 GA USED    *         0.00 MB       (max)       0.00 MB       (current)
 **********************************************************************************************************************************


 PROGRAM * POP (Mulliken population analysis)

 
 Density matrix read from record         4202.2  Type=RHF/CHARGE (state 1.1)
 
 Population analysis by basis function type

 Unique atom        s        p        d        f        g    Total    Charge
   1  W       3.99003  6.00000  4.00997  0.00000  0.00000 14.00000  - 0.00000


 **********************************************************************************************************************************
 DATASETS  * FILE   NREC   LENGTH (MB)   RECORD NAMES
              1      19       19.90       500      610      700      900      950      970     1000      129      960     1100   
                                          VAR    BASINP    GEOM    SYMINP    ZMAT    AOBASIS   BASIS     P2S    ABASIS      S 
                                         1400     1410     1420     1200     1210     1080     1600     1650     1700   
                                           T        V       ECP      H0       H01     AOSYM     SMH    MOLCAS    OPER   

              2       4        2.76       700     1000      520     4202   
                                         GEOM     BASIS   MCVARS     RHF  

 PROGRAMS   *        TOTAL       POP       RHF       INT
 CPU TIMES  *         2.07      0.01      0.11      1.32
 REAL TIME  *         5.79 SEC
 DISK USED  *       405.12 MB      
 SF USED    *         0.00 MB      
 GA USED    *         0.00 MB       (max)       0.00 MB       (current)
 **********************************************************************************************************************************


 PROGRAM * MULTI (Direct Multiconfiguration SCF)       Authors: P.J. Knowles, H.-J. Werner (1984)     S.T. Elbert (1988)


 Number of closed-shell orbitals:   5 (   2   1   1   0   1   0   0   0 )
 Number of active  orbitals:        5 (   2   0   0   1   0   1   1   0 )
 Number of external orbitals:      30 (   9   4   4   3   4   3   3   0 )

 State symmetry 1

 Number of electrons:     4    Spin symmetry=Quintet   Space symmetry=1
 Number of states:        2
 Number of CSFs:          2   (2 determinants, 5 intermediate states)

 State symmetry 2

 Number of electrons:     4    Spin symmetry=Quintet   Space symmetry=4
 Number of states:        1
 Number of CSFs:          1   (1 determinants, 5 intermediate states)

 State symmetry 3

 Number of electrons:     4    Spin symmetry=Quintet   Space symmetry=6
 Number of states:        1
 Number of CSFs:          1   (1 determinants, 5 intermediate states)

 State symmetry 4

 Number of electrons:     4    Spin symmetry=Quintet   Space symmetry=7
 Number of states:        1
 Number of CSFs:          1   (1 determinants, 5 intermediate states)

 Molecular orbitals read from record     4202.2  Type=RHF/CANONICAL (state 1.1)
 *** IN SYMMETRY 1 ORBITAL  1 SYMMETRY CONTAMINATION OF 0.696D-02 HAS BEEN REMOVED
 *** IN SYMMETRY 1 ORBITAL  2 SYMMETRY CONTAMINATION OF 0.810D-01 HAS BEEN REMOVED
 *** IN SYMMETRY 1 ORBITAL  3 SYMMETRY CONTAMINATION OF 0.639D-02 HAS BEEN REMOVED
 *** IN SYMMETRY 1 ORBITAL  4 SYMMETRY CONTAMINATION OF 0.742D-01 HAS BEEN REMOVED

 EXTRA SYMMETRY OF MOS IN SYMMETRY 1:   1 1 3 2 1 3 2 1 3 2   1 2 3

 Wavefunction dump at record             5202.2

 Convergence thresholds  0.10E-01 (gradient)  0.10E-05 (energy)  0.10E-02 (step length)

 Weight factors for state symmetry  1:    0.20000   0.20000
 Weight factors for state symmetry  2:    0.20000
 Weight factors for state symmetry  3:    0.20000
 Weight factors for state symmetry  4:    0.20000

 Number of orbital rotations:       61   (     4 Core/Active     30 Core/Virtual   0 Active/Active     27 Active/Virtual)
 Total number of variables:         68


 ITER. MIC  NCI  NEG     ENERGY(VAR)     ENERGY(PROJ)   ENERGY CHANGE     GRAD(0)  GRAD(ORB)   GRAD(CI)     STEP       TIME

   1   26   16    0     -66.67254807     -66.69384197   -0.02129390    0.10527129 0.00000000 0.00000000  0.24D+00      0.06
   2   23   20    0     -66.69378522     -66.69381256   -0.00002733    0.00605866 0.00000000 0.00000000  0.64D-02      0.09
   3   23   20    0     -66.69381259     -66.69381259   -0.00000000    0.00001096 0.00000000 0.00000000  0.11D-04      0.13

 ** WVFN ****  CONVERGENCE REACHED, FINAL GRADIENT:  0.44D-10



 Results for state 1.1
 =====================

 !MCSCF STATE 1.1 Energy              -66.693812591458
 Nuclear energy                         0.00000000
 Kinetic energy                        22.84209928
 One electron energy                 -112.94622941
 Two electron energy                   46.25241682
 Virial ratio                           3.91977597

 !MCSCF STATE 1.1 Dipole moment         0.00000000     0.00000000     0.00000000
 Dipole moment /Debye                   0.00000000     0.00000000     0.00000000

 Results for state 2.1
 =====================

 !MCSCF STATE 2.1 Energy              -66.693812591458
 Nuclear energy                         0.00000000
 Kinetic energy                        22.84209928
 One electron energy                 -112.94622941
 Two electron energy                   46.25241682
 Virial ratio                           3.91977597

 !MCSCF STATE 2.1 Dipole moment         0.00000000     0.00000000     0.00000000
 Dipole moment /Debye                   0.00000000     0.00000000     0.00000000



 Results for state 1.4
 =====================

 !MCSCF STATE 1.4 Energy              -66.693812591458
 Nuclear energy                         0.00000000
 Kinetic energy                        22.84209928
 One electron energy                 -112.94622941
 Two electron energy                   46.25241682
 Virial ratio                           3.91977597

 !MCSCF STATE 1.4 Dipole moment         0.00000000     0.00000000     0.00000000
 Dipole moment /Debye                   0.00000000     0.00000000     0.00000000



 Results for state 1.6
 =====================

 !MCSCF STATE 1.6 Energy              -66.693812591458
 Nuclear energy                         0.00000000
 Kinetic energy                        22.84209928
 One electron energy                 -112.94622941
 Two electron energy                   46.25241682
 Virial ratio                           3.91977597

 !MCSCF STATE 1.6 Dipole moment         0.00000000     0.00000000     0.00000000
 Dipole moment /Debye                   0.00000000     0.00000000     0.00000000



 Results for state 1.7
 =====================

 !MCSCF STATE 1.7 Energy              -66.693812591458
 Nuclear energy                         0.00000000
 Kinetic energy                        22.84209928
 One electron energy                 -112.94622941
 Two electron energy                   46.25241682
 Virial ratio                           3.91977597

 !MCSCF STATE 1.7 Dipole moment         0.00000000     0.00000000     0.00000000
 Dipole moment /Debye                   0.00000000     0.00000000     0.00000000

 State-averaged charge density matrix saved on record  5202.2 (density set 1)


 NATURAL ORBITALS (state averaged)
 =================================

   Orb     Occ        Energy       Coefficients

                                   1 1s      1 1s      1 1s      1 1s      1 1s      1 3d0     1 3d2+    1 3d0     1 3d2+    1 3d0  
                                   1 3d2+    1 3d0     1 3d2+ 

   1.1  2.00000    -3.429690     1.000000  0.000000 -0.000000  0.000001  0.000000  0.000000  0.000000  0.000000  0.000000  0.000000
                                 0.000000  0.000000  0.000000

   2.1  2.00000    -0.262212     0.000196  0.999991  0.000496  0.000041 -0.000047  0.000000  0.000000  0.000000  0.000000  0.000000
                                 0.000000  0.000000  0.000000

   3.1  0.80000    -0.057547     0.000000  0.000000  0.000000  0.000000  0.000000  1.000011  0.000000 -0.007363  0.000000  0.002033
                                 0.000000 -0.000269  0.000000

   4.1  0.80000    -0.057547     0.000000  0.000000  0.000000  0.000000  0.000000  0.000000  1.000011  0.000000 -0.007363  0.000000
                                 0.002033  0.000000 -0.000269

                                   1 2px     1 2px     1 2px     1 2px     1 2px  

   1.2  2.00000    -1.926730     1.000000 -0.000802 -0.000564 -0.000079  0.000089

                                   1 2py     1 2py     1 2py     1 2py     1 2py  

   1.3  2.00000    -1.926730     1.000000 -0.000802 -0.000564 -0.000079  0.000089

                                   1 3d2-    1 3d2-    1 3d2-    1 3d2- 

   1.4  0.80000    -0.057547     1.000011 -0.007363  0.002033 -0.000269

                                   1 2pz     1 2pz     1 2pz     1 2pz     1 2pz  

   1.5  2.00000    -1.926730     1.000000 -0.000802 -0.000564 -0.000079  0.000089

                                   1 3d1+    1 3d1+    1 3d1+    1 3d1+ 

   1.6  0.80000    -0.057547     1.000011 -0.007363  0.002033 -0.000269

                                   1 3d1-    1 3d1-    1 3d1-    1 3d1- 

   1.7  0.80000    -0.057547     1.000011 -0.007363  0.002033 -0.000269
 

 EXTRA SYMMETRY OF MOS IN SYMMETRY 1:   1 1 2 3 1 3 2 1 3 2   1 3 2

 Natural orbital dump (state averaged) at molpro section  5202.2    (Orbital set 2)


 CI vector for state symmetry 1
 ==============================

 0a a a a          0.0000000   1.0000000
 a0 a a a          1.0000000   0.0000000

 TOTAL ENERGIES                       -66.69381259   -66.69381259

 CI vector for state symmetry 2
 ==============================

 aa 0 a a          1.0000000

 TOTAL ENERGIES                       -66.69381259

 CI vector for state symmetry 3
 ==============================

 aa a 0 a          1.0000000

 TOTAL ENERGIES                       -66.69381259

 CI vector for state symmetry 4
 ==============================

 aa a a 0          1.0000000

 TOTAL ENERGIES                       -66.69381259



 **********************************************************************************************************************************
 DATASETS  * FILE   NREC   LENGTH (MB)   RECORD NAMES
              1      20       20.06       500      610      700      900      950      970     1000      129      960     1100   
                                          VAR    BASINP    GEOM    SYMINP    ZMAT    AOBASIS   BASIS     P2S    ABASIS      S 
                                         1400     1410     1420     1200     1210     1080     1600     1650     1700     1380   
                                           T        V       ECP      H0       H01     AOSYM     SMH    MOLCAS    OPER     JKOP   

              2       5        5.27       700     1000      520     4202     5202   
                                         GEOM     BASIS   MCVARS     RHF     MCSCF   

 PROGRAMS   *        TOTAL     MULTI       POP       RHF       INT
 CPU TIMES  *         2.53      0.46      0.01      0.11      1.32
 REAL TIME  *         7.57 SEC
 DISK USED  *       405.12 MB      
 SF USED    *        12.27 MB      
 GA USED    *         0.00 MB       (max)       0.00 MB       (current)
 **********************************************************************************************************************************


 PROGRAM * RHF-SCF (OPEN SHELL)       Authors: W. Meyer, H.-J. Werner


 NUMBER OF ELECTRONS:       9+    5-    SPACE SYMMETRY=1    SPIN SYMMETRY: Quintet 
 CONVERGENCE THRESHOLDS:    1.00E-05 (Density)    1.00E-07 (Energy)
 MAX. NUMBER OF ITERATIONS:        0
 INTERPOLATION TYPE:            DIIS
 INTERPOLATION STEPS:              2 (START)      1 (STEP)
 LEVEL SHIFTS:                 -0.60 (CLOSED) -0.30 (OPEN) 

 Number of closed-shell orbitals:    5 (   2   1   1   0   1   0   0 )
 Number of open-shell orbitals:      4 (   1   0   0   1   0   1   1 )


 Molecular orbitals read from record     5202.2  Type=MCSCF/NATURAL (state averaged)

 Molecular orbital dump at record        2101.2

 ITERATION    DDIFF          GRAD             ENERGY        2-EL.EN.            DIPOLE MOMENTS         DIIS   ORB.
    1      0.000D+00      0.000D+00       -66.69381259     92.504834    0.00000    0.00000    0.00000    0    start

 Final alpha occupancy:   3   1   1   1   1   1   1
 Final beta  occupancy:   2   1   1   0   1   0   0

 !RHF STATE 1.1 Energy                -66.693812591458
 Nuclear energy                         0.00000000
 One-electron energy                 -112.94622941
 Two-electron energy                   46.25241682
 Virial quotient                       -2.91977597
 !RHF STATE 1.1 Dipole moment           0.00000000     0.00000000     0.00000000
 Dipole moment /Debye                   0.00000000     0.00000000     0.00000000

 ELECTRON ORBITALS
 =================


   Orb  Occ    Energy  Couls-En    Coefficients

                                   1 1s      1 1s      1 1s      1 1s      1 1s      1 3d0     1 3d2+    1 3d0     1 3d2+    1 3d0  
                                   1 3d2+    1 3d0     1 3d2+ 

   1.1   2    -3.4297  -14.5244  1.000000  0.000000 -0.000000  0.000001  0.000000  0.000000  0.000000  0.000000  0.000000  0.000000
                                 0.000000  0.000000  0.000000

   2.1   2    -0.2622   -4.6795  0.000196  0.999991  0.000496  0.000041 -0.000047  0.000000  0.000000  0.000000  0.000000  0.000000
                                 0.000000  0.000000  0.000000

   3.1   +    -0.0575   -6.5189  0.000000  0.000000  0.000000  0.000000  0.000000  1.000011  0.000000 -0.007363  0.000000  0.002033
                                 0.000000 -0.000269  0.000000

                                   1 2px     1 2px     1 2px     1 2px     1 2px  

   1.2   2    -1.9267  -11.2729  1.000000 -0.000802 -0.000564 -0.000079  0.000089

                                   1 2py     1 2py     1 2py     1 2py     1 2py  

   1.3   2    -1.9267  -11.2729  1.000000 -0.000802 -0.000564 -0.000079  0.000089

                                   1 3d2-    1 3d2-    1 3d2-    1 3d2- 

   1.4   +    -0.0575   -6.5189  1.000011 -0.007363  0.002033 -0.000269

                                   1 2pz     1 2pz     1 2pz     1 2pz     1 2pz  

   1.5   2    -1.9267  -11.2729  1.000000 -0.000802 -0.000564 -0.000079  0.000089

                                   1 3d1+    1 3d1+    1 3d1+    1 3d1+ 

   1.6   +    -0.0575   -6.5189  1.000011 -0.007363  0.002033 -0.000269

                                   1 3d1-    1 3d1-    1 3d1-    1 3d1- 

   1.7   +    -0.0575   -6.5189  1.000011 -0.007363  0.002033 -0.000269

 HOMO      3.1    -0.057547 =      -1.5659eV
 LUMO      4.1    -0.057547 =      -1.5659eV
 LUMO-HOMO         0.000000 =       0.0000eV


 **********************************************************************************************************************************
 DATASETS  * FILE   NREC   LENGTH (MB)   RECORD NAMES
              1      20       20.06       500      610      700      900      950      970     1000      129      960     1100   
                                          VAR    BASINP    GEOM    SYMINP    ZMAT    AOBASIS   BASIS     P2S    ABASIS      S 
                                         1400     1410     1420     1200     1210     1080     1600     1650     1700     1380   
                                           T        V       ECP      H0       H01     AOSYM     SMH    MOLCAS    OPER     JKOP   

              2       6        7.78       700     1000      520     4202     5202     2101   
                                         GEOM     BASIS   MCVARS     RHF     MCSCF     RHF  

 PROGRAMS   *        TOTAL       RHF     MULTI       POP       RHF       INT
 CPU TIMES  *         2.93      0.39      0.46      0.01      0.11      1.32
 REAL TIME  *         8.41 SEC
 DISK USED  *       405.12 MB      
 SF USED    *        12.27 MB      
 GA USED    *         0.00 MB       (max)       0.00 MB       (current)
 **********************************************************************************************************************************


 PROGRAM * CI (Multireference internally contracted CI)     Authors: H.-J. Werner, P.J. Knowles, 1987


 Convergence thresholds:  THRVAR = 1.00D-08  THRDEN = 1.00D-06

 Number of optimized states:  1  Roots:   1
 Number of reference states:  1  Roots:   1

 Reference symmetry:                   1   Quintet 
 Number of electrons:                 14
 Maximum number of shells:             2
 Maximum number of spin couplings:     5

 Reference space:        1 conf        1 CSFs
 N elec internal:        5 conf        5 CSFs
 N-1 el internal:       21 conf       25 CSFs
 N-2 el internal:       11 conf       31 CSFs

 Number of electrons in valence space:                      6
 Maximum number of open shell orbitals in reference space:  4
 Maximum number of open shell orbitals in internal spaces:  6


 Number of core orbitals:           4 (   1   1   1   0   1   0   0 )
 Number of closed-shell orbitals:   1 (   1   0   0   0   0   0   0 )
 Number of active  orbitals:        4 (   1   0   0   1   0   1   1 )
 Number of external orbitals:      31 (  10   4   4   3   4   3   3 )

 Molecular orbitals read from record     2101.2  Type=RHF/CANONICAL (state 1.1)

 Coulomb and exchange operators available. No transformation done.

 Number of p-space configurations:   1

 Reference wavefunction optimized for reference space (refopt=1)

 State     Reference Energy 
   1         -66.69381259

 Number of blocks in overlap matrix:    15   Smallest eigenvalue:  0.10D+01
 Number of N-2 electron functions:      15
 Number of N-1 electron functions:      25

 Number of internal configurations:                    2
 Number of singly external configurations:           124
 Number of doubly external configurations:           938
 Total number of contracted configurations:         1064
 Total number of uncontracted configurations:       2063

 Diagonal Coupling coefficients finished.               Storage:    1871 words, CPU-Time:      0.00 seconds.
 Energy denominators for pairs finished in 1 passes.    Storage:    2601 words, CPU-time:      0.00 seconds.

  ITER. STATE  ROOT     SQ.NORM     CORR.ENERGY   TOTAL ENERGY   ENERGY CHANGE       DEN1      VAR(S)    VAR(P)      TIME
    1     1     1     1.00000000     0.00000000   -66.69381259     0.00000000    -0.05180976  0.11D-01  0.55D-01     0.05
    2     1     1     1.08495145    -0.05983739   -66.75364998    -0.05983739    -0.00224415  0.10D-02  0.14D-02     0.06
    3     1     1     1.10737616    -0.06294066   -66.75675325    -0.00310326    -0.00016893  0.55D-04  0.17D-03     0.06
    4     1     1     1.11101039    -0.06312559   -66.75693818    -0.00018493    -0.00001552  0.77D-05  0.15D-04     0.06
    5     1     1     1.11121942    -0.06314419   -66.75695679    -0.00001861    -0.00000126  0.42D-06  0.10D-05     0.07
    6     1     1     1.11124420    -0.06314587   -66.75695847    -0.00000168    -0.00000008  0.39D-07  0.62D-07     0.08
    7     1     1     1.11130542    -0.06314598   -66.75695857    -0.00000010    -0.00000000  0.27D-08  0.38D-08     0.08


 =====================================
 Analysis of CPU times by interactions
 =====================================

       I      S      P

 I   0.0%
 S   0.0%  12.5%
 P   0.0%  12.5%   0.0%

 Initialization:  62.5%
 Other:           12.5%

 Total CPU:        0.1 seconds
 =====================================



 Reference coefficients greater than 0.0500000
 =============================================
 2////           0.9434309

  Internal coefficients greater than 0.0500000
 =============================================
 /2///           0.0988974

 Coefficients of singly external configurations greater than 0.0500000
 =====================================================================

 ///\/   4.1    -0.0755910
 //\//   4.1     0.0585692
 \////   5.1    -0.0540136

 Coefficients of doubly external configurations greater than 0.0500000
 =====================================================================

 PAIR    I     J   ->   K     L     NP  SYM  REF     COEFFICIENTS

   1    2.1   2.1      2.2   2.2     1   1    1   -0.09609876
   1    2.1   2.1      2.3   2.3     1   1    1   -0.09609589
   2    3.1   2.1      4.1   4.1     1   1    1    0.08431034
   1    2.1   2.1      2.5   2.5     1   1    1   -0.08286276
   1    2.1   2.1      4.1   4.1     1   1    1   -0.06404899



 RESULTS FOR STATE 1.1
 =====================

 Coefficient of reference function:   C(0) = 0.94343094 (fixed)   0.94343094 (relaxed)

 Energy contributions of configuration classes

 CLASS          SQ.NORM        ECORR1        ECORR2
 +++++++++++++++++++++++++++++++++++++++++++++++++++
 Internals    0.01098877   -0.00139254   -0.00185706
 Singles      0.02060875   -0.00593299   -0.00643923
 Pairs        0.09191979   -0.05582045   -0.05484969
 Total        1.12351731   -0.06314598   -0.06314598
 +++++++++++++++++++++++++++++++++++++++++++++++++++


 Reference energy                     -66.69381259
 Nuclear energy                         0.00000000
 Kinetic energy                        22.80513103
 One electron energy                 -112.82209504
 Two electron energy                   46.06513647
 Virial quotient                       -2.92727801
 Correlation energy                    -0.06314598
 !CI(SD) STATE 1.1 Energy             -66.756958567397

 Properties without orbital relaxation:

 !CI(SD) STATE 1.1 Dipole moment        0.00000000     0.00000000     0.00000000
 Dipole moment /Debye                   0.00000000     0.00000000     0.00000000

 Cluster corrected energies           -66.76475819 (Davidson, fixed reference)
 Cluster corrected energies           -66.76475819 (Davidson, relaxed reference)

 Cluster corrected energies           -66.75695857 (Pople, fixed reference)
 Cluster corrected energies           -66.75695857 (Pople, relaxed reference)


 Natural orbitals
 ================

   Orb     Occ           Coefficients

                         1 1s      1 1s      1 1s      1 1s      1 1s      1 3d0     1 3d2+    1 3d0     1 3d2+    1 3d0  
                         1 3d2+    1 3d0     1 3d2+ 

   1.1    2.0000000    1.000000  0.000000 -0.000000  0.000001  0.000000  0.000000  0.000000  0.000000  0.000000  0.000000
                       0.000000  0.000000  0.000000

   2.1    1.8648259    0.000195  0.995130 -0.017265 -0.006215  0.002528 -0.098874  0.000006 -0.015255  0.000000  0.001821
                      -0.000000 -0.000785  0.000000

   3.1    0.9845034    0.000019  0.099161 -0.008384 -0.001344  0.000301  0.994898 -0.000012  0.012123 -0.000001 -0.004561
                       0.000000  0.000505 -0.000000

   4.1    0.0347423   -0.000000 -0.000005 -0.000050 -0.000004  0.000001  0.000012  0.984928  0.000009  0.167505 -0.000003
                      -0.006133  0.000001  0.001457

   5.1    0.0118807   -0.000000 -0.000177  0.991089 -0.000531  0.000547  0.009173  0.000049 -0.131595  0.000016  0.017951
                       0.000001 -0.006058 -0.000000

   6.1    0.0029491    0.000003  0.014090  0.131453 -0.014640  0.002344 -0.018043  0.000001  0.990948 -0.000019  0.003299
                       0.000001  0.011259 -0.000000

   7.1    0.0004494    0.000000  0.000001 -0.000005 -0.000272  0.000006 -0.000002 -0.172052  0.000015  0.975829 -0.000029
                      -0.141415  0.000001 -0.002985

   8.1    0.0003830   -0.000001 -0.000191  0.000876  0.996677  0.004666  0.000832 -0.000043  0.014210  0.000267  0.079953
                      -0.000039  0.002308 -0.000002

   9.1    0.0001419    0.000000  0.001387  0.018358  0.079948 -0.007736 -0.004585 -0.000001  0.002026 -0.000003 -0.996581
                       0.000029 -0.003302  0.000000

  10.1    0.0000229    0.000000  0.000387 -0.000789 -0.005590  0.996115 -0.000084  0.000013 -0.003309 -0.000101 -0.008370
                      -0.000658  0.087527 -0.000058

  11.1    0.0000218    0.000000  0.000001 -0.000003 -0.000006  0.000663 -0.000000 -0.018557 -0.000001  0.140066  0.000022
                       0.985491  0.000090  0.094187

  12.1    0.0000127    0.000000  0.000545  0.004661 -0.001395 -0.087588 -0.000366  0.000000 -0.011754 -0.000004 -0.002678
                      -0.000029  0.996072 -0.000033

  13.1    0.0000054   -0.000000 -0.000000  0.000000  0.000001 -0.000007  0.000000 -0.000236 -0.000000 -0.010570 -0.000002
                      -0.093650  0.000029  0.995549

                         1 2px     1 2px     1 2px     1 2px     1 2px  

   1.2    2.0000000    1.000000 -0.000802 -0.000564 -0.000079  0.000089

   2.2    0.0400625    0.000001  1.000000  0.000055 -0.000215  0.000141

   3.2    0.0004240   -0.000001 -0.000056  1.000000  0.000605 -0.000124

   4.2    0.0000234    0.000002  0.000214 -0.000605  0.999978  0.006553

   5.2    0.0000028   -0.000017 -0.000143  0.000127 -0.006553  0.999979

                         1 2py     1 2py     1 2py     1 2py     1 2py  

   1.3    2.0000000    1.000000 -0.000802 -0.000564 -0.000079  0.000089

   2.3    0.0400608    0.000001  1.000000  0.000057 -0.000216  0.000141

   3.3    0.0004240   -0.000001 -0.000058  1.000000  0.000610 -0.000123

   4.3    0.0000234    0.000002  0.000214 -0.000610  0.999978  0.006559

   5.3    0.0000028   -0.000017 -0.000143  0.000127 -0.006559  0.999978

                         1 3d2-    1 3d2-    1 3d2-    1 3d2- 

   1.4    0.9904409    1.000015 -0.005461 -0.000038  0.000086

   2.4    0.0027281   -0.000048  1.000000  0.000538 -0.000079

   3.4    0.0001728   -0.000062  0.000538 -0.999968 -0.007954

   4.4    0.0000151   -0.000121  0.000085 -0.007954  0.999968

                         1 2pz     1 2pz     1 2pz     1 2pz     1 2pz  

   1.5    2.0000000    1.000000 -0.000802 -0.000564 -0.000079  0.000089

   2.5    0.0379692    0.000001  0.999910  0.013378 -0.000936  0.000792

   3.5    0.0004923   -0.000000 -0.013327  0.998893  0.044932  0.004138

   4.5    0.0000261    0.000001  0.001486 -0.045088  0.996983  0.063166

   5.5    0.0000033   -0.000017 -0.000833 -0.001298 -0.063288  0.997994

                         1 3d1+    1 3d1+    1 3d1+    1 3d1+ 

   1.6    0.9902430    0.999906  0.008898 -0.003358  0.000433

   2.6    0.0031891   -0.014421  0.999906 -0.002642  0.011456

   3.6    0.0001494    0.003344  0.002631  0.999985  0.003539

   4.6    0.0000134   -0.000314 -0.011468 -0.003507  0.999928

                         1 3d1-    1 3d1-    1 3d1-    1 3d1- 

   1.7    0.9902430    0.999906  0.008897 -0.003358  0.000433

   2.7    0.0031890   -0.014420  0.999906 -0.002638  0.011454

   3.7    0.0001494    0.003343  0.002627  0.999985  0.003542

   4.7    0.0000134   -0.000314 -0.011466 -0.003510  0.999928

 Electronic charge:   14.000000


 **********************************************************************************************************************************
 DATASETS  * FILE   NREC   LENGTH (MB)   RECORD NAMES
              1      20       20.06       500      610      700      900      950      970     1000      129      960     1100   
                                          VAR    BASINP    GEOM    SYMINP    ZMAT    AOBASIS   BASIS     P2S    ABASIS      S 
                                         1400     1410     1420     1200     1210     1080     1600     1650     1700     1380   
                                           T        V       ECP      H0       H01     AOSYM     SMH    MOLCAS    OPER     JKOP   

              2       6        7.78       700     1000      520     4202     5202     2101   
                                         GEOM     BASIS   MCVARS     RHF     MCSCF     RHF  

 PROGRAMS   *        TOTAL        CI       RHF     MULTI       POP       RHF       INT
 CPU TIMES  *         3.36      0.44      0.39      0.46      0.01      0.11      1.32
 REAL TIME  *         9.73 SEC
 DISK USED  *       405.12 MB      
 SF USED    *        12.27 MB      
 GA USED    *         0.00 MB       (max)       0.00 MB       (current)
 **********************************************************************************************************************************

 CI/USERDEF energy=    -66.756958567397

        CI              RHF-SCF         MULTI           RHF-SCF 
    -66.75695857    -66.69381259    -66.69381259    -66.69526309
 **********************************************************************************************************************************
 Molpro calculation terminated
 Variable memory released
