<?xml version="1.0"?>
<molpro xmlns="http://www.molpro.net/schema/molpro-output"
  xmlns:xsd="http://www.w3.org/1999/XMLSchema"
  xmlns:cml="http://www.xml-cml.org/schema"
  xmlns:stm="http://www.xml-cml.org/schema"
  xmlns:xhtml="http://www.w3.org/1999/xhtml">
 <!--

 Nodes     nprocs
 nid00750    23
 Number of processes for MPI-2 version of Molpro:   nprocs(total)=   24   nprocs(compute)=   23   nprocs(helper)=    1

 Using customized tuning parameters: mindgm=7; mindgv=16; mindgc=1; mindgr=1; noblas=0; minvec=7
 default implementation of scratch files=sf

 --><job>
  <!--

 Variables initialized (889), CPU time= 0.02 sec
 Commands  initialized (702), CPU time= 0.02 sec, 572 directives.
 Default parameters read. Elapsed time= 0.14 sec

 Checking input...
 Passed
1


                                         ***  PROGRAM SYSTEM MOLPRO  ***
                                       Copyright, TTI GmbH Stuttgart, 2015
                                    Version 2015.1 linked Dec 29 2018 15:55:43


 **********************************************************************************************************************************
 LABEL *   Calculation for PdO groundstate
  64 bit mpp version                                                                     DATE: 30-Mar-21          TIME: 03:15:11
 **********************************************************************************************************************************

 SHA1:             19cd028119e0e09f93f0674bd8af7968d9b3eff6
 **********************************************************************************************************************************
  -->
  <!--

 THRESHOLDS:

 ZERO    =  1.00D-12  ONEINT  =  1.00D-12  TWOINT  =  1.00D-12  PREFAC  =  1.00D-14  LOCALI  =  1.00D-09  EORDER  =  1.00D-04
 ENERGY  =  0.00D+00  ETEST   =  0.00D+00  EDENS   =  0.00D+00  THRDEDEF=  1.00D-06  GRADIENT=  1.00D-02  STEP    =  1.00D-03
 ORBITAL =  1.00D-05  CIVEC   =  1.00D-05  COEFF   =  1.00D-04  PRINTCI =  5.00D-02  PUNCHCI =  9.90D+01  OPTGRAD =  3.00D-04
 OPTENERG=  1.00D-06  OPTSTEP =  3.00D-04  THRGRAD =  1.00D-10  COMPRESS=  1.00D-11  VARMIN  =  1.00D-07  VARMAX  =  1.00D-03
 THRDOUB =  0.00D+00  THRDIV  =  1.00D-05  THRRED  =  1.00D-07  THRPSP  =  1.00D+00  THRDC   =  1.00D-10  THRCS   =  1.00D-10
 THRNRM  =  1.00D-08  THREQ   =  0.00D+00  THRDE   =  1.00D+00  THRREF  =  1.00D-05  SPARFAC =  1.00D+00  THRDLP  =  1.00D-07
 THRDIA  =  1.00D-10  THRDLS  =  1.00D-07  THRGPS  =  0.00D+00  THRKEX  =  0.00D+00  THRDIS  =  2.00D-01  THRVAR  =  1.00D-10
 THRLOC  =  1.00D-06  THRGAP  =  1.00D-06  THRLOCT = -1.00D+00  THRGAPT = -1.00D+00  THRORB  =  1.00D-06  THRMLTP =  0.00D+00
 THRCPQCI=  1.00D-10  KEXTA   =  0.00D+00  THRCOARS=  0.00D+00  SYMTOL  =  1.00D-06  GRADTOL =  1.00D-06  THROVL  =  1.00D-08
 THRORTH =  1.00D-08  GRID    =  1.00D-06  GRIDMAX =  1.00D-03  DTMAX   =  0.00D+00  THROCCDE=  1.00D-01  THROCCDE=  1.00D-01



 THRESHOLDS:

 ZERO    =  1.00D-12  ONEINT  =  1.00D-12  TWOINT  =  1.00D-12  PREFAC  =  1.00D-14  LOCALI  =  1.00D-09  EORDER  =  1.00D-04
 ENERGY  =  0.00D+00  ETEST   =  0.00D+00  EDENS   =  0.00D+00  THRDEDEF=  1.00D-06  GRADIENT=  1.00D-02  STEP    =  1.00D-03
 ORBITAL =  1.00D-05  CIVEC   =  1.00D-05  COEFF   =  1.00D-04  PRINTCI =  5.00D-02  PUNCHCI =  9.90D+01  OPTGRAD =  3.00D-04
 OPTENERG=  1.00D-06  OPTSTEP =  3.00D-04  THRGRAD =  1.00D-10  COMPRESS=  1.00D-11  VARMIN  =  1.00D-07  VARMAX  =  1.00D-03
 THRDOUB =  0.00D+00  THRDIV  =  1.00D-05  THRRED  =  1.00D-07  THRPSP  =  1.00D+00  THRDC   =  1.00D-10  THRCS   =  1.00D-10
 THRNRM  =  1.00D-08  THREQ   =  0.00D+00  THRDE   =  1.00D+00  THRREF  =  1.00D-05  SPARFAC =  1.00D+00  THRDLP  =  1.00D-07
 THRDIA  =  1.00D-10  THRDLS  =  1.00D-07  THRGPS  =  0.00D+00  THRKEX  =  0.00D+00  THRDIS  =  2.00D-01  THRVAR  =  1.00D-10
 THRLOC  =  1.00D-06  THRGAP  =  1.00D-06  THRLOCT = -1.00D+00  THRGAPT = -1.00D+00  THRORB  =  1.00D-06  THRMLTP =  0.00D+00
 THRCPQCI=  1.00D-10  KEXTA   =  0.00D+00  THRCOARS=  0.00D+00  SYMTOL  =  1.00D-06  GRADTOL =  1.00D-06  THROVL  =  1.00D-12
 THRORTH =  1.00D-08  GRID    =  1.00D-06  GRIDMAX =  1.00D-03  DTMAX   =  0.00D+00  THROCCDE=  1.00D-01  THROCCDE=  1.00D-01


 SETTING DKROLL         =         1.00000000
 SETTING DKHO           =        10.00000000
 SETTING DKHP           =         4.00000000

 Variable memory set to  512000000 words,  buffer space   230000 words

 SETTING BASIS          =    USERDEF
 SETTING OE             =       -75.09181489
 SETTING PDE            =     -5044.36637900
 SETTING NE             =        54.00000000

Geometry recognized as XYZ

 SETTING A1             =        14.00000000
 SETTING B1             =         6.00000000
 SETTING B2             =         6.00000000
 SETTING A2             =         2.00000000
  --><jobstep command="RKS-SCF" commandset="SCFPRO">
   <!--


 Recomputing integrals since basis changed


 Using spherical harmonics



 PROGRAM * SEWARD (Integral evaluation for generally contracted gaussian basis sets)     Author: Roland Lindh, 1990

 Geometry written to block  1 of record 700


 Point group  C2v


   --><cml:molecule>
    <cml:symmetry pointGroup="C2v"/>
    <cml:atomArray>
     <cml:atom id="a1" elementType="Pd" x3="0.0" y3="0.0" z3="0.0"/>
     <cml:atom id="a2" elementType="O" x3="0.0" y3="0.0" z3="1.885"/>
    </cml:atomArray>
    <cml:bondArray>
     <cml:bond atomRefs2="a1 a2"/>
    </cml:bondArray>
   </cml:molecule><!--

 ATOMIC COORDINATES

 NR  ATOM    CHARGE       X              Y              Z

   1  PD     46.00    0.000000000    0.000000000    0.000000000
   2  O       8.00    0.000000000    0.000000000    3.562133745

 Bond lengths in Bohr (Angstrom)

 1-2  3.562133745
     ( 1.885000000)

 NUCLEAR CHARGE:                   54
 NUMBER OF PRIMITIVE AOS:         355
 NUMBER OF SYMMETRY AOS:          299
 NUMBER OF CONTRACTIONS:          182   (  73A1  +  43B1  +  43B2  +  23A2  )
 NUMBER OF CORE ORBITALS:          19   (  10A1  +   4B1  +   4B2  +   1A2  )
 NUMBER OF VALENCE ORBITALS:       10   (   5A1  +   2B1  +   2B2  +   1A2  )


 NUCLEAR REPULSION ENERGY  103.30886664

 One-electron integrals computed with SEWARD

 10nd-order Douglas-Kroll-Hess method activated. McWeeny DKH parametrization is used.

 Computing Douglas-Kroll / X2C integrals

 AO integral compression algorithm  1   Integral accuracy      1.0D-12

     159.908 MB (compressed) written to integral file ( 48.4%)

     Node minimum: 2.359 MB, node maximum: 10.748 MB


 NUMBER OF SORTED TWO-ELECTRON INTEGRALS:    1549142.     BUFFER LENGTH:  32768
 NUMBER OF SEGMENTS:   1  SEGMENT LENGTH:    1549142      RECORD LENGTH: 524288

 Memory used in sort:       2.11 MW

 SORT1 READ    41520926. AND WROTE     1038585. INTEGRALS IN      3 RECORDS. CPU TIME:     0.74 SEC, REAL TIME:     0.76 SEC
 SORT2 READ    23478216. AND WROTE    35715180. INTEGRALS IN    644 RECORDS. CPU TIME:     0.15 SEC, REAL TIME:     0.24 SEC

 Node minimum:     1548720.  Node maximum:     1570662. integrals

 OPERATOR DM      FOR CENTER  0  COORDINATES:    0.000000    0.000000    0.000000

 EXTRA SYMMETRY OF AOS IN SYMMETRY 1:   1 1 1 1 1 1 1 1 1 1   1 1 1 1 1 1 1 1 1 1   1 1 2 1 2 1 2 1 2 1   2 1 2 1 2 1 2 1 2 1
                                        2 1 2 1 2 1 3 2 1 3   2 1 3 2 1 1 1 1 1 1   1 1 1 1 2 1 2 1 2 1   2 1 2
 EXTRA SYMMETRY OF AOS IN SYMMETRY 2:   1 1 1 1 1 1 1 1 1 1   1 1 1 1 1 1 1 1 1 2   1 2 1 2 1 2 1 2 1 2   1 2 1 1 1 1 1 1 1 1
                                        2 1 2
 EXTRA SYMMETRY OF AOS IN SYMMETRY 3:   1 1 1 1 1 1 1 1 1 1   1 1 1 1 1 1 1 1 1 2   1 2 1 2 1 2 1 2 1 2   1 2 1 1 1 1 1 1 1 1
                                        2 1 2
 EXTRA SYMMETRY OF AOS IN SYMMETRY 4:   1 1 1 1 1 1 1 1 1 1   1 1 1 2 1 2 1 2 1 1   1 1 1

 Eigenvalues of metric

         1 0.111E-03 0.304E-03 0.453E-03 0.742E-03 0.154E-02 0.158E-02 0.343E-02 0.458E-02
         2 0.644E-03 0.156E-02 0.206E-02 0.129E-01 0.271E-01 0.407E-01 0.491E-01 0.511E-01
         3 0.644E-03 0.156E-02 0.206E-02 0.129E-01 0.271E-01 0.407E-01 0.491E-01 0.511E-01
         4 0.158E-02 0.224E-01 0.871E-01 0.103E+00 0.131E+00 0.148E+00 0.210E+00 0.323E+00


 **********************************************************************************************************************************
 DATASETS  * FILE   NREC   LENGTH (MB)   RECORD NAMES
              1      22       20.91       500      610      700      900      950      970     1000      129      960     1700
                                          VAR    BASINP    GEOM    SYMINP    ZMAT    AOBASIS   BASIS     P2S    ABASIS    OPER
                                         1101     1401     1411     1412     1650     1100     1400     1410     1200     1210
                                          SR      EKINR    POTR     PVPR    MOLCAS      S      EKIN      POT      H0       H01
                                         1080     1600
                                         AOSYM     SMH

 PROGRAMS   *        TOTAL       INT
 CPU TIMES  *         8.78      8.44
 REAL TIME  *        10.08 SEC
 DISK USED  *       427.66 MB
 GA USED    *         0.00 MB       (max)       0.00 MB       (current)
 **********************************************************************************************************************************

 Density functional group PBE0=PBEX+PBEC
 Functional: PBEX(Automatically generated (new) PBEX)                          Gradient terms: 1
 Functional: PBEC(Automatically generated (new) PBEC)                          Gradient terms: 1
 Use grid at  1800.2


 Exact exchange will be calculated, factor:  0.2500

 Functional: PBEX                      Factor:  0.7500
 Functional: PBEC                      Factor:  1.0000

 Generated new metagrid on record  1800.2 with target accuracy 1.0D-06 and 4976 points in CPU time    0.1
 Computed new grid on record 1800.1 in CPU time    0.1
  152282 words reserved for DFT integration

 PROGRAM * RKS-SCF (Restricted open shell Kohn-Sham)     Authors: W. Meyer, H.-J. Werner, P.J. Knowles, 1993

 NUMBER OF ELECTRONS:      28+   26-    SPACE SYMMETRY=2    SPIN SYMMETRY: Triplet
 CONVERGENCE THRESHOLDS:    1.00E-05 (Density)    1.08E-06 (Energy)
 MAX. NUMBER OF ITERATIONS:       60
 INTERPOLATION TYPE:            DIIS
 INTERPOLATION STEPS:              2 (START)      1 (STEP)
 LEVEL SHIFTS:                 -0.60 (CLOSED) -0.30 (OPEN)

 Number of closed-shell orbitals:   26 (  13   5   6   2 )
 Number of open-shell orbitals:      2 (   1   1   0   0 )


 Use fine grid record 1800.2 for energy threshold  1.0D-06
 Orbital guess generated from atomic densities. Full valence occupancy:   15   6   6   2

 Molecular orbital dump at record        2100.2

 ITERATION    DDIFF          GRAD             ENERGY        2-EL.EN.            DIPOLE MOMENTS         DIIS   ORB.
    1      0.000D+00      0.000D+00     -5099.19363873   3775.039901    0.00000    0.00000  -10.02809    0    start
    2      0.000D+00      0.755D-01     -5089.89249180   4838.679154    0.00000    0.00000   20.19537    1    diag,B
    3      0.564D+00      0.194D+00     -5111.42711556   4620.087467    0.00000    0.00000    7.50402    2    diag,B
    4      0.544D-01      0.113D+00     -5114.74920125   4550.066482    0.00000    0.00000    6.36618    3    diag,B
    5      0.156D-01      0.850D-01     -5118.16104690   4476.208841    0.00000    0.00000    1.95473    4    diag,B
    6      0.222D-01      0.533D-01     -5119.20664701   4423.864639    0.00000    0.00000    1.42318    5    diag,B
    7      0.114D-01      0.338D-01     -5120.12903341   4349.583339    0.00000    0.00000   -0.65767    6    fixocc
    8      0.153D-01      0.773D-02     -5120.20513910   4325.973266    0.00000    0.00000   -1.38262    7    diag,B
    9      0.621D-02      0.152D-02     -5120.21340953   4320.346139    0.00000    0.00000   -1.65380    8    diag,B
   10      0.311D-02      0.113D-02     -5120.21715138   4319.531995    0.00000    0.00000   -1.63137    9    orth
   11      0.152D-02      0.653D-03     -5120.21931935   4319.287961    0.00000    0.00000   -1.65845    9    diag,B
   12      0.123D-02      0.402D-03     -5120.22069329   4319.076665    0.00000    0.00000   -1.65952    9    diag,B
   13      0.116D-02      0.190D-03     -5120.22125619   4319.102869    0.00000    0.00000   -1.65292    9    diag,B
   14      0.809D-03      0.643D-04     -5120.22139701   4318.987001    0.00000    0.00000   -1.65227    9    diag,B
   15      0.383D-03      0.373D-04     -5120.22144556   4318.971331    0.00000    0.00000   -1.65021    9    diag,B
   16      0.259D-03      0.209D-04     -5120.22145963   4318.967681    0.00000    0.00000   -1.64929    9    diag,B
   17      0.153D-03      0.989D-05     -5120.22146233   4318.969870    0.00000    0.00000   -1.64835    9    diag,B
   18      0.712D-04      0.566D-05     -5120.22146280   4318.970964    0.00000    0.00000   -1.64877    9    diag,B
   19      0.328D-04      0.220D-05     -5120.22146286   4318.970253    0.00000    0.00000   -1.64862    9    diag,B
   20      0.123D-04      0.124D-05     -5120.22146288   4318.970916    0.00000    0.00000   -1.64881    9    orth
   21      0.471D-05      0.693D-06     -5120.22146289   4318.970696    0.00000    0.00000   -1.64879    0    orth

 Final alpha occupancy:  14   6   6   2
 Final beta  occupancy:  13   5   6   2

 !RKS STATE 1.2 Energy              -5120.221462888771
   --><property name="Energy" method="RKS" principal="true" stateSymmetry="2" stateNumber="1"
     value="-5120.22146288877"/><!--
 Nuclear energy                       103.30886664
 One-electron energy                -7267.26122392
 Two-electron energy                 2159.48534812
 Density functional                  -115.75445373     PBEX=-150.78347527 PBEC=  -2.66684727
 Virial quotient                       -0.88776379
 !RKS STATE 1.2 Dipole moment           0.00000000     0.00000000    -1.64878516
 Dipole moment /Debye                   0.00000000     0.00000000    -4.19051939
   --><property name="Dipole moment" method="RKS" principal="true" stateSymmetry="2"
     stateNumber="1" value="0.0 0.0 -1.64878516262738"/><!--

 Orbital energies:

         1.1          2.1          3.1          4.1          5.1          6.1          7.1          8.1          9.1         10.1
   -889.961031  -130.835450  -117.303209   -24.029699   -19.551533   -19.226169   -12.404536   -12.393934    -3.443868    -2.155548

        11.1         12.1         13.1         14.1         15.1         16.1
     -0.899612    -0.373896    -0.295399    -0.261456    -0.095240     0.015259

         1.2          2.2          3.2          4.2          5.2          6.2          7.2          8.2
   -117.297967   -19.539789   -12.402774    -2.135257    -0.336983    -0.323486    -0.005537     0.041225

         1.3          2.3          3.3          4.3          5.3          6.3          7.3          8.3
   -117.296754   -19.536794   -12.400873    -2.132031    -0.350854    -0.246828    -0.003077     0.042363

         1.4          2.4          3.4          4.4
    -12.394049    -0.295440     0.070441     0.255438

 HOMO      6.3    -0.246828 =      -6.7165eV
 LUMO     15.1    -0.095240 =      -2.5916eV
 LUMO-HOMO         0.151588 =       4.1249eV


 **********************************************************************************************************************************
 DATASETS  * FILE   NREC   LENGTH (MB)   RECORD NAMES
              1      23       20.91       500      610      700      900      950      970     1000      129      960     1700
                                          VAR    BASINP    GEOM    SYMINP    ZMAT    AOBASIS   BASIS     P2S    ABASIS    OPER
                                         1101     1401     1411     1412     1650     1100     1400     1410     1200     1210
                                          SR      EKINR    POTR     PVPR    MOLCAS      S      EKIN      POT      H0       H01
                                         1080     1600     1800
                                         AOSYM     SMH     GRID

              2       5        3.08       700     1000      520     1800     2100
                                         GEOM     BASIS   MCVARS    GRID      RKS

 PROGRAMS   *        TOTAL       RKS       INT
 CPU TIMES  *        12.90      4.12      8.44
 REAL TIME  *        14.40 SEC
 DISK USED  *         1.01 GB
 SF USED    *         0.04 MB
 GA USED    *         0.22 MB       (max)       0.22 MB       (current)
 **********************************************************************************************************************************
   -->
   <time start="03:15:11" end="03:15:25" cpu="12.9" system="0.99" real="14.4"/>
   <storage units="megabyte" memory="4097.84" sf="0.04" df="585.66" eaf="427.66" ga="0.22"/>
  </jobstep><!--
  --><jobstep command="RHF-SCF" commandset="SCFPRO">
   <!--


 PROGRAM * RHF-SCF (OPEN SHELL)       Authors: W. Meyer, H.-J. Werner


 NUMBER OF ELECTRONS:      28+   26-    SPACE SYMMETRY=2    SPIN SYMMETRY: Triplet
 CONVERGENCE THRESHOLDS:    1.00E-05 (Density)    1.08E-07 (Energy)
 MAX. NUMBER OF ITERATIONS:       60
 INTERPOLATION TYPE:            DIIS
 INTERPOLATION STEPS:              2 (START)      1 (STEP)
 LEVEL SHIFTS:                 -0.60 (CLOSED) -0.30 (OPEN)

 Number of closed-shell orbitals:   26 (  13   5   6   2 )
 Number of open-shell orbitals:      2 (   1   1   0   0 )


 Molecular orbitals read from record     2100.2  Type=RKS/CANONICAL (state 1.2)

 Molecular orbital dump at record        2101.2

 ITERATION    DDIFF          GRAD             ENERGY        2-EL.EN.            DIPOLE MOMENTS         DIIS   ORB.
    1      0.000D+00      0.000D+00     -5117.67396854   4092.556777    0.00000    0.00000   -1.64879    0    start
    2      0.000D+00      0.118D-01     -5117.70273576   4093.269921    0.00000    0.00000   -1.76799    1    diag,B
    3      0.735D-02      0.144D-02     -5117.71218863   4093.870387    0.00000    0.00000   -1.86172    2    diag,B
    4      0.141D-02      0.834D-03     -5117.71914273   4094.000810    0.00000    0.00000   -1.94783    3    diag,B
    5      0.127D-02      0.577D-03     -5117.72424661   4093.988033    0.00000    0.00000   -2.05902    4    diag,B
    6      0.150D-02      0.346D-03     -5117.72594186   4093.923393    0.00000    0.00000   -2.11898    5    diag,B
    7      0.981D-03      0.173D-03     -5117.72636651   4093.694479    0.00000    0.00000   -2.15103    6    diag,B
    8      0.437D-03      0.115D-03     -5117.72652527   4093.735918    0.00000    0.00000   -2.16620    7    orth
    9      0.275D-03      0.612D-04     -5117.72657673   4093.670335    0.00000    0.00000   -2.17640    8    diag,B
   10      0.185D-03      0.314D-04     -5117.72658819   4093.678717    0.00000    0.00000   -2.17872    9    diag,B
   11      0.868D-04      0.163D-04     -5117.72659233   4093.679632    0.00000    0.00000   -2.17994    9    diag,B
   12      0.575D-04      0.924D-05     -5117.72659364   4093.682690    0.00000    0.00000   -2.17946    9    diag,B
   13      0.243D-04      0.670D-05     -5117.72659465   4093.684487    0.00000    0.00000   -2.17960    9    diag,B
   14      0.210D-04      0.525D-05     -5117.72659551   4093.688083    0.00000    0.00000   -2.17962    9    diag,B
   15      0.201D-04      0.431D-05     -5117.72659628   4093.688903    0.00000    0.00000   -2.17976    9    diag,B
   16      0.220D-04      0.347D-05     -5117.72659701   4093.691133    0.00000    0.00000   -2.17993    9    diag,B
   17      0.278D-04      0.253D-05     -5117.72659743   4093.691180    0.00000    0.00000   -2.17988    9    diag,B
   18      0.251D-04      0.167D-05     -5117.72659761   4093.691150    0.00000    0.00000   -2.17973    9    orth
   19      0.199D-04      0.821D-06     -5117.72659764   4093.690917    0.00000    0.00000   -2.17964    9    diag,B
   20      0.746D-05      0.370D-06     -5117.72659764   4093.690823    0.00000    0.00000   -2.17963    0    orth

 Final alpha occupancy:  14   6   6   2
 Final beta  occupancy:  13   5   6   2

 !RHF STATE 1.2 Energy              -5117.726597636804
   --><property name="Energy" method="RHF" principal="true" stateSymmetry="2" stateNumber="1"
     value="-5117.7265976368"/><!--
 Nuclear energy                       103.30886664
 One-electron energy                -7267.88087589
 Two-electron energy                 2046.84541161
 Virial quotient                       -0.88705798
 !RHF STATE 1.2 Dipole moment           0.00000000     0.00000000    -2.17963289
 Dipole moment /Debye                   0.00000000     0.00000000    -5.53971135
   --><property name="Dipole moment" method="RHF" principal="true" stateSymmetry="2"
     stateNumber="1" value="0.0 0.0 -2.17963288550054"/><!--

 Orbital energies:

         1.1          2.1          3.1          4.1          5.1          6.1          7.1          8.1          9.1         10.1
   -899.574865  -134.533228  -120.426695   -25.687101   -20.931149   -20.516896   -13.343961   -13.341428    -3.991753    -2.548022

        11.1         12.1         13.1         14.1         15.1         16.1
     -1.148406    -0.478224    -0.452145    -0.426387    -0.011205     0.032999

         1.2          2.2          3.2          4.2          5.2          6.2          7.2          8.2
   -120.422913   -20.916589   -13.353217    -2.542778    -0.482932    -0.516084     0.022495     0.079201

         1.3          2.3          3.3          4.3          5.3          6.3          7.3          8.3
   -120.422829   -20.916459   -13.353798    -2.542582    -0.514398    -0.385173     0.023442     0.080659

         1.4          2.4          3.4          4.4
    -13.343846    -0.452381     0.095135     0.323416

 HOMO      6.3    -0.385173 =     -10.4811eV
 LUMO     15.1    -0.011205 =      -0.3049eV
 LUMO-HOMO         0.373968 =      10.1762eV


 **********************************************************************************************************************************
 DATASETS  * FILE   NREC   LENGTH (MB)   RECORD NAMES
              1      23       20.91       500      610      700      900      950      970     1000      129      960     1700
                                          VAR    BASINP    GEOM    SYMINP    ZMAT    AOBASIS   BASIS     P2S    ABASIS    OPER
                                         1101     1401     1411     1412     1650     1100     1400     1410     1200     1210
                                          SR      EKINR    POTR     PVPR    MOLCAS      S      EKIN      POT      H0       H01
                                         1080     1600     1800
                                         AOSYM     SMH     GRID

              2       6        5.96       700     1000      520     1800     2100     2101
                                         GEOM     BASIS   MCVARS    GRID      RKS      RHF

 PROGRAMS   *        TOTAL       RHF       RKS       INT
 CPU TIMES  *        14.18      1.26      4.12      8.44
 REAL TIME  *        15.80 SEC
 DISK USED  *         1.08 GB
 SF USED    *         0.04 MB
 GA USED    *         0.22 MB       (max)       0.22 MB       (current)
 **********************************************************************************************************************************
   -->
   <time start="03:15:25" end="03:15:26" cpu="1.28" system="0.1" real="1.4"/>
   <storage units="megabyte" memory="4097.84" sf="0.04" df="651.96" eaf="427.66" ga="0.22"/>
  </jobstep><!--
 SETTING BASIS          =    USERDEF
  --><jobstep command="RHF-SCF" commandset="SCFPRO">
   <!--


 Recomputing integrals since basis changed


 Using spherical harmonics



 PROGRAM * SEWARD (Integral evaluation for generally contracted gaussian basis sets)     Author: Roland Lindh, 1990

 Geometry written to block  1 of record 700


 Point group  C2v



 ATOMIC COORDINATES

 NR  ATOM    CHARGE       X              Y              Z

   1  PD     46.00    0.000000000    0.000000000    0.000000000
   2  O       8.00    0.000000000    0.000000000    3.562133745

 Bond lengths in Bohr (Angstrom)

 1-2  3.562133745
     ( 1.885000000)

 NUCLEAR CHARGE:                   54
 NUMBER OF PRIMITIVE AOS:         642
 NUMBER OF SYMMETRY AOS:          471
 NUMBER OF CONTRACTIONS:          471   ( 186A1  + 112B1  + 112B2  +  61A2  )
 NUMBER OF CORE ORBITALS:          19   (  10A1  +   4B1  +   4B2  +   1A2  )
 NUMBER OF VALENCE ORBITALS:       10   (   5A1  +   2B1  +   2B2  +   1A2  )


 NUCLEAR REPULSION ENERGY  103.30886664

 One-electron integrals computed with SEWARD

 10nd-order Douglas-Kroll-Hess method activated. McWeeny DKH parametrization is used.

 Computing Douglas-Kroll / X2C integrals

 AO integral compression algorithm  1   Integral accuracy      1.0D-12

     3472.622 MB (compressed) written to integral file ( 24.7%)

     Node minimum: 110.363 MB, node maximum: 244.318 MB


 NUMBER OF SORTED TWO-ELECTRON INTEGRALS:   68260071.     BUFFER LENGTH:  32768
 NUMBER OF SEGMENTS:   3  SEGMENT LENGTH:   31974204      RECORD LENGTH: 524288

 Memory used in sort:      32.53 MW

 SORT1 READ  1760380706. AND WROTE    27256914. INTEGRALS IN     80 RECORDS. CPU TIME:    35.68 SEC, REAL TIME:    44.98 SEC
 SORT2 READ   630746073. AND WROTE  1570932477. INTEGRALS IN  21436 RECORDS. CPU TIME:    13.34 SEC, REAL TIME:    14.26 SEC

 Node minimum:    68250355.  Node maximum:    68491598. integrals

 OPERATOR DM      FOR CENTER  0  COORDINATES:    0.000000    0.000000    0.000000

 EXTRA SYMMETRY OF AOS IN SYMMETRY 1:   1 1 1 1 1 1 1 1 1 1   1 1 1 1 1 1 1 1 1 1   1 1 1 1 1 1 1 1 1 1   1 1 1 1 1 1 1 1 1 1
                                        1 1 1 1 1 1 1 1 1 1   1 1 1 2 1 2 1 2 1 2   1 2 1 2 1 2 1 2 1 2   1 2 1 2 1 2 1 2 1 2
                                        1 2 1 2 1 2 1 2 1 2   1 2 1 2 1 2 1 3 2 1   3 2 1 3 2 1 3 2 2 3   1 2 3 1 2 3 1 4 3 2
                                        1 4 3 2 1 1 1 1 1 1   1 1 1 1 1 1 1 1 1 1   1 1 1 1 1 1 1 1 1 1   1 1 1 1 2 1 2 1 2 1
                                        2 1 2 1 2 1 2 1 2 1   2 1 3 2 1 3 2 1 3 2   2 3 1 2 3 1
 EXTRA SYMMETRY OF AOS IN SYMMETRY 2:   1 1 1 1 1 1 1 1 1 1   1 1 1 1 1 1 1 1 1 1   1 1 1 1 1 1 1 1 1 1   1 1 1 1 1 1 1 1 1 1
                                        1 2 1 2 1 2 1 2 1 2   1 2 1 2 1 2 1 2 1 2   3 1 2 3 1 2 3 3 2 1   3 2 1 1 1 1 1 1 1 1
                                        1 1 1 1 1 1 1 1 1 1   1 1 1 2 1 2 1 2 1 2   1 2 1 2 1 2 1 2 3 1   2 3
 EXTRA SYMMETRY OF AOS IN SYMMETRY 3:   1 1 1 1 1 1 1 1 1 1   1 1 1 1 1 1 1 1 1 1   1 1 1 1 1 1 1 1 1 1   1 1 1 1 1 1 1 1 1 1
                                        1 2 1 2 1 2 1 2 1 2   1 2 1 2 1 2 1 2 1 2   3 1 2 3 1 2 3 3 2 1   3 2 1 1 1 1 1 1 1 1
                                        1 1 1 1 1 1 1 1 1 1   1 1 1 2 1 2 1 2 1 2   1 2 1 2 1 2 1 2 3 1   2 3
 EXTRA SYMMETRY OF AOS IN SYMMETRY 4:   1 1 1 1 1 1 1 1 1 1   1 1 1 1 1 1 1 1 1 1   1 1 1 2 1 2 1 2 1 2   2 1 2 1 2 1 1 3 2 1
                                        3 2 1 1 1 1 1 1 1 1   1 1 2 1 2 1 2 2 1 2   1

 Eigenvalues of metric

         1 0.256E-07 0.832E-07 0.538E-06 0.841E-06 0.845E-06 0.178E-05 0.625E-05 0.727E-05
         2 0.285E-07 0.767E-06 0.967E-06 0.889E-05 0.173E-04 0.621E-04 0.266E-03 0.465E-03
         3 0.285E-07 0.767E-06 0.967E-06 0.889E-05 0.173E-04 0.621E-04 0.266E-03 0.465E-03
         4 0.948E-05 0.305E-03 0.301E-02 0.106E-01 0.154E-01 0.223E-01 0.294E-01 0.486E-01


 **********************************************************************************************************************************
 DATASETS  * FILE   NREC   LENGTH (MB)   RECORD NAMES
              1      22       24.20       500      610      700      900      950      970     1001      129      960     1700
                                          VAR    BASINP    GEOM    SYMINP    ZMAT    AOBASIS   BASIS     P2S    ABASIS    OPER
                                         1101     1401     1411     1412     1650     1100     1400     1410     1200     1210
                                          SR      EKINR    POTR     PVPR    MOLCAS      S      EKIN      POT      H0       H01
                                         1080     1600
                                         AOSYM     SMH

              2       7        6.16       700     1000      520     1800     2100     2101     1001
                                         GEOM     BASIS   MCVARS    GRID      RKS      RHF     BASIS

 PROGRAMS   *        TOTAL       INT       RHF       RKS       INT
 CPU TIMES  *       117.04    102.84      1.26      4.12      8.44
 REAL TIME  *       129.38 SEC
 DISK USED  *        11.73 GB
 SF USED    *         0.04 MB
 GA USED    *         0.22 MB       (max)       0.00 MB       (current)
 **********************************************************************************************************************************


 PROGRAM * RHF-SCF (OPEN SHELL)       Authors: W. Meyer, H.-J. Werner


 NUMBER OF ELECTRONS:      28+   26-    SPACE SYMMETRY=2    SPIN SYMMETRY: Triplet
 CONVERGENCE THRESHOLDS:    1.00E-05 (Density)    1.08E-07 (Energy)
 MAX. NUMBER OF ITERATIONS:       60
 INTERPOLATION TYPE:            DIIS
 INTERPOLATION STEPS:              2 (START)      1 (STEP)
 LEVEL SHIFTS:                 -0.60 (CLOSED) -0.30 (OPEN)

 Number of closed-shell orbitals:   26 (  13   5   6   2 )
 Number of open-shell orbitals:      2 (   1   1   0   0 )


 Molecular orbitals read from record     2101.2  Type=RHF/CANONICAL (state 1.2)

 Present basis size:     186 112 112  61
 Previous basis size:     73  43  43  23
 Previous occupation:     14   6   6   2
 Previous closed-shells:  13   5   6   2
 Previous core-orbitals:  10   4   4   1
 Present occupation:      14   6   6   2
 Present closed-shells:   13   5   6   2
 Present core-orbitals:   10   4   4   1
 Wavefunction symmetry:    2   Triplet

 Orbital overlap <old|new>:  < 1.1| 1.1> = 1.000000   < 2.1| 2.1> = 1.000000   < 3.1| 3.1> = 1.000000   < 4.1| 4.1> = 1.000000
                             < 5.1| 5.1> = 1.000000   < 6.1| 6.1> = 0.999164   < 7.1| 7.1> = 1.000000   < 8.1| 8.1> = 1.000000
                             < 9.1| 9.1> = 1.000000   <10.1|10.1> = 1.000000   < 1.2| 1.2> = 1.000000   < 2.2| 2.2> = 1.000000
                             < 3.2| 3.2> = 1.000000   < 4.2| 4.2> = 1.000000   < 1.3| 1.3> = 1.000000   < 2.3| 2.3> = 1.000000
                             < 3.3| 3.3> = 1.000000   < 4.3| 4.3> = 1.000000   < 1.4| 1.4> = 1.000000   <11.1|11.1> = 0.999957
                             <12.1|12.1> = 0.999996   <13.1|13.1> = 1.000000   < 5.2| 5.2> = 1.000000   < 5.3| 5.3> = 0.999999
                             < 6.3| 6.3> = 0.999997   < 2.4| 2.4> = 1.000000   <14.1|14.1> = 0.999999   < 6.2| 6.2> = 0.999996

 Molecular orbital dump at record        2102.2

 ITERATION    DDIFF          GRAD             ENERGY        2-EL.EN.            DIPOLE MOMENTS         DIIS   ORB.
    1      0.000D+00      0.000D+00     -5115.68076841   4093.629199    0.00000    0.00000   -2.17958    0    start
    2      0.000D+00      0.548D-01     -5115.76935275   4093.090617    0.00000    0.00000   -2.18010    1    diag,B
    3      0.118D+02      0.879D-03     -5115.76999808   4093.069317    0.00000    0.00000   -2.20089    2    diag,B
    4      0.494D+00      0.169D-03     -5115.77009880   4093.183277    0.00000    0.00000   -2.20192    3    diag,B
    5      0.340D-01      0.631D-04     -5115.77012353   4093.088156    0.00000    0.00000   -2.20707    4    diag,B
    6      0.578D-02      0.311D-04     -5115.77012942   4093.145840    0.00000    0.00000   -2.20898    5    diag,B
    7      0.359D-02      0.114D-04     -5115.77013087   4093.135493    0.00000    0.00000   -2.21039    6    diag,B
    8      0.237D-02      0.559D-05     -5115.77013157   4093.136056    0.00000    0.00000   -2.21187    7    orth
    9      0.176D-02      0.267D-05     -5115.77013178   4093.137514    0.00000    0.00000   -2.21272    8    diag,B
   10      0.339D-03      0.126D-05     -5115.77013185   4093.137680    0.00000    0.00000   -2.21311    9    diag,B
   11      0.162D-03      0.717D-06     -5115.77013187   4093.137734    0.00000    0.00000   -2.21326    9    diag,B
   12      0.187D-03      0.422D-06     -5115.77013188   4093.138270    0.00000    0.00000   -2.21332    9    diag,B
   13      0.148D-03      0.238D-06     -5115.77013188   4093.138248    0.00000    0.00000   -2.21333    9    diag,B
   14      0.362D-04      0.154D-06     -5115.77013189   4093.138460    0.00000    0.00000   -2.21333    9    diag,B
   15      0.271D-04      0.120D-06     -5115.77013190   4093.138516    0.00000    0.00000   -2.21333    9    diag,B
   16      0.102D-03      0.100D-06     -5115.77013188   4093.138536    0.00000    0.00000   -2.21333    9    diag,B
   17      0.113D-03      0.939D-07     -5115.77013189   4093.138552    0.00000    0.00000   -2.21333    9    diag,B
   18      0.906D-04      0.796D-07     -5115.77013189   4093.138607    0.00000    0.00000   -2.21333    9    orth
   19      0.904D-04      0.550D-07     -5115.77013189   4093.138614    0.00000    0.00000   -2.21333    9    diag,B
   20      0.709D-04      0.374D-07     -5115.77013188   4093.138614    0.00000    0.00000   -2.21333    9    diag,B
   21      0.768D-04      0.262D-07     -5115.77013190   4093.138605    0.00000    0.00000   -2.21333    9    diag,B
   22      0.638D-04      0.194D-07     -5115.77013188   4093.138610    0.00000    0.00000   -2.21332    9    diag,B
   23      0.505D-04      0.139D-07     -5115.77013188   4093.138609    0.00000    0.00000   -2.21332    9    diag,B
   24      0.199D-04      0.797D-08     -5115.77013189   4093.138606    0.00000    0.00000   -2.21332    9    diag,B
   25      0.125D-04      0.137D-07     -5115.77013191   4093.138605    0.00000    0.00000   -2.21332    9    diag,B
   26      0.348D-05      0.273D-07     -5115.77013189   4093.138604    0.00000    0.00000   -2.21332    0    orth

 Final alpha occupancy:  14   6   6   2
 Final beta  occupancy:  13   5   6   2

 !RHF STATE 1.2 Energy              -5115.770131889643
   --><property name="Energy" method="RHF" principal="true" stateSymmetry="2" stateNumber="1"
     value="-5115.77013188964"/><!--
 Nuclear energy                       103.30886664
 One-electron energy                -7265.64830076
 Two-electron energy                 2046.56930223
 Virial quotient                       -0.88735290
 !RHF STATE 1.2 Dipole moment           0.00000000     0.00000000    -2.21332309
 Dipole moment /Debye                   0.00000000     0.00000000    -5.62533769
   --><property name="Dipole moment" method="RHF" principal="true" stateSymmetry="2"
     stateNumber="1" value="0.0 0.0 -2.21332308626651"/><!--

 Orbital energies:

         1.1          2.1          3.1          4.1          5.1          6.1          7.1          8.1          9.1         10.1
   -899.569680  -134.534275  -120.427133   -25.688580   -20.932444   -19.686936   -13.345592   -13.342846    -3.993181    -2.549259

        11.1         12.1         13.1         14.1         15.1         16.1
     -1.100533    -0.482681    -0.453603    -0.429450    -0.011675     0.030664

         1.2          2.2          3.2          4.2          5.2          6.2          7.2          8.2
   -120.423445   -20.918041   -13.354693    -2.544240    -0.484392    -0.522761     0.021963     0.077831

         1.3          2.3          3.3          4.3          5.3          6.3          7.3          8.3
   -120.423361   -20.917899   -13.355268    -2.544049    -0.517240    -0.390077     0.022853     0.079137

         1.4          2.4          3.4          4.4
    -13.345491    -0.453804     0.094065     0.314182

 HOMO      6.3    -0.390077 =     -10.6145eV
 LUMO     15.1    -0.011675 =      -0.3177eV
 LUMO-HOMO         0.378401 =      10.2968eV


 **********************************************************************************************************************************
 DATASETS  * FILE   NREC   LENGTH (MB)   RECORD NAMES
              1      22       24.20       500      610      700      900      950      970     1001      129      960     1700
                                          VAR    BASINP    GEOM    SYMINP    ZMAT    AOBASIS   BASIS     P2S    ABASIS    OPER
                                         1101     1401     1411     1412     1650     1100     1400     1410     1200     1210
                                          SR      EKINR    POTR     PVPR    MOLCAS      S      EKIN      POT      H0       H01
                                         1080     1600
                                         AOSYM     SMH

              2       8       10.45       700     1000      520     1800     2100     2101     1001     2102
                                         GEOM     BASIS   MCVARS    GRID      RKS      RHF     BASIS     RHF

 PROGRAMS   *        TOTAL       RHF       INT       RHF       RKS       INT
 CPU TIMES  *       131.12     13.85    102.84      1.26      4.12      8.44
 REAL TIME  *       144.16 SEC
 DISK USED  *        12.09 GB
 SF USED    *         0.26 MB
 GA USED    *         0.22 MB       (max)       0.00 MB       (current)
 **********************************************************************************************************************************
   -->
   <time start="03:15:26" end="03:17:35" cpu="116.94" system="11.09" real="128.36"/>
   <storage units="megabyte" memory="4097.84" sf="0.26" df="1011.05" eaf="11079.21"
     ga="0.0"/>
  </jobstep><!--
 SETTING SCF            =     -5115.77013189  AU
 SETTING _CC_NORM_MAX   =         2.00000000
  --><jobstep command="RCCSD(T)" commandset="CCSD">
   <!--


 PROGRAM * CCSD (Restricted open-shell coupled cluster)     Authors: C. Hampel, H.-J. Werner, 1991, M. Deegan, P.J. Knowles, 1992


 Convergence thresholds:  THRVAR = 1.00D-08  THRDEN = 1.08D-06

 CCSD(T)     terms to be evaluated (factor= 1.000)


 Number of closed-shell orbitals:  26 (  13   5   6   2 )
 Number of active  orbitals:        2 (   1   1   0   0 )
 Number of external orbitals:     443 ( 172 106 106  59 )

 For full I/O caching in triples, increase memory by 456.44 Mwords to 968.72 Mwords.

 Number of N-1 electron functions:              54
 Number of N-2 electron functions:            1431
 Number of singly external CSFs:              7356
 Number of doubly external CSFs:          54592887
 Total number of CSFs:                    54600243

 Molecular orbitals read from record     2102.2  Type=RHF/CANONICAL (state 1.2)

 Integral transformation finished. Total CPU:  66.38 sec, npass=  1  Memory used: 103.89 MW

 Starting RMP2 calculation

 Wavefunction is spin-projected

 ITER.      SQ.NORM     CORR.ENERGY   TOTAL ENERGY   ENERGY CHANGE        DEN1      VAR(S)    VAR(P)  DIIS     TIME
   1      1.19854340    -2.02079725 -5117.79092915    -2.02079725    -0.00162734  0.11D-04  0.57D-03  1  1    99.75
   2      1.19992777    -2.02251792 -5117.79264981    -0.00172067    -0.00000593  0.30D-06  0.32D-05  2  2   116.43
   3      1.20001161    -2.02257409 -5117.79270599    -0.00005617    -0.00000004  0.12D-07  0.21D-07  3  3   134.37
   4      1.20001409    -2.02257434 -5117.79270624    -0.00000025    -0.00000000  0.30D-09  0.20D-09  4  4   150.86

 Norm of t1 vector:      0.04103912      S-energy:    -0.00554116      T1 diagnostic:  0.00034523
 Norm of t2 vector:      0.44534244      P-energy:    -2.01703317
                                         Alpha-Beta:  -1.38439431
                                         Alpha-Alpha: -0.33821746
                                         Beta-Beta:   -0.29442141

 Spin contamination <S**2-Sz**2-Sz>     0.00000000
  Reference energy                  -5115.770131897662
   --><property name="energy" method="Reference" stateSymmetry="1" stateNumber="1"
     value="-5115.77013189766"/><!--
  RHF-RMP2 correlation energy          -2.022574337552
   --><property name="energy" method="RHF-RMP2 correlation" stateSymmetry="1" stateNumber="1"
     value="-2.02257433755246"/><!--
 !RHF-RMP2 energy                   -5117.792706235215
   --><property name="energy" method="RHF-RMP2" principal="true" stateSymmetry="2"
     stateNumber="1" value="-5117.79270623521"/><!--
 (NB above energy spin projected)

 Starting RCCSD calculation

 ITER.      SQ.NORM     CORR.ENERGY   TOTAL ENERGY   ENERGY CHANGE        DEN1      VAR(S)    VAR(P)  DIIS     TIME
   1      1.17256718    -1.90689913 -5117.67703103    -1.90689913    -0.03650359  0.88D-02  0.42D-02  0  0   352.41
   2      1.19173957    -1.94073008 -5117.71086198    -0.03383094    -0.01081422  0.32D-03  0.14D-02  0  0   553.18
   3      1.21742749    -1.93708232 -5117.70721422     0.00364776    -0.65728618  0.13D-02  0.17D-01  0  0   752.40
   4      3.64829062    -1.94768248 -5117.71781437    -0.01060016   -79.06370729  0.34D-03  0.24D+01  0  0   958.07
   5    268.34937047    -1.94411153 -5117.71424343     0.00357094-10353.67481532  0.78D-02  0.26D+03  0  0  1152.57

 UNREASONABLE NORM:268.349370 CALCULATION WILL BE STOPPED

 The threshold can be changed using option CC_NORM_MAX (see manual). The current value is CC_NORM_MAX=2.00

 Norm of t1 vector:      0.19802314      S-energy:    -0.00586490      T1 diagnostic:  0.01845546
                                                                       D1 diagnostic:  0.07419550
 Norm of t2 vector:     16.34962254      P-energy:    -1.93824663
                                         Alpha-Beta:  -1.36333426
                                         Alpha-Alpha: -0.30518978
                                         Beta-Beta:   -0.26972259

 Singles amplitudes (print threshold =  0.500E-01):

         I         SYM. A    A   T(IA) [Beta-Beta]

        12         1         1      0.10447867
        19         2         1      0.08116332

 Doubles amplitudes (print threshold =  0.500E-01):

         I         J         SYM. A    SYM. B    A         B      T(IJ, AB) [Alpha-Alpha]

        20        11         1         2        36        56     -0.05156492
        20        11         1         2        36        62     -0.05661887
        20        11         1         2        49        56     -0.05221533
        20        11         1         2        49        62     -0.05632756
        20        11         1         2        51        56     -0.05074416
        20        11         1         2        51        62     -0.05636180
        20        11         1         2        58        22     -0.05629247
        20        11         1         2        58        33      0.07278200
        20        11         1         2        58        39      0.09189415
        20        11         1         2        58        56      0.10460519
        20        11         1         2        58        62      0.11574710
        20        11         1         2        58        78      0.10130975
        20        11         1         2        58        85     -0.07142014
        20        11         1         2        77        33      0.05130935
        20        11         1         2        77        39      0.06800246
        20        11         1         2        77        56      0.07865950
        20        11         1         2        77        62      0.08995838
        20        11         1         2        77        78      0.08060207
        20        11         1         2        77        85     -0.05835037
        20        11         1         2        79        62     -0.05414915
        20        11         1         2        81        39     -0.05036315
        20        11         1         2        81        56     -0.06095200
        20        11         1         2        81        62     -0.07159290
        20        11         1         2        81        78     -0.06559666
        20        11         1         2        82        62     -0.05069458
        20        11         1         2        84        33      0.05355269
        20        11         1         2        84        39      0.06992590
        20        11         1         2        84        56      0.07710096
        20        11         1         2        84        62      0.08721027
        20        11         1         2        84        78      0.07689127
        20        11         1         2        84        85     -0.05616817
        20        11         1         2        91        22     -0.05541649
        20        11         1         2        91        33      0.07592159
        20        11         1         2        91        39      0.10544975
        20        11         1         2        91        56      0.12888100
        20        11         1         2        91        62      0.15481138
        20        11         1         2        91        78      0.14587744
        20        11         1         2        91        85     -0.11044923
        20        11         1         2        91        87     -0.05613798
        20        11         1         2        95        62      0.05259413
        20        11         1         2       112        33      0.06537801
        20        11         1         2       112        39      0.09278173
        20        11         1         2       112        56      0.11680667
        20        11         1         2       112        62      0.14526667
        20        11         1         2       112        78      0.14232215
        20        11         1         2       112        85     -0.11235931
        20        11         1         2       112        87     -0.05974156
        20        11         1         2       123        62      0.05166645
        20        11         1         2       123        78      0.05237696
        20        11         1         2       124        39     -0.05798289
        20        11         1         2       124        56     -0.07520311
        20        11         1         2       124        62     -0.09693205
        20        11         1         2       124        78     -0.09909311
        20        11         1         2       124        85      0.08202546
        20        11         1         2       127        62     -0.05461114
        20        11         1         2       127        78     -0.05821825
        20        11         1         2       127        85      0.05082022
        20        11         2         1        22        58      0.05629247
        20        11         2         1        22        91      0.05541649
        20        11         2         1        33        58     -0.07278200
        20        11         2         1        33        77     -0.05130935
        20        11         2         1        33        84     -0.05355269
        20        11         2         1        33        91     -0.07592159
        20        11         2         1        33       112     -0.06537801
        20        11         2         1        39        58     -0.09189415
        20        11         2         1        39        77     -0.06800246
        20        11         2         1        39        81      0.05036315
        20        11         2         1        39        84     -0.06992590
        20        11         2         1        39        91     -0.10544975
        20        11         2         1        39       112     -0.09278173
        20        11         2         1        39       124      0.05798289
        20        11         2         1        56        36      0.05156492
        20        11         2         1        56        49      0.05221533
        20        11         2         1        56        51      0.05074416
        20        11         2         1        56        58     -0.10460519
        20        11         2         1        56        77     -0.07865950
        20        11         2         1        56        81      0.06095200
        20        11         2         1        56        84     -0.07710096
        20        11         2         1        56        91     -0.12888100
        20        11         2         1        56       112     -0.11680667
        20        11         2         1        56       124      0.07520311
        20        11         2         1        62        36      0.05661887
        20        11         2         1        62        49      0.05632756
        20        11         2         1        62        51      0.05636180
        20        11         2         1        62        58     -0.11574710
        20        11         2         1        62        77     -0.08995838
        20        11         2         1        62        79      0.05414915
        20        11         2         1        62        81      0.07159290
        20        11         2         1        62        82      0.05069458
        20        11         2         1        62        84     -0.08721027
        20        11         2         1        62        91     -0.15481138
        20        11         2         1        62        95     -0.05259413
        20        11         2         1        62       112     -0.14526667
        20        11         2         1        62       123     -0.05166645
        20        11         2         1        62       124      0.09693205
        20        11         2         1        62       127      0.05461114
        20        11         2         1        78        58     -0.10130975
        20        11         2         1        78        77     -0.08060207
        20        11         2         1        78        81      0.06559666
        20        11         2         1        78        84     -0.07689127
        20        11         2         1        78        91     -0.14587744
        20        11         2         1        78       112     -0.14232215
        20        11         2         1        78       123     -0.05237696
        20        11         2         1        78       124      0.09909311
        20        11         2         1        78       127      0.05821825
        20        11         2         1        85        58      0.07142014
        20        11         2         1        85        77      0.05835037
        20        11         2         1        85        84      0.05616817
        20        11         2         1        85        91      0.11044923
        20        11         2         1        85       112      0.11235931
        20        11         2         1        85       124     -0.08202546
        20        11         2         1        85       127     -0.05082022
        20        11         2         1        87        91      0.05613798
        20        11         2         1        87       112      0.05974156
        20        12         1         2        58        33     -0.05863942
        20        12         1         2        58        39     -0.07065319
        20        12         1         2        58        56     -0.08044930
        20        12         1         2        58        62     -0.08706847
        20        12         1         2        58        78     -0.07561922
        20        12         1         2        58        85      0.05255828
        20        12         1         2        77        39     -0.05434351
        20        12         1         2        77        56     -0.06131528
        20        12         1         2        77        62     -0.06995736
        20        12         1         2        77        78     -0.06190476
        20        12         1         2        81        62      0.05561474
        20        12         1         2        84        39     -0.05183265
        20        12         1         2        84        56     -0.05801684
        20        12         1         2        84        62     -0.06442934
        20        12         1         2        84        78     -0.05690902
        20        12         1         2        91        33     -0.05729234
        20        12         1         2        91        39     -0.07803058
        20        12         1         2        91        56     -0.09497527
        20        12         1         2        91        62     -0.11268206
        20        12         1         2        91        78     -0.10633971
        20        12         1         2        91        85      0.07969691
        20        12         1         2       112        39     -0.06793850
        20        12         1         2       112        56     -0.08410572
        20        12         1         2       112        62     -0.10502140
        20        12         1         2       112        78     -0.10245541
        20        12         1         2       112        85      0.08084083
        20        12         1         2       124        56      0.05337192
        20        12         1         2       124        62      0.06889766
        20        12         1         2       124        78      0.07087904
        20        12         1         2       124        85     -0.05848510
        20        12         2         1        33        58      0.05863942
        20        12         2         1        33        91      0.05729234
        20        12         2         1        39        58      0.07065319
        20        12         2         1        39        77      0.05434351
        20        12         2         1        39        84      0.05183265
        20        12         2         1        39        91      0.07803058
        20        12         2         1        39       112      0.06793850
        20        12         2         1        56        58      0.08044930
        20        12         2         1        56        77      0.06131528
        20        12         2         1        56        84      0.05801684
        20        12         2         1        56        91      0.09497527
        20        12         2         1        56       112      0.08410572
        20        12         2         1        56       124     -0.05337192
        20        12         2         1        62        58      0.08706847
        20        12         2         1        62        77      0.06995736
        20        12         2         1        62        81     -0.05561474
        20        12         2         1        62        84      0.06442934
        20        12         2         1        62        91      0.11268206
        20        12         2         1        62       112      0.10502140
        20        12         2         1        62       124     -0.06889766
        20        12         2         1        78        58      0.07561922
        20        12         2         1        78        77      0.06190476
        20        12         2         1        78        84      0.05690902
        20        12         2         1        78        91      0.10633971
        20        12         2         1        78       112      0.10245541
        20        12         2         1        78       124     -0.07087904
        20        12         2         1        85        58     -0.05255828
        20        12         2         1        85        91     -0.07969691
        20        12         2         1        85       112     -0.08084083
        20        12         2         1        85       124      0.05848510
        20        14         1         2        91        62      0.05724786
        20        14         1         2        91        78      0.05391181
        20        14         1         2       112        62      0.05304321
        20        14         1         2       112        78      0.05187608
        20        14         2         1        62        91     -0.05724786
        20        14         2         1        62       112     -0.05304321
        20        14         2         1        78        91     -0.05391181
        20        14         2         1        78       112     -0.05187608
        25        11         1         3        58        55     -0.05140362
        25        11         1         3        58        61     -0.05661022
        25        11         1         3        91        55     -0.06067573
        25        11         1         3        91        61     -0.07274445
        25        11         1         3        91        77      0.06760021
        25        11         1         3        91        84     -0.05189506
        25        11         1         3       112        55     -0.05428926
        25        11         1         3       112        61     -0.06758398
        25        11         1         3       112        77      0.06544989
        25        11         1         3       112        84     -0.05251091
        25        11         3         1        55        58      0.05140362
        25        11         3         1        55        91      0.06067573
        25        11         3         1        55       112      0.05428926
        25        11         3         1        61        58      0.05661022
        25        11         3         1        61        91      0.07274445
        25        11         3         1        61       112      0.06758398
        25        11         3         1        77        91     -0.06760021
        25        11         3         1        77       112     -0.06544989
        25        11         3         1        84        91      0.05189506
        25        11         3         1        84       112      0.05251091
        25        12         1         3        91        61      0.05609851
        25        12         1         3        91        77     -0.05210170
        25        12         1         3       112        61      0.05243583
        25        12         1         3       112        77     -0.05029703
        25        12         3         1        61        91     -0.05609851
        25        12         3         1        61       112     -0.05243583
        25        12         3         1        77        91      0.05210170
        25        12         3         1        77       112      0.05029703
        26        11         1         3        58        32     -0.06080917
        26        11         1         3        58        38     -0.07712806
        26        11         1         3        58        55      0.08905934
        26        11         1         3        58        61      0.09830165
        26        11         1         3        58        77     -0.08461032
        26        11         1         3        58        84      0.06063327
        26        11         1         3        77        38     -0.05625822
        26        11         1         3        77        55      0.06618455
        26        11         1         3        77        61      0.07544834
        26        11         1         3        77        77     -0.06651063
        26        11         1         3        81        55     -0.05153117
        26        11         1         3        81        61     -0.06040272
        26        11         1         3        81        77      0.05445938
        26        11         1         3        84        38     -0.05869095
        26        11         1         3        84        55      0.06558923
        26        11         1         3        84        61      0.07383657
        26        11         1         3        84        77     -0.06404345
        26        11         1         3        91        32     -0.06394576
        26        11         1         3        91        38     -0.08897399
        26        11         1         3        91        55      0.11073979
        26        11         1         3        91        61      0.13262442
        26        11         1         3        91        77     -0.12283050
        26        11         1         3        91        84      0.09445061
        26        11         1         3       112        32     -0.05523507
        26        11         1         3       112        38     -0.07846701
        26        11         1         3       112        55      0.10058971
        26        11         1         3       112        61      0.12469066
        26        11         1         3       112        77     -0.12004049
        26        11         1         3       112        84      0.09621143
        26        11         1         3       112        86      0.05102421
        26        11         1         3       124        55     -0.06497477
        26        11         1         3       124        61     -0.08341300
        26        11         1         3       124        77      0.08374209
        26        11         1         3       124        84     -0.07034796
        26        11         3         1        32        58      0.06080917
        26        11         3         1        32        91      0.06394576
        26        11         3         1        32       112      0.05523507
        26        11         3         1        38        58      0.07712806
        26        11         3         1        38        77      0.05625822
        26        11         3         1        38        84      0.05869095
        26        11         3         1        38        91      0.08897399
        26        11         3         1        38       112      0.07846701
        26        11         3         1        55        58     -0.08905934
        26        11         3         1        55        77     -0.06618455
        26        11         3         1        55        81      0.05153117
        26        11         3         1        55        84     -0.06558923
        26        11         3         1        55        91     -0.11073979
        26        11         3         1        55       112     -0.10058971
        26        11         3         1        55       124      0.06497477
        26        11         3         1        61        58     -0.09830165
        26        11         3         1        61        77     -0.07544834
        26        11         3         1        61        81      0.06040272
        26        11         3         1        61        84     -0.07383657
        26        11         3         1        61        91     -0.13262442
        26        11         3         1        61       112     -0.12469066
        26        11         3         1        61       124      0.08341300
        26        11         3         1        77        58      0.08461032
        26        11         3         1        77        77      0.06651063
        26        11         3         1        77        81     -0.05445938
        26        11         3         1        77        84      0.06404345
        26        11         3         1        77        91      0.12283050
        26        11         3         1        77       112      0.12004049
        26        11         3         1        77       124     -0.08374209
        26        11         3         1        84        58     -0.06063327
        26        11         3         1        84        91     -0.09445061
        26        11         3         1        84       112     -0.09621143
        26        11         3         1        84       124      0.07034796
        26        11         3         1        86       112     -0.05102421
        26        12         1         3        58        38      0.05953469
        26        12         1         3        58        55     -0.06850574
        26        12         1         3        58        61     -0.07385052
        26        12         1         3        58        77      0.06295362
        26        12         1         3        77        55     -0.05272716
        26        12         1         3        77        61     -0.05990732
        26        12         1         3        77        77      0.05210978
        26        12         1         3        84        61     -0.05467302
        26        12         1         3        91        38      0.06510748
        26        12         1         3        91        55     -0.08001587
        26        12         1         3        91        61     -0.09470479
        26        12         1         3        91        77      0.08791039
        26        12         1         3        91        84     -0.06686911
        26        12         1         3       112        38      0.05631288
        26        12         1         3       112        55     -0.07057930
        26        12         1         3       112        61     -0.08793952
        26        12         1         3       112        77      0.08450815
        26        12         1         3       112        84     -0.06769894
        26        12         1         3       124        61      0.05750203
        26        12         1         3       124        77     -0.05831069
        26        12         3         1        38        58     -0.05953469
        26        12         3         1        38        91     -0.06510748
        26        12         3         1        38       112     -0.05631288
        26        12         3         1        55        58      0.06850574
        26        12         3         1        55        77      0.05272716
        26        12         3         1        55        91      0.08001587
        26        12         3         1        55       112      0.07057930
        26        12         3         1        61        58      0.07385052
        26        12         3         1        61        77      0.05990732
        26        12         3         1        61        84      0.05467302
        26        12         3         1        61        91      0.09470479
        26        12         3         1        61       112      0.08793952
        26        12         3         1        61       124     -0.05750203
        26        12         3         1        77        58     -0.06295362
        26        12         3         1        77        77     -0.05210978
        26        12         3         1        77        91     -0.08791039
        26        12         3         1        77       112     -0.08450815
        26        12         3         1        77       124      0.05831069
        26        12         3         1        84        91      0.06686911
        26        12         3         1        84       112      0.06769894
        26        14         1         3        91        61      0.05123231
        26        14         3         1        61        91     -0.05123231

         I         J         SYM. A    SYM. B    A         B      T(IJ, AB) [Beta-Beta]

        25        11         1         3        58        55     -0.05140362
        25        11         1         3        58        61     -0.05661022
        25        11         1         3        91        55     -0.06067573
        25        11         1         3        91        61     -0.07274445
        25        11         1         3        91        77      0.06760021
        25        11         1         3        91        84     -0.05189506
        25        11         1         3       112        55     -0.05428926
        25        11         1         3       112        61     -0.06758398
        25        11         1         3       112        77      0.06544989
        25        11         1         3       112        84     -0.05251091
        25        11         3         1        55        58      0.05140362
        25        11         3         1        55        91      0.06067573
        25        11         3         1        55       112      0.05428926
        25        11         3         1        61        58      0.05661022
        25        11         3         1        61        91      0.07274445
        25        11         3         1        61       112      0.06758398
        25        11         3         1        77        91     -0.06760021
        25        11         3         1        77       112     -0.06544989
        25        11         3         1        84        91      0.05189506
        25        11         3         1        84       112      0.05251091
        25        12         1         3        91        61      0.05609851
        25        12         1         3        91        77     -0.05210170
        25        12         1         3       112        61      0.05243583
        25        12         1         3       112        77     -0.05029703
        25        12         3         1        61        91     -0.05609851
        25        12         3         1        61       112     -0.05243583
        25        12         3         1        77        91      0.05210170
        25        12         3         1        77       112      0.05029703
        26        11         1         3        58        32     -0.06080917
        26        11         1         3        58        38     -0.07712806
        26        11         1         3        58        55      0.08905934
        26        11         1         3        58        61      0.09830165
        26        11         1         3        58        77     -0.08461032
        26        11         1         3        58        84      0.06063327
        26        11         1         3        77        38     -0.05625822
        26        11         1         3        77        55      0.06618455
        26        11         1         3        77        61      0.07544834
        26        11         1         3        77        77     -0.06651063
        26        11         1         3        81        55     -0.05153117
        26        11         1         3        81        61     -0.06040272
        26        11         1         3        81        77      0.05445938
        26        11         1         3        84        38     -0.05869095
        26        11         1         3        84        55      0.06558923
        26        11         1         3        84        61      0.07383657
        26        11         1         3        84        77     -0.06404345
        26        11         1         3        91        32     -0.06394576
        26        11         1         3        91        38     -0.08897399
        26        11         1         3        91        55      0.11073979
        26        11         1         3        91        61      0.13262442
        26        11         1         3        91        77     -0.12283050
        26        11         1         3        91        84      0.09445061
        26        11         1         3       112        32     -0.05523507
        26        11         1         3       112        38     -0.07846701
        26        11         1         3       112        55      0.10058971
        26        11         1         3       112        61      0.12469066
        26        11         1         3       112        77     -0.12004049
        26        11         1         3       112        84      0.09621143
        26        11         1         3       112        86      0.05102421
        26        11         1         3       124        55     -0.06497477
        26        11         1         3       124        61     -0.08341300
        26        11         1         3       124        77      0.08374209
        26        11         1         3       124        84     -0.07034796
        26        11         3         1        32        58      0.06080917
        26        11         3         1        32        91      0.06394576
        26        11         3         1        32       112      0.05523507
        26        11         3         1        38        58      0.07712806
        26        11         3         1        38        77      0.05625822
        26        11         3         1        38        84      0.05869095
        26        11         3         1        38        91      0.08897399
        26        11         3         1        38       112      0.07846701
        26        11         3         1        55        58     -0.08905934
        26        11         3         1        55        77     -0.06618455
        26        11         3         1        55        81      0.05153117
        26        11         3         1        55        84     -0.06558923
        26        11         3         1        55        91     -0.11073979
        26        11         3         1        55       112     -0.10058971
        26        11         3         1        55       124      0.06497477
        26        11         3         1        61        58     -0.09830165
        26        11         3         1        61        77     -0.07544834
        26        11         3         1        61        81      0.06040272
        26        11         3         1        61        84     -0.07383657
        26        11         3         1        61        91     -0.13262442
        26        11         3         1        61       112     -0.12469066
        26        11         3         1        61       124      0.08341300
        26        11         3         1        77        58      0.08461032
        26        11         3         1        77        77      0.06651063
        26        11         3         1        77        81     -0.05445938
        26        11         3         1        77        84      0.06404345
        26        11         3         1        77        91      0.12283050
        26        11         3         1        77       112      0.12004049
        26        11         3         1        77       124     -0.08374209
        26        11         3         1        84        58     -0.06063327
        26        11         3         1        84        91     -0.09445061
        26        11         3         1        84       112     -0.09621143
        26        11         3         1        84       124      0.07034796
        26        11         3         1        86       112     -0.05102421
        26        12         1         3        58        38      0.05953469
        26        12         1         3        58        55     -0.06850574
        26        12         1         3        58        61     -0.07385052
        26        12         1         3        58        77      0.06295362
        26        12         1         3        77        55     -0.05272716
        26        12         1         3        77        61     -0.05990732
        26        12         1         3        77        77      0.05210978
        26        12         1         3        84        61     -0.05467302
        26        12         1         3        91        38      0.06510748
        26        12         1         3        91        55     -0.08001587
        26        12         1         3        91        61     -0.09470479
        26        12         1         3        91        77      0.08791039
        26        12         1         3        91        84     -0.06686911
        26        12         1         3       112        38      0.05631288
        26        12         1         3       112        55     -0.07057930
        26        12         1         3       112        61     -0.08793952
        26        12         1         3       112        77      0.08450815
        26        12         1         3       112        84     -0.06769894
        26        12         1         3       124        61      0.05750203
        26        12         1         3       124        77     -0.05831069
        26        12         3         1        38        58     -0.05953469
        26        12         3         1        38        91     -0.06510748
        26        12         3         1        38       112     -0.05631288
        26        12         3         1        55        58      0.06850574
        26        12         3         1        55        77      0.05272716
        26        12         3         1        55        91      0.08001587
        26        12         3         1        55       112      0.07057930
        26        12         3         1        61        58      0.07385052
        26        12         3         1        61        77      0.05990732
        26        12         3         1        61        84      0.05467302
        26        12         3         1        61        91      0.09470479
        26        12         3         1        61       112      0.08793952
        26        12         3         1        61       124     -0.05750203
        26        12         3         1        77        58     -0.06295362
        26        12         3         1        77        77     -0.05210978
        26        12         3         1        77        91     -0.08791039
        26        12         3         1        77       112     -0.08450815
        26        12         3         1        77       124      0.05831069
        26        12         3         1        84        91      0.06686911
        26        12         3         1        84       112      0.06769894

         I         J         SYM. A    SYM. B    A         B      T(IJ, AB) [Alpha-Beta]

         9         6         1         1        91       125      0.05994867
         9         6         1         1       112       125      0.06019746
         9         6         1         1       125        91      0.06126525
         9         6         1         1       125       112      0.06160129
         9         6         2         2        78        86     -0.05043365
         6         9         1         1        91       125      0.06126525
         6         9         1         1       112       125      0.06160129
         6         9         1         1       125        91      0.05994867
         6         9         1         1       125       112      0.06019746
         6         9         2         2        86        78     -0.05043365
         9         9         1         1        50        50      0.05458421
         9         9         1         1        50        60     -0.06430712
         9         9         1         1        60        50     -0.06430712
         9         9         1         1        60        60      0.07545258
         9         9         1         1        60        82      0.05020474
         9         9         1         1        60        91     -0.06375418
         9         9         1         1        60       112     -0.05953524
         9         9         1         1        82        60      0.05020474
         9         9         1         1        82        91     -0.05520837
         9         9         1         1        82       112     -0.05276610
         9         9         1         1        91        60     -0.06375418
         9         9         1         1        91        82     -0.05520837
         9         9         1         1        91        91      0.08687138
         9         9         1         1        91       112      0.08642490
         9         9         1         1        91       124     -0.06098288
         9         9         1         1       112        60     -0.05953524
         9         9         1         1       112        82     -0.05276610
         9         9         1         1       112        91      0.08642490
         9         9         1         1       112       112      0.08902673
         9         9         1         1       112       124     -0.06533443
         9         9         1         1       124        91     -0.06098288
         9         9         1         1       124       112     -0.06533443
         9         9         2         2        22        62      0.05697822
         9         9         2         2        22        78      0.05137287
         9         9         2         2        33        39     -0.05780513
[...]
        11        11         1         1       123       112      0.10272041
        11        11         1         1       123       121     -0.22273858
        11        11         1         1       123       123      0.05163007
        11        11         1         1       123       124     -0.07894976
        11        11         1         1       123       125     -0.22527063
        11        11         1         1       123       130      0.17166983
        11        11         1         1       123       131     -0.16487571
        11        11         1         1       123       136      0.07685083
        11        11         1         1       123       137     -0.07164722
        11        11         1         1       124        34      0.06353449
        11        11         1         1       124        37      0.13102861
        11        11         1         1       124        38     -0.09491449
        11        11         1         1       124        49     -0.05193366
        11        11         1         1       124        50     -0.06134980
        11        11         1         1       124        55      0.08916359
        11        11         1         1       124        57      0.06277379
        11        11         1         1       124        60      0.09337588
        11        11         1         1       124        61     -0.05396960
        11        11         1         1       124        62     -0.05026514
        11        11         1         1       124        63     -0.26156045
        11        11         1         1       124        67      0.18687406
        11        11         1         1       124        70      0.08476727
        11        11         1         1       124        82      0.15431304
        11        11         1         1       124        83      0.05342534
        11        11         1         1       124        91     -0.13132302
        11        11         1         1       124        92     -0.37976728
        11        11         1         1       124       104     -0.08539373
        11        11         1         1       124       105     -0.23667547
        11        11         1         1       124       107      0.24467678
        11        11         1         1       124       108      0.06254193
        11        11         1         1       124       111     -0.08248041
        11        11         1         1       124       112     -0.14776045
        11        11         1         1       124       121      0.37358524
        11        11         1         1       124       123     -0.07894976
        11        11         1         1       124       124      0.12213740
        11        11         1         1       124       125      0.48178848
        11        11         1         1       124       127      0.05986817
        11        11         1         1       124       130     -0.28469938
        11        11         1         1       124       131      0.34902234
        11        11         1         1       124       136     -0.12738543
        11        11         1         1       124       137      0.15122900
        11        11         1         1       124       142      0.05002995
        11        11         1         1       125        13      0.05922619
        11        11         1         1       125        20      0.09667640
        11        11         1         1       125        27      0.14743760
        11        11         1         1       125        29      0.05380979
        11        11         1         1       125        34     -0.05794877
        11        11         1         1       125        36      0.24225822
        11        11         1         1       125        47      0.07699520
        11        11         1         1       125        49      0.18896892
        11        11         1         1       125        50     -0.16261246
        11        11         1         1       125        51      0.23112037
        11        11         1         1       125        53      0.14516266
        11        11         1         1       125        57      0.09736370
        11        11         1         1       125        58     -0.43891000
        11        11         1         1       125        60      0.20013649
        11        11         1         1       125        67      0.06815749
        11        11         1         1       125        70     -0.11880629
        11        11         1         1       125        77     -0.34466634
        11        11         1         1       125        78      0.07386938
        11        11         1         1       125        79      0.19520419
        11        11         1         1       125        81      0.33676139
        11        11         1         1       125        82      0.29144585
        11        11         1         1       125        83     -0.13998507
        11        11         1         1       125        84     -0.21074712
        11        11         1         1       125        89     -0.07317030
        11        11         1         1       125        90     -0.17727903
        11        11         1         1       125        91     -0.67258557
        11        11         1         1       125        96     -0.07129120
        11        11         1         1       125        99     -0.06731227
        11        11         1         1       125       104      0.06605892
        11        11         1         1       125       105     -0.07740485
        11        11         1         1       125       107     -0.13066323
        11        11         1         1       125       112     -0.65454049
        11        11         1         1       125       113      0.05971688
        11        11         1         1       125       117     -0.06769236
        11        11         1         1       125       123     -0.22527063
        11        11         1         1       125       124      0.48178848
        11        11         1         1       125       125     -0.16136908
        11        11         1         1       125       127      0.29157535
        11        11         1         1       125       129     -0.07060119
        11        11         1         1       125       131     -0.10625348
        11        11         1         1       125       133     -0.12891412
        11        11         1         1       126        63     -0.05975005
        11        11         1         1       126        92     -0.09399101
        11        11         1         1       126       121      0.09931988
        11        11         1         1       126       130     -0.06983233
        11        11         1         1       127        37      0.06920218
        11        11         1         1       127        63     -0.14529286
        11        11         1         1       127        67      0.10121233
        11        11         1         1       127        82      0.07981813
        11        11         1         1       127        91     -0.06014588
        11        11         1         1       127        92     -0.22578007
        11        11         1         1       127       105     -0.13054880
        11        11         1         1       127       107      0.13371521
        11        11         1         1       127       112     -0.06767635
        11        11         1         1       127       121      0.24308993
        11        11         1         1       127       124      0.05986817
        11        11         1         1       127       125      0.29157535
        11        11         1         1       127       130     -0.20244483
        11        11         1         1       127       131      0.23080561
        11        11         1         1       127       136     -0.09918102
        11        11         1         1       127       137      0.10824178
        11        11         1         1       129       125     -0.07060119
        11        11         1         1       129       131     -0.05492185
        11        11         1         1       130        35      0.07365329
        11        11         1         1       130        49     -0.09120700
        11        11         1         1       130        50     -0.06227522
        11        11         1         1       130        51     -0.06151651
        11        11         1         1       130        53     -0.06452936
        11        11         1         1       130        58      0.16788154
        11        11         1         1       130        60      0.05918616
        11        11         1         1       130        70      0.06026155
        11        11         1         1       130        77      0.14063877
        11        11         1         1       130        79     -0.11083790
        11        11         1         1       130        81     -0.10566245
        11        11         1         1       130        82     -0.05392616
        11        11         1         1       130        84      0.17650215
        11        11         1         1       130        90      0.09748019
        11        11         1         1       130        91      0.30613990
        11        11         1         1       130        95      0.13440240
        11        11         1         1       130       105      0.08600924
        11        11         1         1       130       112      0.35972479
        11        11         1         1       130       120      0.10716275
        11        11         1         1       130       123      0.17166983
        11        11         1         1       130       124     -0.28469938
        11        11         1         1       130       126     -0.06983233
        11        11         1         1       130       127     -0.20244483
        11        11         1         1       130       133      0.09401141
        11        11         1         1       131        20      0.05453089
        11        11         1         1       131        27      0.08393596
        11        11         1         1       131        36      0.13927163
        11        11         1         1       131        49      0.10973939
        11        11         1         1       131        50     -0.09449504
        11        11         1         1       131        51      0.13447466
        11        11         1         1       131        53      0.08555252
        11        11         1         1       131        57      0.05846603
        11        11         1         1       131        58     -0.26065786
        11        11         1         1       131        60      0.11987203
        11        11         1         1       131        70     -0.07094530
        11        11         1         1       131        77     -0.21002588
        11        11         1         1       131        79      0.12075871
        11        11         1         1       131        81      0.20770841
        11        11         1         1       131        82      0.18140533
        11        11         1         1       131        83     -0.08502202
        11        11         1         1       131        84     -0.12999396
        11        11         1         1       131        90     -0.11359051
        11        11         1         1       131        91     -0.43331104
        11        11         1         1       131       105     -0.05596757
        11        11         1         1       131       107     -0.08122062
        11        11         1         1       131       112     -0.44494243
        11        11         1         1       131       123     -0.16487571
        11        11         1         1       131       124      0.34902234
        11        11         1         1       131       125     -0.10625348
        11        11         1         1       131       127      0.23080561
        11        11         1         1       131       129     -0.05492185
        11        11         1         1       131       131     -0.07704419
        11        11         1         1       131       133     -0.11273756
        11        11         1         1       133        63      0.05448795
        11        11         1         1       133        92      0.08880923
        11        11         1         1       133       105      0.05305569
        11        11         1         1       133       107     -0.05467882
        11        11         1         1       133       121     -0.10252369
        11        11         1         1       133       125     -0.12891412
        11        11         1         1       133       130      0.09401141
        11        11         1         1       133       131     -0.11273756
        11        11         1         1       133       136      0.05167965
        11        11         1         1       133       137     -0.05894208
        11        11         1         1       136        58      0.06036836
        11        11         1         1       136        77      0.05256306
        11        11         1         1       136        84      0.06766788
        11        11         1         1       136        91      0.12152668
        11        11         1         1       136        95      0.05267711
        11        11         1         1       136       112      0.15114896
        11        11         1         1       136       123      0.07685083
        11        11         1         1       136       124     -0.12738543
        11        11         1         1       136       127     -0.09918102
        11        11         1         1       136       133      0.05167965
        11        11         1         1       137        36      0.05092799
        11        11         1         1       137        58     -0.09764481
        11        11         1         1       137        77     -0.08014364
        11        11         1         1       137        81      0.08003764
        11        11         1         1       137        82      0.07013014
        11        11         1         1       137        91     -0.17172167
        11        11         1         1       137       112     -0.18328324
        11        11         1         1       137       123     -0.07164722
        11        11         1         1       137       124      0.15122900
        11        11         1         1       137       127      0.10824178
        11        11         1         1       137       133     -0.05894208
        11        11         1         1       142        91     -0.05355166
        11        11         1         1       142       112     -0.05861695
        11        11         1         1       142       124      0.05002995
        11        11         2         2        11        22      0.05921050
        11        11         2         2        11        33     -0.05824311
        11        11         2         2        11        39     -0.06703903
        11        11         2         2        11        51     -0.05708998
        11        11         2         2        11        56     -0.06871836
        11        11         2         2        11        62     -0.06659137
        11        11         2         2        11        73      0.06914200
        11        11         2         2        11        78     -0.05371137
        11        11         2         2        11        86      0.06485288
        11        11         2         2        16        16     -0.05429803
        11        11         2         2        16        22      0.07182124
        11        11         2         2        16        33     -0.07894424
        11        11         2         2        16        39     -0.09067614
        11        11         2         2        16        51     -0.08530332
        11        11         2         2        16        56     -0.09374579
        11        11         2         2        16        62     -0.09341607
        11        11         2         2        16        73      0.10533700
        11        11         2         2        16        78     -0.07439998
        11        11         2         2        16        85      0.05056913
        11        11         2         2        16        86      0.09992444
        11        11         2         2        16        89      0.05502350
        11        11         2         2        22        11      0.05921050
        11        11         2         2        22        16      0.07182124
        11        11         2         2        22        22     -0.11609617
        11        11         2         2        22        27     -0.07254747
        11        11         2         2        22        33      0.12460477
        11        11         2         2        22        39      0.15489688
        11        11         2         2        22        40      0.05272121
        11        11         2         2        22        49      0.05258862
        11        11         2         2        22        51      0.13673950
        11        11         2         2        22        56      0.16410987
        11        11         2         2        22        62      0.16526295
        11        11         2         2        22        71      0.06182070
        11        11         2         2        22        73     -0.17473368
        11        11         2         2        22        78      0.13544007
        11        11         2         2        22        85     -0.09190381
        11        11         2         2        22        86     -0.16902751
        11        11         2         2        22        89     -0.09441738
        11        11         2         2        23        39      0.05000084
        11        11         2         2        23        56      0.05742496
        11        11         2         2        23        62      0.06278887
        11        11         2         2        23        78      0.05387710
        11        11         2         2        24        62     -0.05527644
        11        11         2         2        27        22     -0.07254747
        11        11         2         2        27        33      0.08219596
        11        11         2         2        27        39      0.09529388
        11        11         2         2        27        56      0.10313764
        11        11         2         2        27        62      0.10995863
        11        11         2         2        27        78      0.09304313
        11        11         2         2        27        85     -0.06433731
        11        11         2         2        33        11     -0.05824311
        11        11         2         2        33        16     -0.07894424
        11        11         2         2        33        22      0.12460477
        11        11         2         2        33        27      0.08219596
        11        11         2         2        33        33     -0.14875955
        11        11         2         2        33        35     -0.05579170
        11        11         2         2        33        39     -0.18657758
        11        11         2         2        33        40     -0.06887361
        11        11         2         2        33        49     -0.06422295
        11        11         2         2        33        51     -0.16394899
        11        11         2         2        33        56     -0.20962114
        11        11         2         2        33        62     -0.21887128
        11        11         2         2        33        71     -0.07795108
        11        11         2         2        33        73      0.22024278
        11        11         2         2        33        78     -0.18259664
        11        11         2         2        33        85      0.12720857
        11        11         2         2        33        86      0.21949549
