
 Primary working directories    : /global/cscratch1/sd/aannabe
 Secondary working directories  : /global/cscratch1/sd/aannabe
 Wavefunction directory         : /global/homes/a/aannabe/wfu/
 Main file repository           : /global/cscratch1/sd/aannabe/

 SHA1      : 19cd028119e0e09f93f0674bd8af7968d9b3eff6
 NAME      : 2015.1.36
 ARCHNAME  : linux/x86_64
 FC        : /opt/cray/pe/craype/2.5.14/bin/ftn
 BLASLIB   : -L/opt/intel/compilers_and_libraries_2018.1.163/linux/mkl/lib/intel64 -Wl,-_start-group -lmkl_intel_ilp64 -lmkl_intel_thread -lmkl_core -Wl,-_end-group -liomp5
 id        : lbl

 Nodes     nprocs
 nid00787    23
 Number of processes for MPI-2 version of Molpro:   nprocs(total)=   24   nprocs(compute)=   23   nprocs(helper)=    1

 Using customized tuning parameters: mindgm=7; mindgv=16; mindgc=1; mindgr=1; noblas=0; minvec=7
 default implementation of scratch files=sf  

 ***,atomic
 memory,512,m
 gthresh,oneint=1.e-15
 gthresh,twoint=1.e-15
 
 angstrom
 geometry={
 1
 Bi  0.0 0.0 0.0
 }
 
 basis={
 Including file /global/u1/a/aannabe/docs/atom/MWBSTU/basis/Bi_aug-cc-pwCVTZ.basis
 Including file /global/u1/a/aannabe/docs/atom/MWBSTU/basis/Bi.pp
 }
 
                                                                                 !set,dkroll=1,dkho=10,dkhp=4
 Including file /global/u1/a/aannabe/docs/atom/MWBSTU/basis/states.proc
 
 do i=1,15
    if (i.eq.1) then
       st_s2p3
    else if (i.eq.2) then
       st_s2p4
    else if (i.eq.3) then
       st_s1p4
    else if (i.eq.4) then
       st_s2p2
    else if (i.eq.5) then
       st_s1p3
    else if (i.eq.6) then
       st_s2p1
    else if (i.eq.7) then
       st_s1p2
    else if (i.eq.8) then
       st_s2d1
    else if (i.eq.9) then
       st_s2f1
    else if (i.eq.10) then
       st_s2
    else if (i.eq.11) then
       st_s1p1
    else if (i.eq.12) then
       st_s1
    else if (i.eq.13) then
       st_p1
    else if (i.eq.14) then
       st_d1
    else if (i.eq.15) then
       st_f1
    end if
    scf(i)=energy
    _CC_NORM_MAX=2.0
    {rccsd(t),shifts=0.6,shiftp=0.6,thrdis=1.0;diis,1,1,15,1;maxit,200;core}
    ccsd(i)=energy
 enddo
 
 table,scf,ccsd
 save, 3.csv, new
 

 Variables initialized (889), CPU time= 0.01 sec
 Commands  initialized (702), CPU time= 0.02 sec, 572 directives.
 Default parameters read. Elapsed time= 0.18 sec

 Checking input...
 Passed
1


                                         ***  PROGRAM SYSTEM MOLPRO  ***
                                       Copyright, TTI GmbH Stuttgart, 2015
                                    Version 2015.1 linked Dec 29 2018 15:55:43


 **********************************************************************************************************************************
 LABEL *   atomic                                                                        
  64 bit mpp version                                                                     DATE: 01-Feb-21          TIME: 17:00:55  
 **********************************************************************************************************************************

 SHA1:             19cd028119e0e09f93f0674bd8af7968d9b3eff6
 **********************************************************************************************************************************

 THRESHOLDS:

 ZERO    =  1.00D-12  ONEINT  =  1.00D-15  TWOINT  =  1.00D-11  PREFAC  =  1.00D-14  LOCALI  =  1.00D-09  EORDER  =  1.00D-04
 ENERGY  =  0.00D+00  ETEST   =  0.00D+00  EDENS   =  0.00D+00  THRDEDEF=  1.00D-06  GRADIENT=  1.00D-02  STEP    =  1.00D-03
 ORBITAL =  1.00D-05  CIVEC   =  1.00D-05  COEFF   =  1.00D-04  PRINTCI =  5.00D-02  PUNCHCI =  9.90D+01  OPTGRAD =  3.00D-04
 OPTENERG=  1.00D-06  OPTSTEP =  3.00D-04  THRGRAD =  1.00D-10  COMPRESS=  1.00D-11  VARMIN  =  1.00D-07  VARMAX  =  1.00D-03
 THRDOUB =  0.00D+00  THRDIV  =  1.00D-05  THRRED  =  1.00D-07  THRPSP  =  1.00D+00  THRDC   =  1.00D-10  THRCS   =  1.00D-10
 THRNRM  =  1.00D-08  THREQ   =  0.00D+00  THRDE   =  1.00D+00  THRREF  =  1.00D-05  SPARFAC =  1.00D+00  THRDLP  =  1.00D-07
 THRDIA  =  1.00D-10  THRDLS  =  1.00D-07  THRGPS  =  0.00D+00  THRKEX  =  0.00D+00  THRDIS  =  2.00D-01  THRVAR  =  1.00D-10
 THRLOC  =  1.00D-06  THRGAP  =  1.00D-06  THRLOCT = -1.00D+00  THRGAPT = -1.00D+00  THRORB  =  1.00D-06  THRMLTP =  0.00D+00
 THRCPQCI=  1.00D-10  KEXTA   =  0.00D+00  THRCOARS=  0.00D+00  SYMTOL  =  1.00D-06  GRADTOL =  1.00D-06  THROVL  =  1.00D-08
 THRORTH =  1.00D-08  GRID    =  1.00D-06  GRIDMAX =  1.00D-03  DTMAX   =  0.00D+00  THROCCDE=  1.00D-01  THROCCDE=  1.00D-01



 THRESHOLDS:

 ZERO    =  1.00D-12  ONEINT  =  1.00D-15  TWOINT  =  1.00D-15  PREFAC  =  1.00D-14  LOCALI  =  1.00D-09  EORDER  =  1.00D-04
 ENERGY  =  0.00D+00  ETEST   =  0.00D+00  EDENS   =  0.00D+00  THRDEDEF=  1.00D-06  GRADIENT=  1.00D-02  STEP    =  1.00D-03
 ORBITAL =  1.00D-05  CIVEC   =  1.00D-05  COEFF   =  1.00D-04  PRINTCI =  5.00D-02  PUNCHCI =  9.90D+01  OPTGRAD =  3.00D-04
 OPTENERG=  1.00D-06  OPTSTEP =  3.00D-04  THRGRAD =  1.00D-10  COMPRESS=  1.00D-11  VARMIN  =  1.00D-07  VARMAX  =  1.00D-03
 THRDOUB =  0.00D+00  THRDIV  =  1.00D-05  THRRED  =  1.00D-07  THRPSP  =  1.00D+00  THRDC   =  1.00D-10  THRCS   =  1.00D-10
 THRNRM  =  1.00D-08  THREQ   =  0.00D+00  THRDE   =  1.00D+00  THRREF  =  1.00D-05  SPARFAC =  1.00D+00  THRDLP  =  1.00D-07
 THRDIA  =  1.00D-10  THRDLS  =  1.00D-07  THRGPS  =  0.00D+00  THRKEX  =  0.00D+00  THRDIS  =  2.00D-01  THRVAR  =  1.00D-10
 THRLOC  =  1.00D-06  THRGAP  =  1.00D-06  THRLOCT = -1.00D+00  THRGAPT = -1.00D+00  THRORB  =  1.00D-06  THRMLTP =  0.00D+00
 THRCPQCI=  1.00D-10  KEXTA   =  0.00D+00  THRCOARS=  0.00D+00  SYMTOL  =  1.00D-06  GRADTOL =  1.00D-06  THROVL  =  1.00D-08
 THRORTH =  1.00D-08  GRID    =  1.00D-06  GRIDMAX =  1.00D-03  DTMAX   =  0.00D+00  THROCCDE=  1.00D-01  THROCCDE=  1.00D-01


 ZUNIT=ANG
 

Geometry recognized as XYZ


 Variable memory set to  512000000 words,  buffer space   230000 words

 SETTING BASIS          =    USERDEF

 DO I                   =         1.00000000   

 Running procedure=ST_S2P3


 Recomputing integrals since basis changed


 Using spherical harmonics



 PROGRAM * SEWARD (Integral evaluation for generally contracted gaussian basis sets)     Author: Roland Lindh, 1990

 Geometry written to block  1 of record 700

 Orientation using atomic masses  
 Molecule type: Atom
 Symmetry elements: X,Y,Z
 Rotational constants:       0.0000000      0.0000000      0.0000000 GHz  (calculated with average atomic masses)

 Point group  D2h 



 ATOMIC COORDINATES

 NR  ATOM    CHARGE       X              Y              Z

   1  BI      5.00    0.000000000    0.000000000    0.000000000

 NUCLEAR CHARGE:                    5
 NUMBER OF PRIMITIVE AOS:         444
 NUMBER OF SYMMETRY AOS:          368
 NUMBER OF CONTRACTIONS:          368   (  82Ag  +  66B3u +  66B2u +  24B1g +  66B1u +  24B2g +  24B3g +  16Au  )
 NUMBER OF CORE ORBITALS:           0   (   0Ag  +   0B3u +   0B2u +   0B1g +   0B1u +   0B2g +   0B3g +   0Au  )
 NUMBER OF VALENCE ORBITALS:        4   (   1Ag  +   1B3u +   1B2u +   0B1g +   1B1u +   0B2g +   0B3g +   0Au  )


 NUCLEAR REPULSION ENERGY    0.00000000

 EXTRA SYMMETRY OF AOS IN SYMMETRY 1:   1 1 1 1 1 1 1 1 1 1   1 1 1 1 1 1 1 1 1 1   1 1 1 1 1 1 1 1 1 1   1 1 1 1 1 2 3 2 3 2
                                        3 2 3 2 3 2 3 2 3 2   3 2 3 2 3 2 3 2 3 2   3 2 3 2 3 2 3 2 3 2   3 2 3 2 3 2 3 2 3 4
                                        5 6
 EXTRA SYMMETRY OF AOS IN SYMMETRY 2:   1 1 1 1 1 1 1 1 1 1   1 1 1 1 1 1 1 1 1 1   1 1 1 1 1 1 1 1 1 1   1 1 1 1 2 3 2 3 2 3
                                        2 3 2 3 2 3 2 3 2 3   2 3 2 3 2 3 2 3 2 3   2 3 2 3 2 3
 EXTRA SYMMETRY OF AOS IN SYMMETRY 3:   1 1 1 1 1 1 1 1 1 1   1 1 1 1 1 1 1 1 1 1   1 1 1 1 1 1 1 1 1 1   1 1 1 1 2 3 2 3 2 3
                                        2 3 2 3 2 3 2 3 2 3   2 3 2 3 2 3 2 3 2 3   2 3 2 3 2 3
 EXTRA SYMMETRY OF AOS IN SYMMETRY 4:   1 1 1 1 1 1 1 1 1 1   1 1 1 1 1 1 1 1 1 1   1 1 2 3
 EXTRA SYMMETRY OF AOS IN SYMMETRY 5:   1 1 1 1 1 1 1 1 1 1   1 1 1 1 1 1 1 1 1 1   1 1 1 1 1 1 1 1 1 1   1 1 1 1 2 3 2 3 2 3
                                        2 3 2 3 2 3 2 3 2 3   2 3 2 3 2 3 2 3 2 3   2 3 2 3 2 3
 EXTRA SYMMETRY OF AOS IN SYMMETRY 6:   1 1 1 1 1 1 1 1 1 1   1 1 1 1 1 1 1 1 1 1   1 1 2 3
 EXTRA SYMMETRY OF AOS IN SYMMETRY 7:   1 1 1 1 1 1 1 1 1 1   1 1 1 1 1 1 1 1 1 1   1 1 2 3

 Eigenvalues of metric

         1 0.235E-06 0.248E-05 0.263E-04 0.617E-04 0.172E-03 0.369E-03 0.410E-03 0.410E-03
         2 0.476E-05 0.530E-04 0.120E-03 0.332E-03 0.605E-03 0.129E-02 0.268E-02 0.352E-02
         3 0.476E-05 0.530E-04 0.120E-03 0.332E-03 0.605E-03 0.129E-02 0.268E-02 0.352E-02
         4 0.410E-03 0.140E-02 0.383E-02 0.891E-02 0.184E-01 0.328E-01 0.487E-01 0.765E-01
         5 0.476E-05 0.530E-04 0.120E-03 0.332E-03 0.605E-03 0.129E-02 0.268E-02 0.352E-02
         6 0.410E-03 0.140E-02 0.383E-02 0.891E-02 0.184E-01 0.328E-01 0.487E-01 0.765E-01
         7 0.410E-03 0.140E-02 0.383E-02 0.891E-02 0.184E-01 0.328E-01 0.487E-01 0.765E-01
         8 0.352E-02 0.852E-02 0.214E-01 0.530E-01 0.815E-01 0.140E+00 0.248E+00 0.372E+00


 Contracted 2-electron integrals neglected if value below      1.0D-15
 AO integral compression algorithm  1   Integral accuracy      1.0D-15

     2401.501 MB (compressed) written to integral file ( 45.1%)

     Node minimum: 2.359 MB, node maximum: 270.008 MB


 NUMBER OF SORTED TWO-ELECTRON INTEGRALS:   12979089.     BUFFER LENGTH:  32768
 NUMBER OF SEGMENTS:   1  SEGMENT LENGTH:   12979089      RECORD LENGTH: 524288

 Memory used in sort:      13.54 MW

 SORT1 READ   665524302. AND WROTE     8303296. INTEGRALS IN     24 RECORDS. CPU TIME:    17.28 SEC, REAL TIME:    18.72 SEC
 SORT2 READ   192848698. AND WROTE   298468508. INTEGRALS IN  23690 RECORDS. CPU TIME:     1.14 SEC, REAL TIME:     1.53 SEC

 Node minimum:    12839129.  Node maximum:    13131229. integrals

 OPERATOR DM      FOR CENTER  0  COORDINATES:    0.000000    0.000000    0.000000


 **********************************************************************************************************************************
 DATASETS  * FILE   NREC   LENGTH (MB)   RECORD NAMES
              1      19       20.91       500      610      700      900      950      970     1000      129      960     1100   
                                          VAR    BASINP    GEOM    SYMINP    ZMAT    AOBASIS   BASIS     P2S    ABASIS      S 
                                         1400     1410     1420     1200     1210     1080     1600     1650     1700   
                                           T        V       ECP      H0       H01     AOSYM     SMH    MOLCAS    OPER   

 PROGRAMS   *        TOTAL       INT
 CPU TIMES  *       798.23    797.54
 REAL TIME  *       801.95 SEC
 DISK USED  *         4.89 GB      
 GA USED    *         0.00 MB       (max)       0.00 MB       (current)
 **********************************************************************************************************************************


 PROGRAM * RHF-SCF (OPEN SHELL)       Authors: W. Meyer, H.-J. Werner


 NUMBER OF ELECTRONS:       4+    1-    SPACE SYMMETRY=8    SPIN SYMMETRY: Quartet 
 CONVERGENCE THRESHOLDS:    1.00E-05 (Density)    1.00E-07 (Energy)
 MAX. NUMBER OF ITERATIONS:       60
 INTERPOLATION TYPE:            DIIS
 INTERPOLATION STEPS:              2 (START)      1 (STEP)
 LEVEL SHIFTS:                 -0.60 (CLOSED) -0.30 (OPEN) 

 Number of closed-shell orbitals:    1 (   1   0   0   0   0   0   0   0 )
 Number of open-shell orbitals:      3 (   0   1   1   0   1   0   0   0 )


 Orbital guess generated from atomic densities. Full valence occupancy:    1   1   1   0   1   0   0   0


 Molecular orbital dump at record        4202.2

 ITERATION    DDIFF          GRAD             ENERGY        2-EL.EN.            DIPOLE MOMENTS         DIIS   ORB.
    1      0.000D+00      0.000D+00        -5.25296849      5.698628    0.00000    0.00000    0.00000    0    start
    2      0.000D+00      0.284D-02        -5.26087942      5.826860    0.00000    0.00000    0.00000    1    diag,B
    3      0.202D-02      0.101D-02        -5.26318185      5.905141    0.00000    0.00000    0.00000    2    diag,B
    4      0.112D-02      0.372D-03        -5.26361374      5.934692    0.00000    0.00000    0.00000    3    diag,B
    5      0.720D-03      0.137D-03        -5.26366057      5.941952    0.00000    0.00000    0.00000    4    diag,B
    6      0.431D-03      0.306D-04        -5.26366197      5.942162    0.00000    0.00000    0.00000    5    diag,B
    7      0.826D-04      0.666D-05        -5.26366203      5.942142    0.00000    0.00000    0.00000    6    fixocc
    8      0.648D-04      0.143D-05        -5.26366203      5.942142    0.00000    0.00000    0.00000    7    diag,B
    9      0.143D-04      0.365D-06        -5.26366203      5.942136    0.00000    0.00000    0.00000    8    diag,B
   10      0.437D-05      0.912D-07        -5.26366203      5.942136    0.00000    0.00000    0.00000    0    orth

 Final alpha occupancy:   1   1   1   0   1   0   0   0
 Final beta  occupancy:   1   0   0   0   0   0   0   0

 !RHF STATE 1.8 Energy                 -5.263662030124
 Nuclear energy                         0.00000000
 One-electron energy                   -8.23473023
 Two-electron energy                    2.97106820
 Virial quotient                       -3.30177752
 !RHF STATE 1.8 Dipole moment           0.00000000     0.00000000     0.00000000
 Dipole moment /Debye                   0.00000000     0.00000000     0.00000000

 ELECTRON ORBITALS
 =================


   Orb  Occ    Energy  Couls-En    Coefficients

                                   1 1s      1 1s      1 1s      1 1s      1 1s      1 1s      1 1s      1 1s      1 1s      1 1s   
                                   1 1s      1 1s      1 1s      1 1s      1 1s      1 1s      1 1s      1 1s      1 1s      1 1s   
                                   1 1s      1 1s      1 1s      1 1s      1 1s      1 1s      1 1s      1 1s      1 1s      1 1s   
                                   1 1s      1 1s      1 1s      1 1s      1 1s      1 3d0     1 3d2+    1 3d0     1 3d2+    1 3d0  
                                   1 3d2+    1 3d0     1 3d2+    1 3d0     1 3d2+    1 3d0     1 3d2+    1 3d0     1 3d2+    1 3d0  
                                   1 3d2+    1 3d0     1 3d2+    1 3d0     1 3d2+    1 3d0     1 3d2+    1 3d0     1 3d2+    1 3d0  
                                   1 3d2+    1 3d0     1 3d2+    1 3d0     1 3d2+    1 3d0     1 3d2+    1 3d0     1 3d2+    1 3d0  
                                   1 3d2+    1 3d0     1 3d2+    1 3d0     1 3d2+    1 3d0     1 3d2+    1 3d0     1 3d2+    1 5g0  
                                   1 5g4+    1 5g2+ 

   1.1   2    -0.6749   -2.6434 -0.000000  0.000000 -0.000000  0.000000 -0.000000  0.000000 -0.000000  0.000000 -0.000000  0.000000
                                -0.000000  0.000001 -0.000001  0.000004 -0.000008  0.000023 -0.000051  0.000131 -0.000300  0.000811
                                -0.002529  0.006819  0.011221 -0.014604  0.177412 -0.222348  0.377394  0.678110  0.250511 -0.000560
                                 0.003730 -0.001066 -0.154656 -0.213328 -0.028358  0.000000 -0.000000 -0.000000  0.000000  0.000000
                                -0.000000 -0.000000  0.000000  0.000000 -0.000000 -0.000000  0.000000  0.000000 -0.000000 -0.000000
                                 0.000000  0.000000 -0.000000 -0.000000  0.000000  0.000000 -0.000000 -0.000000  0.000000  0.000000
                                -0.000000 -0.000000  0.000000  0.000000 -0.000000 -0.000000  0.000000  0.000000 -0.000000 -0.000000
                                 0.000000 -0.000000  0.000000  0.000000 -0.000000 -0.000000  0.000000  0.000000 -0.000000 -0.000000
                                -0.000000  0.000000

   2.1   0     0.0074   -0.4217  0.000000 -0.000000  0.000000 -0.000000  0.000000 -0.000000  0.000000 -0.000000  0.000000 -0.000000
                                 0.000001 -0.000002  0.000005 -0.000012  0.000030 -0.000075  0.000179 -0.000417  0.000937 -0.002099
                                 0.004938 -0.013788  0.076325  0.220785 -0.525860 -0.700529 -0.349233  0.183347 -0.437534  0.767562
                                -1.510832  1.914755  0.530235  0.797956 -0.176608 -0.000000 -0.000000  0.000000  0.000000 -0.000000
                                -0.000000  0.000000  0.000000 -0.000000 -0.000000  0.000000 -0.000000 -0.000000  0.000000  0.000000
                                -0.000000 -0.000000 -0.000000  0.000000  0.000000 -0.000000 -0.000000  0.000000  0.000000 -0.000000
                                -0.000000  0.000000  0.000000 -0.000000 -0.000000  0.000000  0.000000 -0.000001 -0.000000  0.000001
                                -0.000000 -0.000001  0.000000  0.000007  0.000000 -0.000018  0.000001  0.000040 -0.000003  0.000000
                                 0.000000 -0.000000

                                   1 2px     1 2px     1 2px     1 2px     1 2px     1 2px     1 2px     1 2px     1 2px     1 2px  
                                   1 2px     1 2px     1 2px     1 2px     1 2px     1 2px     1 2px     1 2px     1 2px     1 2px  
                                   1 2px     1 2px     1 2px     1 2px     1 2px     1 2px     1 2px     1 2px     1 2px     1 2px  
                                   1 2px     1 2px     1 2px     1 2px     1 4f1+    1 4f3+    1 4f1+    1 4f3+    1 4f1+    1 4f3+ 
                                   1 4f1+    1 4f3+    1 4f1+    1 4f3+    1 4f1+    1 4f3+    1 4f1+    1 4f3+    1 4f1+    1 4f3+ 
                                   1 4f1+    1 4f3+    1 4f1+    1 4f3+    1 4f1+    1 4f3+    1 4f1+    1 4f3+    1 4f1+    1 4f3+ 
                                   1 4f1+    1 4f3+    1 4f1+    1 4f3+    1 4f1+    1 4f3+ 

   1.2   +    -0.3142   -1.7468  0.000000 -0.000000  0.000000 -0.000000  0.000000 -0.000000  0.000000 -0.000000  0.000000 -0.000002
                                 0.000005 -0.000014  0.000038 -0.000099  0.000244 -0.000570  0.001260 -0.002647  0.005342 -0.010525
                                 0.021181 -0.046501  0.104573 -0.116708 -0.432049 -0.278351  0.004101  0.104737  0.030039  0.516991
                                 0.388770 -0.005726  0.001493  0.698042 -0.000000 -0.000000  0.000000  0.000000  0.000000 -0.000000
                                -0.000000  0.000000  0.000000 -0.000000 -0.000000  0.000000  0.000000 -0.000000 -0.000000  0.000000
                                 0.000000 -0.000000 -0.000000  0.000000  0.000000 -0.000000 -0.000000 -0.000000  0.000000  0.000000
                                 0.000000  0.000000 -0.000000 -0.000000  0.000000  0.000000

   2.2   0     0.0100   -0.2685 -0.000000  0.000000 -0.000000  0.000000 -0.000000  0.000000 -0.000000  0.000000 -0.000000  0.000000
                                -0.000001  0.000004 -0.000010  0.000025 -0.000062  0.000144 -0.000316  0.000657 -0.001297  0.002447
                                -0.004505  0.008404 -0.016367  0.033923 -0.140996 -0.803608 -1.719087 -1.094708  0.883659  0.319832
                                 1.750582 -1.257901  1.684211  1.199146  0.000000 -0.000000 -0.000000  0.000000  0.000000 -0.000000
                                -0.000000  0.000000  0.000000 -0.000000 -0.000000 -0.000000  0.000000  0.000000 -0.000000 -0.000000
                                 0.000000  0.000000 -0.000000 -0.000000  0.000000  0.000000  0.000000  0.000000 -0.000000 -0.000000
                                -0.000000 -0.000000  0.000000  0.000000 -0.000001 -0.000001

                                   1 2py     1 2py     1 2py     1 2py     1 2py     1 2py     1 2py     1 2py     1 2py     1 2py  
                                   1 2py     1 2py     1 2py     1 2py     1 2py     1 2py     1 2py     1 2py     1 2py     1 2py  
                                   1 2py     1 2py     1 2py     1 2py     1 2py     1 2py     1 2py     1 2py     1 2py     1 2py  
                                   1 2py     1 2py     1 2py     1 2py     1 4f1-    1 4f3-    1 4f1-    1 4f3-    1 4f1-    1 4f3- 
                                   1 4f1-    1 4f3-    1 4f1-    1 4f3-    1 4f1-    1 4f3-    1 4f1-    1 4f3-    1 4f1-    1 4f3- 
                                   1 4f1-    1 4f3-    1 4f1-    1 4f3-    1 4f1-    1 4f3-    1 4f1-    1 4f3-    1 4f1-    1 4f3- 
                                   1 4f1-    1 4f3-    1 4f1-    1 4f3-    1 4f1-    1 4f3- 

   1.3   +    -0.3142   -1.7468  0.000000 -0.000000  0.000000 -0.000000  0.000000 -0.000000  0.000000 -0.000000  0.000000 -0.000002
                                 0.000005 -0.000014  0.000038 -0.000099  0.000244 -0.000570  0.001260 -0.002647  0.005342 -0.010525
                                 0.021181 -0.046501  0.104573 -0.116708 -0.432049 -0.278351  0.004102  0.104737  0.030039  0.516991
                                 0.388769 -0.005726  0.001493  0.698041 -0.000000  0.000000  0.000000 -0.000000 -0.000000  0.000000
                                 0.000000 -0.000000 -0.000000  0.000000  0.000000 -0.000000 -0.000000  0.000000  0.000000 -0.000000
                                -0.000000  0.000000  0.000000 -0.000000 -0.000000  0.000000 -0.000000  0.000000  0.000000 -0.000000
                                 0.000000 -0.000000 -0.000000  0.000000  0.000000 -0.000000

   2.3   0     0.0100   -0.2685 -0.000000  0.000000 -0.000000  0.000000 -0.000000  0.000000 -0.000000  0.000000 -0.000000  0.000000
                                -0.000001  0.000004 -0.000010  0.000025 -0.000062  0.000144 -0.000316  0.000657 -0.001297  0.002447
                                -0.004505  0.008404 -0.016367  0.033923 -0.140996 -0.803607 -1.719084 -1.094707  0.883657  0.319832
                                 1.750579 -1.257900  1.684211  1.199144  0.000000 -0.000000 -0.000000  0.000000  0.000000 -0.000000
                                -0.000000 -0.000000 -0.000000  0.000000 -0.000000 -0.000000  0.000000  0.000000 -0.000000 -0.000000
                                 0.000000  0.000000 -0.000000 -0.000000  0.000000  0.000000  0.000000 -0.000000 -0.000000  0.000000
                                -0.000000  0.000000  0.000000 -0.000000 -0.000000 -0.000000

                                   1 3d2-    1 3d2-    1 3d2-    1 3d2-    1 3d2-    1 3d2-    1 3d2-    1 3d2-    1 3d2-    1 3d2- 
                                   1 3d2-    1 3d2-    1 3d2-    1 3d2-    1 3d2-    1 3d2-    1 3d2-    1 3d2-    1 3d2-    1 3d2- 
                                   1 3d2-    1 3d2-    1 5g2-    1 5g4- 

   1.4   0     0.0315   -0.3170 -0.000000  0.000000 -0.000000  0.000001 -0.000004  0.000012 -0.000034  0.000085 -0.000193  0.000399
                                -0.000773  0.001426 -0.002517  0.004204 -0.006789  0.011218 -0.018681  0.025117 -0.042921  0.223472
                                -0.612666  1.357384  0.000000 -0.000000

                                   1 2pz     1 2pz     1 2pz     1 2pz     1 2pz     1 2pz     1 2pz     1 2pz     1 2pz     1 2pz  
                                   1 2pz     1 2pz     1 2pz     1 2pz     1 2pz     1 2pz     1 2pz     1 2pz     1 2pz     1 2pz  
                                   1 2pz     1 2pz     1 2pz     1 2pz     1 2pz     1 2pz     1 2pz     1 2pz     1 2pz     1 2pz  
                                   1 2pz     1 2pz     1 2pz     1 2pz     1 4f0     1 4f2+    1 4f0     1 4f2+    1 4f0     1 4f2+ 
                                   1 4f0     1 4f2+    1 4f0     1 4f2+    1 4f0     1 4f2+    1 4f0     1 4f2+    1 4f0     1 4f2+ 
                                   1 4f0     1 4f2+    1 4f0     1 4f2+    1 4f0     1 4f2+    1 4f0     1 4f2+    1 4f0     1 4f2+ 
                                   1 4f0     1 4f2+    1 4f0     1 4f2+    1 4f0     1 4f2+ 

   1.5   +    -0.3142   -1.7468  0.000000 -0.000000  0.000000 -0.000000  0.000000 -0.000000  0.000000 -0.000000  0.000000 -0.000002
                                 0.000005 -0.000014  0.000038 -0.000099  0.000244 -0.000570  0.001260 -0.002647  0.005342 -0.010525
                                 0.021181 -0.046501  0.104573 -0.116708 -0.432049 -0.278349  0.004105  0.104737  0.030039  0.516991
                                 0.388767 -0.005726  0.001493  0.698039 -0.000000 -0.000000  0.000000  0.000000 -0.000000 -0.000000
                                 0.000000  0.000000 -0.000000 -0.000000  0.000000  0.000000 -0.000000 -0.000000  0.000000  0.000000
                                -0.000000 -0.000000  0.000000  0.000000 -0.000000 -0.000000 -0.000000  0.000000  0.000000 -0.000000
                                 0.000000 -0.000000 -0.000000  0.000000  0.000000 -0.000000

   2.5   0     0.0100   -0.2685 -0.000000  0.000000 -0.000000  0.000000 -0.000000  0.000000 -0.000000  0.000000 -0.000000  0.000000
                                -0.000001  0.000004 -0.000010  0.000025 -0.000062  0.000144 -0.000316  0.000657 -0.001297  0.002447
                                -0.004505  0.008404 -0.016367  0.033923 -0.140996 -0.803609 -1.719088 -1.094708  0.883658  0.319832
                                 1.750582 -1.257900  1.684211  1.199147 -0.000000 -0.000000 -0.000000 -0.000000  0.000000  0.000000
                                -0.000000 -0.000000  0.000000  0.000000 -0.000000 -0.000000  0.000000  0.000000 -0.000000  0.000000
                                 0.000000 -0.000000 -0.000000  0.000000  0.000000 -0.000000  0.000001 -0.000000 -0.000001  0.000000
                                -0.000000  0.000000  0.000005 -0.000000 -0.000004  0.000000

                                   1 3d1+    1 3d1+    1 3d1+    1 3d1+    1 3d1+    1 3d1+    1 3d1+    1 3d1+    1 3d1+    1 3d1+ 
                                   1 3d1+    1 3d1+    1 3d1+    1 3d1+    1 3d1+    1 3d1+    1 3d1+    1 3d1+    1 3d1+    1 3d1+ 
                                   1 3d1+    1 3d1+    1 5g1+    1 5g3+ 

   1.6   0     0.0315   -0.3170 -0.000000  0.000000 -0.000000  0.000001 -0.000004  0.000012 -0.000034  0.000085 -0.000193  0.000399
                                -0.000773  0.001426 -0.002517  0.004204 -0.006789  0.011218 -0.018681  0.025117 -0.042921  0.223472
                                -0.612666  1.357384  0.000000 -0.000000

                                   1 3d1-    1 3d1-    1 3d1-    1 3d1-    1 3d1-    1 3d1-    1 3d1-    1 3d1-    1 3d1-    1 3d1- 
                                   1 3d1-    1 3d1-    1 3d1-    1 3d1-    1 3d1-    1 3d1-    1 3d1-    1 3d1-    1 3d1-    1 3d1- 
                                   1 3d1-    1 3d1-    1 5g1-    1 5g3- 

   1.7   0     0.0315   -0.3170 -0.000000  0.000000 -0.000000  0.000001 -0.000004  0.000012 -0.000034  0.000085 -0.000193  0.000399
                                -0.000773  0.001426 -0.002517  0.004204 -0.006789  0.011218 -0.018681  0.025117 -0.042921  0.223472
                                -0.612666  1.357384  0.000000 -0.000000

                                   1 4f2-    1 4f2-    1 4f2-    1 4f2-    1 4f2-    1 4f2-    1 4f2-    1 4f2-    1 4f2-    1 4f2- 
                                   1 4f2-    1 4f2-    1 4f2-    1 4f2-    1 4f2-    1 4f2- 

   1.8   0     0.0982   -0.3132 -0.000001  0.000004 -0.000019  0.000068 -0.000197  0.000494 -0.001105  0.002252 -0.004235  0.008443
                                -0.026362 -0.050892  0.171609  0.042324 -0.495472  1.275366

 HOMO      1.5    -0.314238 =      -8.5508eV
 LUMO      2.1     0.007435 =       0.2023eV
 LUMO-HOMO         0.321672 =       8.7531eV


 **********************************************************************************************************************************
 DATASETS  * FILE   NREC   LENGTH (MB)   RECORD NAMES
              1      19       20.96       500      610      700      900      950      970     1000      129      960     1100   
                                          VAR    BASINP    GEOM    SYMINP    ZMAT    AOBASIS   BASIS     P2S    ABASIS      S 
                                         1400     1410     1420     1200     1210     1080     1600     1650     1700   
                                           T        V       ECP      H0       H01     AOSYM     SMH    MOLCAS    OPER   

              2       5        6.01       200      700     1000      520     4202   
                                        OPTIONS   GEOM     BASIS   MCVARS     RHF  

 PROGRAMS   *        TOTAL       RHF       INT
 CPU TIMES  *       799.62      1.39    797.54
 REAL TIME  *       803.53 SEC
 DISK USED  *         5.58 GB      
 SF USED    *         0.09 MB      
 GA USED    *         0.00 MB       (max)       0.00 MB       (current)
 **********************************************************************************************************************************


 PROGRAM * POP (Mulliken population analysis)

 
 Density matrix read from record         4202.2  Type=RHF/CHARGE (state 1.8)
 
 Population analysis by basis function type

 Unique atom        s        p        d        f        g    Total    Charge
   1  BI      2.00000  3.00000  0.00000  0.00000  0.00000  5.00000  + 0.00000


 **********************************************************************************************************************************
 DATASETS  * FILE   NREC   LENGTH (MB)   RECORD NAMES
              1      19       20.96       500      610      700      900      950      970     1000      129      960     1100   
                                          VAR    BASINP    GEOM    SYMINP    ZMAT    AOBASIS   BASIS     P2S    ABASIS      S 
                                         1400     1410     1420     1200     1210     1080     1600     1650     1700   
                                           T        V       ECP      H0       H01     AOSYM     SMH    MOLCAS    OPER   

              2       5        6.01       200      700     1000      520     4202   
                                        OPTIONS   GEOM     BASIS   MCVARS     RHF  

 PROGRAMS   *        TOTAL       POP       RHF       INT
 CPU TIMES  *       799.62      0.00      1.39    797.54
 REAL TIME  *       803.54 SEC
 DISK USED  *         5.58 GB      
 SF USED    *         0.09 MB      
 GA USED    *         0.00 MB       (max)       0.00 MB       (current)
 **********************************************************************************************************************************


 PROGRAM * MULTI (Direct Multiconfiguration SCF)       Authors: P.J. Knowles, H.-J. Werner (1984)     S.T. Elbert (1988)


 Number of closed-shell orbitals:   1 (   1   0   0   0   0   0   0   0 )
 Number of active  orbitals:        3 (   0   1   1   0   1   0   0   0 )
 Number of external orbitals:     364 (  81  65  65  24  65  24  24  16 )

 State symmetry 1

 Number of electrons:     3    Spin symmetry=Quartet   Space symmetry=8
 Number of states:        1
 Number of CSFs:          1   (1 determinants, 1 intermediate states)

 Molecular orbitals read from record     4202.2  Type=RHF/CANONICAL (state 1.8)

 EXTRA SYMMETRY OF MOS IN SYMMETRY 1:   1 1 3 2 1 2 3 1 3 2   1 3 2 1 2 3 1 6 5 4   3 2 1 1 2 3 1 2 3 1   2 3 1 2 3 1 2 3 1 1
                                        2 3 1 2 3 1 3 2 1 2   3 1 2 3 1 3 2 1 3 2   1 3 2 1 3 2 1 1 3 2   1 2 3 1 1 1 1 1 1 1
                                        1 1
 EXTRA SYMMETRY OF MOS IN SYMMETRY 2:   1 1 1 3 2 1 1 2 3 1   2 3 1 2 3 1 2 3 1 2   3 1 2 3 1 2 3 1 1 3   2 1 2 3 1 1 3 2 1 2
                                        3 1 2 3 1 2 3 1 1 2   3 1 3 2 1 1 1 1 1 1   1 1 1 1 1 1
 EXTRA SYMMETRY OF MOS IN SYMMETRY 3:   1 1 1 3 2 1 1 2 3 1   3 2 1 2 3 1 2 3 1 2   3 1 2 3 1 2 3 1 1 3   2 1 2 3 1 1 2 3 1 2
                                        3 1 3 2 1 3 2 1 1 3   2 1 2 3 1 1 1 1 1 1   1 1 1 1 1 1
 EXTRA SYMMETRY OF MOS IN SYMMETRY 4:   1 1 1 1 1 2 3 1 1 1   1 1 1 1 1 1 1 1 1 1   1 1 1 1
 EXTRA SYMMETRY OF MOS IN SYMMETRY 5:   1 1 1 3 2 1 1 2 3 1   2 3 1 2 3 1 2 3 1 2   3 1 2 3 1 2 3 1 1 3   2 1 2 3 1 1 2 3 1 3
                                        2 1 2 3 1 2 3 1 1 3   2 1 2 3 1 1 1 1 1 1   1 1 1 1 1 1
 EXTRA SYMMETRY OF MOS IN SYMMETRY 6:   1 1 1 1 1 2 3 1 1 1   1 1 1 1 1 1 1 1 1 1   1 1 1 1
 EXTRA SYMMETRY OF MOS IN SYMMETRY 7:   1 1 1 1 1 2 3 1 1 1   1 1 1 1 1 1 1 1 1 1   1 1 1 1

 Wavefunction dump at record             5202.2

 Convergence thresholds  0.10E-01 (gradient)  0.10E-05 (energy)  0.10E-02 (step length)

 Number of orbital rotations:      276   (     0 Core/Active     81 Core/Virtual   0 Active/Active    195 Active/Virtual)
 Total number of variables:        277


 ITER. MIC  NCI  NEG     ENERGY(VAR)     ENERGY(PROJ)   ENERGY CHANGE     GRAD(0)  GRAD(ORB)   GRAD(CI)     STEP       TIME

   1   22    4    0      -5.26366203      -5.26366203   -0.00000000    0.00000231 0.00000000 0.00000000  0.29D-05      0.41

 ** WVFN ****  CONVERGENCE REACHED, FINAL GRADIENT:  0.47D-11


 First order charge density matrix for state 1.8 saved on record  5202.2 (density set 1)

 Results for state 1.8
 =====================

 !MCSCF STATE 1.8 Energy               -5.263662030127
 Nuclear energy                         0.00000000
 Kinetic energy                         1.59419091
 One electron energy                   -8.23473071
 Two electron energy                    2.97106868
 Virial ratio                           4.30177647

 !MCSCF STATE 1.8 Dipole moment         0.00000000     0.00000000     0.00000000
 Dipole moment /Debye                   0.00000000     0.00000000     0.00000000


 NATURAL ORBITALS
 ================

   Orb     Occ        Energy       Coefficients

                                   1 1s      1 1s      1 1s      1 1s      1 1s      1 1s      1 1s      1 1s      1 1s      1 1s   
                                   1 1s      1 1s      1 1s      1 1s      1 1s      1 1s      1 1s      1 1s      1 1s      1 1s   
                                   1 1s      1 1s      1 1s      1 1s      1 1s      1 1s      1 1s      1 1s      1 1s      1 1s   
                                   1 1s      1 1s      1 1s      1 1s      1 1s      1 3d0     1 3d2+    1 3d0     1 3d2+    1 3d0  
                                   1 3d2+    1 3d0     1 3d2+    1 3d0     1 3d2+    1 3d0     1 3d2+    1 3d0     1 3d2+    1 3d0  
                                   1 3d2+    1 3d0     1 3d2+    1 3d0     1 3d2+    1 3d0     1 3d2+    1 3d0     1 3d2+    1 3d0  
                                   1 3d2+    1 3d0     1 3d2+    1 3d0     1 3d2+    1 3d0     1 3d2+    1 3d0     1 3d2+    1 3d0  
                                   1 3d2+    1 3d0     1 3d2+    1 3d0     1 3d2+    1 3d0     1 3d2+    1 3d0     1 3d2+    1 5g0  
                                   1 5g4+    1 5g2+ 

   1.1  2.00000    -0.674940    -0.000000  0.000000 -0.000000  0.000000 -0.000000  0.000000 -0.000000  0.000000 -0.000000  0.000000
                                -0.000000  0.000001 -0.000001  0.000004 -0.000008  0.000023 -0.000051  0.000131 -0.000300  0.000811
                                -0.002529  0.006818  0.011222 -0.014601  0.177407 -0.222352  0.377392  0.678111  0.250510 -0.000561
                                 0.003731 -0.001066 -0.154653 -0.213323 -0.028361  0.000000  0.000000  0.000000  0.000000  0.000000
                                 0.000000  0.000000  0.000000  0.000000  0.000000  0.000000  0.000000  0.000000  0.000000  0.000000
                                 0.000000  0.000000  0.000000  0.000000  0.000000  0.000000  0.000000  0.000000  0.000000  0.000000
                                 0.000000  0.000000  0.000000  0.000000  0.000000  0.000000  0.000000  0.000000  0.000000  0.000000
                                 0.000000  0.000000  0.000000  0.000000  0.000000  0.000000  0.000000  0.000000  0.000000  0.000000
                                 0.000000  0.000000

                                   1 2px     1 2px     1 2px     1 2px     1 2px     1 2px     1 2px     1 2px     1 2px     1 2px  
                                   1 2px     1 2px     1 2px     1 2px     1 2px     1 2px     1 2px     1 2px     1 2px     1 2px  
                                   1 2px     1 2px     1 2px     1 2px     1 2px     1 2px     1 2px     1 2px     1 2px     1 2px  
                                   1 2px     1 2px     1 2px     1 2px     1 4f1+    1 4f3+    1 4f1+    1 4f3+    1 4f1+    1 4f3+ 
                                   1 4f1+    1 4f3+    1 4f1+    1 4f3+    1 4f1+    1 4f3+    1 4f1+    1 4f3+    1 4f1+    1 4f3+ 
                                   1 4f1+    1 4f3+    1 4f1+    1 4f3+    1 4f1+    1 4f3+    1 4f1+    1 4f3+    1 4f1+    1 4f3+ 
                                   1 4f1+    1 4f3+    1 4f1+    1 4f3+    1 4f1+    1 4f3+ 

   1.2  1.00000    -0.133485     0.000000 -0.000000  0.000000 -0.000000  0.000000 -0.000000  0.000000 -0.000000  0.000000 -0.000002
                                 0.000005 -0.000014  0.000038 -0.000099  0.000244 -0.000570  0.001260 -0.002648  0.005342 -0.010526
                                 0.021181 -0.046501  0.104573 -0.116708 -0.432053 -0.278382  0.004045  0.104716  0.030047  0.517003
                                 0.388818 -0.005729  0.001493  0.698089  0.000000  0.000000  0.000000  0.000000  0.000000  0.000000
                                 0.000000  0.000000  0.000000  0.000000  0.000000  0.000000  0.000000  0.000000  0.000000  0.000000
                                 0.000000  0.000000  0.000000  0.000000  0.000000  0.000000  0.000000  0.000000  0.000000  0.000000
                                 0.000000  0.000000  0.000000  0.000000  0.000000  0.000000

                                   1 2py     1 2py     1 2py     1 2py     1 2py     1 2py     1 2py     1 2py     1 2py     1 2py  
                                   1 2py     1 2py     1 2py     1 2py     1 2py     1 2py     1 2py     1 2py     1 2py     1 2py  
                                   1 2py     1 2py     1 2py     1 2py     1 2py     1 2py     1 2py     1 2py     1 2py     1 2py  
                                   1 2py     1 2py     1 2py     1 2py     1 4f1-    1 4f3-    1 4f1-    1 4f3-    1 4f1-    1 4f3- 
                                   1 4f1-    1 4f3-    1 4f1-    1 4f3-    1 4f1-    1 4f3-    1 4f1-    1 4f3-    1 4f1-    1 4f3- 
                                   1 4f1-    1 4f3-    1 4f1-    1 4f3-    1 4f1-    1 4f3-    1 4f1-    1 4f3-    1 4f1-    1 4f3- 
                                   1 4f1-    1 4f3-    1 4f1-    1 4f3-    1 4f1-    1 4f3- 

   1.3  1.00000    -0.133485     0.000000 -0.000000  0.000000 -0.000000  0.000000 -0.000000  0.000000 -0.000000  0.000000 -0.000002
                                 0.000005 -0.000014  0.000038 -0.000099  0.000244 -0.000570  0.001260 -0.002648  0.005342 -0.010526
                                 0.021181 -0.046501  0.104573 -0.116708 -0.432053 -0.278382  0.004045  0.104716  0.030047  0.517003
                                 0.388818 -0.005729  0.001493  0.698089  0.000000  0.000000  0.000000  0.000000  0.000000  0.000000
                                 0.000000  0.000000  0.000000  0.000000  0.000000  0.000000  0.000000  0.000000  0.000000  0.000000
                                 0.000000  0.000000  0.000000  0.000000  0.000000  0.000000  0.000000  0.000000  0.000000  0.000000
                                 0.000000  0.000000  0.000000  0.000000  0.000000  0.000000

                                   1 2pz     1 2pz     1 2pz     1 2pz     1 2pz     1 2pz     1 2pz     1 2pz     1 2pz     1 2pz  
                                   1 2pz     1 2pz     1 2pz     1 2pz     1 2pz     1 2pz     1 2pz     1 2pz     1 2pz     1 2pz  
                                   1 2pz     1 2pz     1 2pz     1 2pz     1 2pz     1 2pz     1 2pz     1 2pz     1 2pz     1 2pz  
                                   1 2pz     1 2pz     1 2pz     1 2pz     1 4f0     1 4f2+    1 4f0     1 4f2+    1 4f0     1 4f2+ 
                                   1 4f0     1 4f2+    1 4f0     1 4f2+    1 4f0     1 4f2+    1 4f0     1 4f2+    1 4f0     1 4f2+ 
                                   1 4f0     1 4f2+    1 4f0     1 4f2+    1 4f0     1 4f2+    1 4f0     1 4f2+    1 4f0     1 4f2+ 
                                   1 4f0     1 4f2+    1 4f0     1 4f2+    1 4f0     1 4f2+ 

   1.5  1.00000    -0.133485     0.000000 -0.000000  0.000000 -0.000000  0.000000 -0.000000  0.000000 -0.000000  0.000000 -0.000002
                                 0.000005 -0.000014  0.000038 -0.000099  0.000244 -0.000570  0.001260 -0.002648  0.005342 -0.010526
                                 0.021181 -0.046501  0.104573 -0.116708 -0.432053 -0.278382  0.004045  0.104716  0.030047  0.517003
                                 0.388818 -0.005729  0.001493  0.698089  0.000000  0.000000  0.000000  0.000000  0.000000  0.000000
                                 0.000000  0.000000  0.000000  0.000000  0.000000  0.000000  0.000000  0.000000  0.000000  0.000000
                                 0.000000  0.000000  0.000000  0.000000  0.000000  0.000000  0.000000  0.000000  0.000000  0.000000
                                 0.000000  0.000000  0.000000  0.000000  0.000000  0.000000
 

 EXTRA SYMMETRY OF MOS IN SYMMETRY 1:   1 1 2 3 1 3 2 1 3 2   1 2 3 1 2 3 1 4 6 5   2 3 1 1 3 2 1 3 2 1   2 3 1 3 2 1 3 2 1 1
                                        3 2 1 3 2 1 3 2 1 2   3 1 2 3 1 3 2 1 3 2   1 2 3 1 2 3 1 1 3 2   1 3 2 1 1 1 1 1 1 1
                                        1 1
 EXTRA SYMMETRY OF MOS IN SYMMETRY 2:   1 1 1 2 3 1 1 2 3 1   2 3 1 2 3 1 2 3 1 3   2 1 3 2 1 2 3 1 1 3   2 1 3 2 1 1 2 3 1 2
                                        3 1 2 3 1 2 3 1 1 2   3 1 3 2 1 1 1 1 1 1   1 1 1 1 1 1
 EXTRA SYMMETRY OF MOS IN SYMMETRY 3:   1 1 1 3 2 1 1 3 2 1   2 3 1 2 3 1 2 3 1 2   3 1 2 3 1 2 3 1 1 2   3 1 3 2 1 1 2 3 1 2
                                        3 1 2 3 1 3 2 1 1 3   2 1 3 2 1 1 1 1 1 1   1 1 1 1 1 1
 EXTRA SYMMETRY OF MOS IN SYMMETRY 5:   1 1 1 2 3 1 1 2 3 1   2 3 1 2 3 1 3 2 1 2   3 1 2 3 1 2 3 1 1 2   3 1 2 3 1 1 2 3 1 3
                                        2 1 2 3 1 2 3 1 1 2   3 1 2 3 1 1 1 1 1 1   1 1 1 1 1 1

 Natural orbital dump at molpro section  5202.2    (Orbital set 2)


 CI vector
 =========

 a a a           1.0000000

 TOTAL ENERGIES                        -5.26366203



 **********************************************************************************************************************************
 DATASETS  * FILE   NREC   LENGTH (MB)   RECORD NAMES
              1      20       23.58       500      610      700      900      950      970     1000      129      960     1100   
                                          VAR    BASINP    GEOM    SYMINP    ZMAT    AOBASIS   BASIS     P2S    ABASIS      S 
                                         1400     1410     1420     1200     1210     1080     1600     1650     1700     1380   
                                           T        V       ECP      H0       H01     AOSYM     SMH    MOLCAS    OPER     JKOP   

              2       6        9.30       200      700     1000      520     4202     5202   
                                        OPTIONS   GEOM     BASIS   MCVARS     RHF     MCSCF   

 PROGRAMS   *        TOTAL     MULTI       POP       RHF       INT
 CPU TIMES  *       800.25      0.63      0.00      1.39    797.54
 REAL TIME  *       804.47 SEC
 DISK USED  *         5.58 GB      
 SF USED    *        13.87 MB      
 GA USED    *         0.00 MB       (max)       0.00 MB       (current)
 **********************************************************************************************************************************


 PROGRAM * RHF-SCF (OPEN SHELL)       Authors: W. Meyer, H.-J. Werner


 NUMBER OF ELECTRONS:       4+    1-    SPACE SYMMETRY=8    SPIN SYMMETRY: Quartet 
 CONVERGENCE THRESHOLDS:    1.00E-05 (Density)    1.00E-07 (Energy)
 MAX. NUMBER OF ITERATIONS:        0
 INTERPOLATION TYPE:            DIIS
 INTERPOLATION STEPS:              2 (START)      1 (STEP)
 LEVEL SHIFTS:                 -0.60 (CLOSED) -0.30 (OPEN) 

 Number of closed-shell orbitals:    1 (   1   0   0   0   0   0   0   0 )
 Number of open-shell orbitals:      3 (   0   1   1   0   1   0   0   0 )


 Molecular orbitals read from record     5202.2  Type=MCSCF/NATURAL (state 1.8)

 Molecular orbital dump at record        2101.2

 ITERATION    DDIFF          GRAD             ENERGY        2-EL.EN.            DIPOLE MOMENTS         DIIS   ORB.
    1      0.000D+00      0.000D+00        -5.26366203      5.942137    0.00000    0.00000    0.00000    0    start

 Final alpha occupancy:   1   1   1   0   1   0   0   0
 Final beta  occupancy:   1   0   0   0   0   0   0   0

 !RHF STATE 1.8 Energy                 -5.263662030127
 Nuclear energy                         0.00000000
 One-electron energy                   -8.23473071
 Two-electron energy                    2.97106868
 Virial quotient                       -3.30177647
 !RHF STATE 1.8 Dipole moment           0.00000000     0.00000000     0.00000000
 Dipole moment /Debye                   0.00000000     0.00000000     0.00000000

 Orbital energies:

         1.1          2.1          3.1
     -0.674940     0.008381     0.031654

         1.2          2.2          3.2
     -0.133485     0.010036     0.037347

         1.3          2.3          3.3
     -0.133485     0.010036     0.037347

         1.4          2.4
      0.031654     0.094516

         1.5          2.5          3.5
     -0.133485     0.010036     0.037347

         1.6          2.6
      0.031654     0.094516

         1.7          2.7
      0.031654     0.094516

         1.8          2.8
      0.098429     0.270938

 HOMO      1.2    -0.133485 =      -3.6323eV
 LUMO      2.1     0.008381 =       0.2280eV
 LUMO-HOMO         0.141865 =       3.8603eV


 **********************************************************************************************************************************
 DATASETS  * FILE   NREC   LENGTH (MB)   RECORD NAMES
              1      20       23.58       500      610      700      900      950      970     1000      129      960     1100   
                                          VAR    BASINP    GEOM    SYMINP    ZMAT    AOBASIS   BASIS     P2S    ABASIS      S 
                                         1400     1410     1420     1200     1210     1080     1600     1650     1700     1380   
                                           T        V       ECP      H0       H01     AOSYM     SMH    MOLCAS    OPER     JKOP   

              2       7       12.51       200      700     1000      520     4202     5202     2101   
                                        OPTIONS   GEOM     BASIS   MCVARS     RHF     MCSCF     RHF  

 PROGRAMS   *        TOTAL       RHF     MULTI       POP       RHF       INT
 CPU TIMES  *       800.44      0.18      0.63      0.00      1.39    797.54
 REAL TIME  *       804.78 SEC
 DISK USED  *         5.58 GB      
 SF USED    *        13.87 MB      
 GA USED    *         0.00 MB       (max)       0.00 MB       (current)
 **********************************************************************************************************************************
 SETTING SCF(1)         =        -5.26366203  AU                              
 SETTING _CC_NORM_MAX   =         2.00000000                                  


 PROGRAM * CCSD (Restricted open-shell coupled cluster)     Authors: C. Hampel, H.-J. Werner, 1991, M. Deegan, P.J. Knowles, 1992


 Convergence thresholds:  THRVAR = 1.00D-08  THRDEN = 1.00D-06

 CCSD(T)     terms to be evaluated (factor= 1.000)


 Number of closed-shell orbitals:   1 (   1   0   0   0   0   0   0   0 )
 Number of active  orbitals:        3 (   0   1   1   0   1   0   0   0 )
 Number of external orbitals:     364 (  81  65  65  24  65  24  24  16 )

 Memory could be reduced to 66.34 Mwords without degradation in triples

 Number of N-1 electron functions:               5
 Number of N-2 electron functions:              10
 Number of singly external CSFs:               360
 Number of doubly external CSFs:            125491
 Total number of CSFs:                      125851

 Molecular orbitals read from record     2101.2  Type=RHF/CANONICAL (state 1.8)

 Integral transformation finished. Total CPU:   1.14 sec, npass=  1  Memory used:   7.93 MW

 Starting RMP2 calculation

 Wavefunction is spin-projected

 ITER.      SQ.NORM     CORR.ENERGY   TOTAL ENERGY   ENERGY CHANGE        DEN1      VAR(S)    VAR(P)  DIIS     TIME
   1      1.02865989    -0.05911797    -5.32278000    -0.05911797    -0.00286979  0.42D-04  0.13D-02  1  1     1.23
   2      1.03365807    -0.06300334    -5.32666537    -0.00388536    -0.00003541  0.87D-06  0.17D-04  2  2     1.32
   3      1.03410170    -0.06320245    -5.32686448    -0.00019912    -0.00000053  0.21D-07  0.25D-06  3  3     1.39
   4      1.03411835    -0.06320482    -5.32686685    -0.00000237    -0.00000001  0.63D-09  0.45D-08  4  4     1.45
   5      1.03411852    -0.06320470    -5.32686673     0.00000012    -0.00000000  0.26D-10  0.10D-09  5  5     1.53

 Norm of t1 vector:      0.02894284      S-energy:    -0.00123203      T1 diagnostic:  0.00058647
 Norm of t2 vector:      0.18243034      P-energy:    -0.06197267
                                         Alpha-Beta:  -0.04513602
                                         Alpha-Alpha: -0.01683665
                                         Beta-Beta:    0.00000000

 Spin contamination <S**2-Sz**2-Sz>     0.00000000
  Reference energy                     -5.263662030127
  RHF-RMP2 correlation energy          -0.063204699292
 !RHF-RMP2 energy                      -5.326866729419
 (NB above energy spin projected)

 Starting RCCSD calculation

 ITER.      SQ.NORM     CORR.ENERGY   TOTAL ENERGY   ENERGY CHANGE        DEN1      VAR(S)    VAR(P)  DIIS     TIME
   1      1.03253189    -0.06236377    -5.32602580    -0.06236377    -0.00506421  0.82D-04  0.22D-02  1  1     1.86
   2      1.04279686    -0.06952794    -5.33318997    -0.00716417    -0.00013718  0.57D-05  0.56D-04  2  2     2.23
   3      1.04424526    -0.07008720    -5.33374923    -0.00055926    -0.00000626  0.53D-06  0.25D-05  3  3     2.55
   4      1.04454721    -0.07019442    -5.33385645    -0.00010722    -0.00000039  0.64D-07  0.14D-06  4  4     2.93
   5      1.04456027    -0.07018880    -5.33385083     0.00000562    -0.00000003  0.12D-07  0.69D-08  5  5     3.28
   6      1.04457185    -0.07019388    -5.33385591    -0.00000508    -0.00000000  0.27D-08  0.52D-09  6  6     3.66
   7      1.04457133    -0.07019314    -5.33385517     0.00000075    -0.00000000  0.52D-09  0.62D-10  7  7     4.01

 Norm of t1 vector:      0.03199207      S-energy:    -0.00126962      T1 diagnostic:  0.00360460
                                                                       D1 diagnostic:  0.00734469
 Norm of t2 vector:      0.20868118      P-energy:    -0.06892352
                                         Alpha-Beta:  -0.05090744
                                         Alpha-Alpha: -0.01801608
                                         Beta-Beta:    0.00000000

 Spin contamination <S**2-Sz**2-Sz>     0.00000000

 Memory could be reduced to 67.19 Mwords without degradation in triples
 

 RESULTS
 =======

  Reference energy                     -5.263662030127
  RCCSD singles energy                 -0.001269617452
  RCCSD pair energy                    -0.068923519649
  RCCSD correlation energy             -0.070193137102
  Triples (T) contribution             -0.002413404580
  Total correlation energy             -0.072606541682
 
  RHF-RCCSD energy                     -5.333855167228
  RHF-RCCSD[T] energy                  -5.336252199026
  RHF-RCCSD-T energy                   -5.336269762461
 !RHF-RCCSD(T) energy                  -5.336268571809

 Program statistics:

 Available memory in ccsd:               511999732
 Min. memory needed in ccsd:                982420
 Max. memory used in ccsd:                 1092820
 Max. memory used in cckext:               1413258 ( 7 integral passes)
 Max. memory used in cckint:               7926189 ( 1 integral passes)



 **********************************************************************************************************************************
 DATASETS  * FILE   NREC   LENGTH (MB)   RECORD NAMES
              1      20       23.58       500      610      700      900      950      970     1000      129      960     1100   
                                          VAR    BASINP    GEOM    SYMINP    ZMAT    AOBASIS   BASIS     P2S    ABASIS      S 
                                         1400     1410     1420     1200     1210     1080     1600     1650     1700     1380   
                                           T        V       ECP      H0       H01     AOSYM     SMH    MOLCAS    OPER     JKOP   

              2       7       12.51       200      700     1000      520     4202     5202     2101   
                                        OPTIONS   GEOM     BASIS   MCVARS     RHF     MCSCF     RHF  

 PROGRAMS   *        TOTAL  RCCSD(T)       RHF     MULTI       POP       RHF       INT
 CPU TIMES  *       807.50      7.05      0.18      0.63      0.00      1.39    797.54
 REAL TIME  *       816.59 SEC
 DISK USED  *         6.18 GB      
 SF USED    *       644.83 MB      
 GA USED    *         0.00 MB       (max)       0.00 MB       (current)
 **********************************************************************************************************************************
 SETTING CCSD(1)        =        -5.33626857  AU                              

 DO I                   =         2.00000000   

 Running procedure=ST_S2P4


 PROGRAM * RHF-SCF (OPEN SHELL)       Authors: W. Meyer, H.-J. Werner


 NUMBER OF ELECTRONS:       4+    2-    SPACE SYMMETRY=4    SPIN SYMMETRY: Triplet 
 CONVERGENCE THRESHOLDS:    1.00E-05 (Density)    1.00E-07 (Energy)
 MAX. NUMBER OF ITERATIONS:       60
 INTERPOLATION TYPE:            DIIS
 INTERPOLATION STEPS:              2 (START)      1 (STEP)
 LEVEL SHIFTS:                 -0.60 (CLOSED) -0.30 (OPEN) 

 Number of closed-shell orbitals:    2 (   1   0   0   0   1   0   0   0 )
 Number of open-shell orbitals:      2 (   0   1   1   0   0   0   0   0 )


 Orbital guess generated from atomic densities. Full valence occupancy:    1   1   1   0   1   0   0   0


 Molecular orbital dump at record        4202.2

 ITERATION    DDIFF          GRAD             ENERGY        2-EL.EN.            DIPOLE MOMENTS         DIIS   ORB.
    1      0.000D+00      0.000D+00        -5.24549519      8.497400    0.00000    0.00000    0.00000    0    start
    2      0.000D+00      0.309D-02        -5.25167872      8.363956    0.00000    0.00000    0.00000    1    diag,B
    3      0.175D-02      0.145D-02        -5.25419537      8.260012    0.00000    0.00000    0.00000    2    diag,B
    4      0.137D-02      0.711D-03        -5.25513626      8.203859    0.00000    0.00000    0.00000    3    diag,B
    5      0.137D-02      0.422D-03        -5.25566283      8.173688    0.00000    0.00000    0.00000    4    diag,B
    6      0.947D-03      0.249D-03        -5.25591773      8.154067    0.00000    0.00000    0.00000    5    diag,B
    7      0.117D-02      0.139D-03        -5.25600414      8.145714    0.00000    0.00000    0.00000    6    fixocc
    8      0.155D-02      0.834D-04        -5.25603792      8.141441    0.00000    0.00000    0.00000    7    diag,B
    9      0.115D-02      0.524D-04        -5.25605221      8.139602    0.00000    0.00000    0.00000    8    diag,B
   10      0.743D-03      0.292D-04        -5.25605655      8.137292    0.00000    0.00000    0.00000    9    orth
   11      0.129D-02      0.172D-04        -5.25605785      8.137087    0.00000    0.00000    0.00000    9    diag,B
   12      0.711D-03      0.114D-04        -5.25605843      8.136475    0.00000    0.00000    0.00000    9    diag,B
   13      0.781D-04      0.872D-05        -5.25605888      8.136278    0.00000    0.00000    0.00000    9    diag,B
   14      0.257D-03      0.570D-05        -5.25605913      8.136133    0.00000    0.00000    0.00000    9    diag,B
   15      0.303D-03      0.250D-05        -5.25605916      8.136106    0.00000    0.00000    0.00000    9    diag,B
   16      0.860D-04      0.102D-05        -5.25605917      8.136138    0.00000    0.00000    0.00000    9    diag,B
   17      0.214D-04      0.456D-06        -5.25605917      8.136161    0.00000    0.00000    0.00000    9    diag,B
   18      0.530D-05      0.239D-06        -5.25605917      8.136166    0.00000    0.00000    0.00000    0    orth

 Final alpha occupancy:   1   1   1   0   1   0   0   0
 Final beta  occupancy:   1   0   0   0   1   0   0   0

 !RHF STATE 1.4 Energy                 -5.256059170798
 Nuclear energy                         0.00000000
 One-electron energy                   -9.32414210
 Two-electron energy                    4.06808293
 Virial quotient                       -3.20132014
 !RHF STATE 1.4 Dipole moment           0.00000000     0.00000000     0.00000000
 Dipole moment /Debye                   0.00000000     0.00000000     0.00000000

 ELECTRON ORBITALS
 =================


   Orb  Occ    Energy  Couls-En    Coefficients

                                   1 1s      1 1s      1 1s      1 1s      1 1s      1 1s      1 1s      1 1s      1 1s      1 1s   
                                   1 1s      1 1s      1 1s      1 1s      1 1s      1 1s      1 1s      1 1s      1 1s      1 1s   
                                   1 1s      1 1s      1 1s      1 1s      1 1s      1 1s      1 1s      1 1s      1 1s      1 1s   
                                   1 1s      1 1s      1 1s      1 1s      1 1s      1 3d0     1 3d2+    1 3d0     1 3d2+    1 3d0  
                                   1 3d2+    1 3d0     1 3d2+    1 3d0     1 3d2+    1 3d0     1 3d2+    1 3d0     1 3d2+    1 3d0  
                                   1 3d2+    1 3d0     1 3d2+    1 3d0     1 3d2+    1 3d0     1 3d2+    1 3d0     1 3d2+    1 3d0  
                                   1 3d2+    1 3d0     1 3d2+    1 3d0     1 3d2+    1 3d0     1 3d2+    1 3d0     1 3d2+    1 3d0  
                                   1 3d2+    1 3d0     1 3d2+    1 3d0     1 3d2+    1 3d0     1 3d2+    1 3d0     1 3d2+    1 5g0  
                                   1 5g4+    1 5g2+ 

   1.1   2    -0.4613   -2.4159 -0.000000  0.000000 -0.000000  0.000000 -0.000000  0.000000 -0.000000  0.000000 -0.000000  0.000000
                                -0.000000  0.000001 -0.000001  0.000004 -0.000009  0.000024 -0.000054  0.000139 -0.000317  0.000845
                                -0.002589  0.006990  0.008757 -0.020374  0.185697 -0.198829  0.371995  0.626379  0.282034  0.030918
                                 0.002450 -0.000096 -0.163326 -0.225719 -0.022538  0.000000  0.000000 -0.000000 -0.000000  0.000000
                                 0.000000 -0.000000 -0.000000  0.000000  0.000000 -0.000000 -0.000000  0.000001  0.000000 -0.000002
                                -0.000000  0.000004  0.000000 -0.000008 -0.000000  0.000015  0.000000 -0.000028 -0.000000  0.000049
                                 0.000000 -0.000081 -0.000000  0.000122  0.000000 -0.000128 -0.000000  0.000361  0.000000 -0.002185
                                -0.000000  0.002755 -0.000000  0.005942 -0.000000  0.000483  0.000000  0.000386 -0.000000  0.000020
                                -0.000000 -0.000000

   2.1   0     0.0781   -0.2357  0.000000 -0.000000  0.000000 -0.000000  0.000000 -0.000000  0.000000 -0.000000  0.000000 -0.000001
                                 0.000002 -0.000005  0.000014 -0.000036  0.000090 -0.000222  0.000530 -0.001228  0.002762 -0.006138
                                 0.014234 -0.039782  0.235836  0.666717 -1.533449 -2.175539 -0.885560  0.834843 -1.156220  2.211835
                                -3.736075  2.913012  1.538215  2.331724 -0.546443  0.000000  0.000000 -0.000000 -0.000000  0.000000
                                 0.000000 -0.000000 -0.000000  0.000000  0.000000 -0.000001 -0.000000  0.000002  0.000000 -0.000005
                                -0.000000  0.000011  0.000000 -0.000023 -0.000000  0.000045  0.000000 -0.000083 -0.000000  0.000146
                                 0.000000 -0.000243 -0.000000  0.000385  0.000000 -0.000591 -0.000000  0.000821  0.000000 -0.001201
                                -0.000000  0.003484  0.000000 -0.011478 -0.000000  0.031416  0.000000 -0.054612 -0.000000 -0.000001
                                -0.000000  0.000000

                                   1 2px     1 2px     1 2px     1 2px     1 2px     1 2px     1 2px     1 2px     1 2px     1 2px  
                                   1 2px     1 2px     1 2px     1 2px     1 2px     1 2px     1 2px     1 2px     1 2px     1 2px  
                                   1 2px     1 2px     1 2px     1 2px     1 2px     1 2px     1 2px     1 2px     1 2px     1 2px  
                                   1 2px     1 2px     1 2px     1 2px     1 4f1+    1 4f3+    1 4f1+    1 4f3+    1 4f1+    1 4f3+ 
                                   1 4f1+    1 4f3+    1 4f1+    1 4f3+    1 4f1+    1 4f3+    1 4f1+    1 4f3+    1 4f1+    1 4f3+ 
                                   1 4f1+    1 4f3+    1 4f1+    1 4f3+    1 4f1+    1 4f3+    1 4f1+    1 4f3+    1 4f1+    1 4f3+ 
                                   1 4f1+    1 4f3+    1 4f1+    1 4f3+    1 4f1+    1 4f3+ 

   1.2   +    -0.0951   -1.4773  0.000000 -0.000000  0.000000 -0.000000  0.000000 -0.000000  0.000000 -0.000000  0.000000 -0.000001
                                 0.000004 -0.000013  0.000035 -0.000091  0.000223 -0.000520  0.001149 -0.002415  0.004872 -0.009598
                                 0.019309 -0.042364  0.095134 -0.105696 -0.394361 -0.259384 -0.010185  0.179306  0.103687  0.474590
                                 0.356033  0.000662  0.002030  0.619817 -0.000000  0.000000  0.000000 -0.000000 -0.000000  0.000000
                                 0.000001 -0.000000 -0.000003 -0.000000  0.000007  0.000000 -0.000018 -0.000000  0.000027 -0.000000
                                -0.000092 -0.000000 -0.000297  0.000000 -0.001927 -0.000000 -0.011936 -0.000000 -0.016502 -0.000000
                                -0.000200  0.000000 -0.004017  0.000000 -0.001311  0.000000

   2.2   0     0.0620   -0.1740 -0.000000  0.000000 -0.000000  0.000000 -0.000000  0.000000 -0.000000  0.000000 -0.000000  0.000001
                                -0.000002  0.000007 -0.000020  0.000052 -0.000127  0.000294 -0.000646  0.001341 -0.002636  0.004937
                                -0.008944  0.016126 -0.030228  0.069772 -0.357940 -1.864049 -3.903560 -2.427258  1.967402  0.775739
                                 3.989130 -2.469414  2.173717  2.794728  0.000000 -0.000000 -0.000000  0.000000  0.000000 -0.000000
                                -0.000000  0.000000  0.000001 -0.000000 -0.000002  0.000000  0.000004 -0.000000 -0.000008  0.000000
                                 0.000015 -0.000000 -0.000022  0.000000  0.000119 -0.000000  0.000361  0.000000 -0.000201 -0.000000
                                -0.000131  0.000000  0.001311  0.000000 -0.002261 -0.000000

                                   1 2py     1 2py     1 2py     1 2py     1 2py     1 2py     1 2py     1 2py     1 2py     1 2py  
                                   1 2py     1 2py     1 2py     1 2py     1 2py     1 2py     1 2py     1 2py     1 2py     1 2py  
                                   1 2py     1 2py     1 2py     1 2py     1 2py     1 2py     1 2py     1 2py     1 2py     1 2py  
                                   1 2py     1 2py     1 2py     1 2py     1 4f1-    1 4f3-    1 4f1-    1 4f3-    1 4f1-    1 4f3- 
                                   1 4f1-    1 4f3-    1 4f1-    1 4f3-    1 4f1-    1 4f3-    1 4f1-    1 4f3-    1 4f1-    1 4f3- 
                                   1 4f1-    1 4f3-    1 4f1-    1 4f3-    1 4f1-    1 4f3-    1 4f1-    1 4f3-    1 4f1-    1 4f3- 
                                   1 4f1-    1 4f3-    1 4f1-    1 4f3-    1 4f1-    1 4f3- 

   1.3   +    -0.0951   -1.4773  0.000000 -0.000000  0.000000 -0.000000  0.000000 -0.000000  0.000000 -0.000000  0.000000 -0.000001
                                 0.000004 -0.000013  0.000035 -0.000091  0.000223 -0.000520  0.001149 -0.002415  0.004872 -0.009598
                                 0.019309 -0.042365  0.095134 -0.105697 -0.394357 -0.259371 -0.010169  0.179312  0.103685  0.474582
                                 0.356020  0.000661  0.002032  0.619802 -0.000000  0.000000  0.000000 -0.000000 -0.000000  0.000000
                                 0.000001 -0.000000 -0.000003 -0.000000  0.000007  0.000000 -0.000018 -0.000000  0.000027  0.000000
                                -0.000092 -0.000000 -0.000297  0.000000 -0.001927 -0.000000 -0.011936 -0.000000 -0.016502 -0.000000
                                -0.000200  0.000000 -0.004016  0.000000 -0.001311  0.000000

   2.3   0     0.0620   -0.1740 -0.000000  0.000000 -0.000000  0.000000 -0.000000  0.000000 -0.000000  0.000000 -0.000000  0.000001
                                -0.000002  0.000007 -0.000020  0.000052 -0.000127  0.000294 -0.000646  0.001341 -0.002636  0.004937
                                -0.008944  0.016126 -0.030228  0.069771 -0.357935 -1.864029 -3.903521 -2.427234  1.967382  0.775728
                                 3.989090 -2.469396  2.173711  2.794698  0.000000 -0.000000 -0.000000 -0.000000  0.000000  0.000000
                                -0.000000  0.000000  0.000001 -0.000000 -0.000002  0.000000  0.000004 -0.000000 -0.000008  0.000000
                                 0.000015 -0.000000 -0.000022  0.000000  0.000119 -0.000000  0.000361 -0.000000 -0.000201 -0.000000
                                -0.000131  0.000000  0.001311  0.000000 -0.002261 -0.000000

                                   1 3d2-    1 3d2-    1 3d2-    1 3d2-    1 3d2-    1 3d2-    1 3d2-    1 3d2-    1 3d2-    1 3d2- 
                                   1 3d2-    1 3d2-    1 3d2-    1 3d2-    1 3d2-    1 3d2-    1 3d2-    1 3d2-    1 3d2-    1 3d2- 
                                   1 3d2-    1 3d2-    1 5g2-    1 5g4- 

   1.4   0     0.1026   -0.2151 -0.000000  0.000000 -0.000000  0.000002 -0.000006  0.000020 -0.000058  0.000145 -0.000328  0.000679
                                -0.001317  0.002426 -0.004273  0.007100 -0.011327  0.018058 -0.028674  0.044305 -0.091887  0.347240
                                -0.986375  1.542245 -0.000010  0.000000

                                   1 2pz     1 2pz     1 2pz     1 2pz     1 2pz     1 2pz     1 2pz     1 2pz     1 2pz     1 2pz  
                                   1 2pz     1 2pz     1 2pz     1 2pz     1 2pz     1 2pz     1 2pz     1 2pz     1 2pz     1 2pz  
                                   1 2pz     1 2pz     1 2pz     1 2pz     1 2pz     1 2pz     1 2pz     1 2pz     1 2pz     1 2pz  
                                   1 2pz     1 2pz     1 2pz     1 2pz     1 4f0     1 4f2+    1 4f0     1 4f2+    1 4f0     1 4f2+ 
                                   1 4f0     1 4f2+    1 4f0     1 4f2+    1 4f0     1 4f2+    1 4f0     1 4f2+    1 4f0     1 4f2+ 
                                   1 4f0     1 4f2+    1 4f0     1 4f2+    1 4f0     1 4f2+    1 4f0     1 4f2+    1 4f0     1 4f2+ 
                                   1 4f0     1 4f2+    1 4f0     1 4f2+    1 4f0     1 4f2+ 

   1.5   2    -0.0376   -1.3629  0.000000 -0.000000  0.000000 -0.000000  0.000000 -0.000000  0.000000 -0.000000  0.000000 -0.000001
                                 0.000004 -0.000012  0.000032 -0.000084  0.000208 -0.000484  0.001070 -0.002249  0.004538 -0.008942
                                 0.018002 -0.039554  0.089109 -0.100283 -0.366246 -0.247299 -0.034110  0.192125  0.176070  0.449273
                                 0.334067  0.044909  0.007410  0.571909 -0.000000  0.000000  0.000000 -0.000000 -0.000000  0.000000
                                 0.000000 -0.000000 -0.000001  0.000000  0.000003 -0.000000 -0.000006  0.000000  0.000008 -0.000000
                                -0.000035  0.000000 -0.000148 -0.000000 -0.000845  0.000000 -0.005077  0.000000 -0.008108 -0.000000
                                -0.000157 -0.000000 -0.003654 -0.000000 -0.002156  0.000000

   2.5   0     0.0626   -0.1736 -0.000000  0.000000 -0.000000  0.000000 -0.000000  0.000000 -0.000000  0.000000 -0.000000  0.000001
                                -0.000003  0.000008 -0.000021  0.000054 -0.000134  0.000311 -0.000682  0.001416 -0.002786  0.005227
                                -0.009508  0.017297 -0.032741  0.073219 -0.356013 -1.889223 -3.965099 -2.469794  1.993361  0.778888
                                 4.045085 -2.502017  2.184863  2.827580  0.000000 -0.000000 -0.000000  0.000000  0.000000 -0.000000
                                -0.000000  0.000000  0.000001 -0.000000 -0.000002  0.000000  0.000005 -0.000000 -0.000010  0.000000
                                 0.000020 -0.000000 -0.000020  0.000000  0.000176 -0.000000  0.000669 -0.000000  0.000122  0.000000
                                -0.000151  0.000000  0.001708 -0.000001 -0.002530  0.000003

                                   1 3d1+    1 3d1+    1 3d1+    1 3d1+    1 3d1+    1 3d1+    1 3d1+    1 3d1+    1 3d1+    1 3d1+ 
                                   1 3d1+    1 3d1+    1 3d1+    1 3d1+    1 3d1+    1 3d1+    1 3d1+    1 3d1+    1 3d1+    1 3d1+ 
                                   1 3d1+    1 3d1+    1 5g1+    1 5g3+ 

   1.6   0     0.1037   -0.2134 -0.000000  0.000000 -0.000000  0.000002 -0.000006  0.000020 -0.000059  0.000148 -0.000334  0.000692
                                -0.001342  0.002472 -0.004353  0.007232 -0.011533  0.018370 -0.029132  0.045044 -0.093428  0.351293
                                -0.996397  1.546637 -0.000013 -0.000000

                                   1 3d1-    1 3d1-    1 3d1-    1 3d1-    1 3d1-    1 3d1-    1 3d1-    1 3d1-    1 3d1-    1 3d1- 
                                   1 3d1-    1 3d1-    1 3d1-    1 3d1-    1 3d1-    1 3d1-    1 3d1-    1 3d1-    1 3d1-    1 3d1- 
                                   1 3d1-    1 3d1-    1 5g1-    1 5g3- 

   1.7   0     0.1037   -0.2134 -0.000000  0.000000 -0.000000  0.000002 -0.000006  0.000020 -0.000059  0.000148 -0.000334  0.000692
                                -0.001342  0.002472 -0.004353  0.007232 -0.011533  0.018370 -0.029132  0.045044 -0.093428  0.351293
                                -0.996397  1.546637 -0.000013 -0.000000

                                   1 4f2-    1 4f2-    1 4f2-    1 4f2-    1 4f2-    1 4f2-    1 4f2-    1 4f2-    1 4f2-    1 4f2- 
                                   1 4f2-    1 4f2-    1 4f2-    1 4f2-    1 4f2-    1 4f2- 

   1.8   0     0.1971   -0.1987 -0.000001  0.000006 -0.000026  0.000093 -0.000270  0.000678 -0.001517  0.003085 -0.005817  0.011354
                                -0.036665 -0.071234  0.219917  0.056944 -0.643977  1.345549

 HOMO      1.5    -0.037563 =      -1.0221eV
 LUMO      2.2     0.062013 =       1.6875eV
 LUMO-HOMO         0.099576 =       2.7096eV


 **********************************************************************************************************************************
 DATASETS  * FILE   NREC   LENGTH (MB)   RECORD NAMES
              1      20       23.58       500      610      700      900      950      970     1000      129      960     1100   
                                          VAR    BASINP    GEOM    SYMINP    ZMAT    AOBASIS   BASIS     P2S    ABASIS      S 
                                         1400     1410     1420     1200     1210     1080     1600     1650     1700     1380   
                                           T        V       ECP      H0       H01     AOSYM     SMH    MOLCAS    OPER     JKOP   

              2       7       12.51       200      700     1000      520     4202     5202     2101   
                                        OPTIONS   GEOM     BASIS   MCVARS     RHF     MCSCF     RHF  

 PROGRAMS   *        TOTAL       RHF  RCCSD(T)       RHF     MULTI       POP       RHF       INT
 CPU TIMES  *       809.97      2.47      7.05      0.18      0.63      0.00      1.39    797.54
 REAL TIME  *       819.34 SEC
 DISK USED  *         6.18 GB      
 SF USED    *       644.83 MB      
 GA USED    *         0.00 MB       (max)       0.00 MB       (current)
 **********************************************************************************************************************************


 PROGRAM * POP (Mulliken population analysis)

 
 Density matrix read from record         4202.2  Type=RHF/CHARGE (state 1.4)
 
 Population analysis by basis function type

 Unique atom        s        p        d        f        g    Total    Charge
   1  BI      1.99988  3.99784  0.00012  0.00216  0.00000  6.00000  - 1.00000


 **********************************************************************************************************************************
 DATASETS  * FILE   NREC   LENGTH (MB)   RECORD NAMES
              1      20       23.58       500      610      700      900      950      970     1000      129      960     1100   
                                          VAR    BASINP    GEOM    SYMINP    ZMAT    AOBASIS   BASIS     P2S    ABASIS      S 
                                         1400     1410     1420     1200     1210     1080     1600     1650     1700     1380   
                                           T        V       ECP      H0       H01     AOSYM     SMH    MOLCAS    OPER     JKOP   

              2       7       12.51       200      700     1000      520     4202     5202     2101   
                                        OPTIONS   GEOM     BASIS   MCVARS     RHF     MCSCF     RHF  

 PROGRAMS   *        TOTAL       POP       RHF  RCCSD(T)       RHF     MULTI       POP       RHF       INT
 CPU TIMES  *       809.98      0.00      2.47      7.05      0.18      0.63      0.00      1.39    797.54
 REAL TIME  *       819.36 SEC
 DISK USED  *         6.18 GB      
 SF USED    *       644.83 MB      
 GA USED    *         0.00 MB       (max)       0.00 MB       (current)
 **********************************************************************************************************************************


 PROGRAM * MULTI (Direct Multiconfiguration SCF)       Authors: P.J. Knowles, H.-J. Werner (1984)     S.T. Elbert (1988)


 Number of closed-shell orbitals:   1 (   1   0   0   0   0   0   0   0 )
 Number of active  orbitals:        3 (   0   1   1   0   1   0   0   0 )
 Number of external orbitals:     364 (  81  65  65  24  65  24  24  16 )

 State symmetry 1

 Number of electrons:     4    Spin symmetry=Triplet   Space symmetry=4
 Number of states:        1
 Number of CSFs:          1   (1 determinants, 3 intermediate states)

 State symmetry 2

 Number of electrons:     4    Spin symmetry=Triplet   Space symmetry=6
 Number of states:        1
 Number of CSFs:          1   (1 determinants, 3 intermediate states)

 State symmetry 3

 Number of electrons:     4    Spin symmetry=Triplet   Space symmetry=7
 Number of states:        1
 Number of CSFs:          1   (1 determinants, 3 intermediate states)

 Molecular orbitals read from record     4202.2  Type=RHF/CANONICAL (state 1.4)
 *** IN SYMMETRY 1 ORBITAL  1 SYMMETRY CONTAMINATION OF 0.581D-02 HAS BEEN REMOVED

 EXTRA SYMMETRY OF MOS IN SYMMETRY 1:   1 1 3 2 1 3 2 1 3 2   1 3 2 1 3 2 1 5 6 4   3 1 1 1 3 2 1 3 2 1   3 2 1 3 2 1 3 2 1 1
                                        3 2 1 3 2 1 3 2 1 3   2 1 3 2 1 3 2 1 3 2   1 3 2 1 3 2 1 1 3 2   1 3 2 1 1 1 1 1 1 1
                                        1 2
 *** IN SYMMETRY 2 ORBITAL  1 SYMMETRY CONTAMINATION OF 0.134D-01 HAS BEEN REMOVED
 EXTRA SYMMETRY OF MOS IN SYMMETRY 2:   1 1 1 3 1 1 1 3 2 1   3 2 1 3 2 1 3 2 1 3   2 1 3 2 1 3 2 1 1 3   2 1 3 2 1 1 3 2 1 3
                                        2 1 3 2 1 3 2 1 1 3   2 1 3 2 1 1 1 1 1 1   1 1 1 1 1 2
 *** IN SYMMETRY 3 ORBITAL  1 SYMMETRY CONTAMINATION OF 0.134D-01 HAS BEEN REMOVED
 EXTRA SYMMETRY OF MOS IN SYMMETRY 3:   1 1 1 3 1 1 1 3 2 1   3 2 1 3 2 1 3 2 1 3   2 1 3 2 1 3 2 1 1 3   2 1 3 2 1 1 3 2 1 3
                                        2 1 3 2 1 3 2 1 1 3   2 1 3 2 1 1 1 1 1 1   1 1 1 1 1 2
 EXTRA SYMMETRY OF MOS IN SYMMETRY 4:   1 1 1 1 1 3 2 1 1 1   1 1 1 1 1 1 1 1 1 1   1 1 1 1
 *** IN SYMMETRY 5 ORBITAL  1 SYMMETRY CONTAMINATION OF 0.746D-02 HAS BEEN REMOVED
 EXTRA SYMMETRY OF MOS IN SYMMETRY 5:   1 1 1 3 1 1 1 3 2 1   3 2 1 3 2 1 3 2 1 3   2 1 3 2 1 3 2 1 1 3   2 1 3 2 1 1 3 2 1 3
                                        2 1 3 2 1 3 2 1 1 3   2 1 3 2 1 1 1 1 1 1   1 1 1 1 1 2
 EXTRA SYMMETRY OF MOS IN SYMMETRY 6:   1 1 1 1 1 3 2 1 1 1   1 1 1 1 1 1 1 1 1 1   1 1 1 1
 EXTRA SYMMETRY OF MOS IN SYMMETRY 7:   1 1 1 1 1 3 2 1 1 1   1 1 1 1 1 1 1 1 1 1   1 1 1 1

 Wavefunction dump at record             5202.2

 Convergence thresholds  0.10E-01 (gradient)  0.10E-05 (energy)  0.10E-02 (step length)

 Weight factors for state symmetry  1:    0.33333
 Weight factors for state symmetry  2:    0.33333
 Weight factors for state symmetry  3:    0.33333

 Number of orbital rotations:      276   (     0 Core/Active     81 Core/Virtual   0 Active/Active    195 Active/Virtual)
 Total number of variables:        279


 ITER. MIC  NCI  NEG     ENERGY(VAR)     ENERGY(PROJ)   ENERGY CHANGE     GRAD(0)  GRAD(ORB)   GRAD(CI)     STEP       TIME

   1  120   12    0      -5.25130538      -5.25322728   -0.00192191    0.24621879 5.38344806 0.00000000  0.98D-01      0.36
   2   46   12    3      -3.98937881      -5.25308808   -1.26370926   *********** 0.01862323 0.00000000  0.21D-02      0.58
   3   35   12    0      -5.25308808      -5.25308808   -0.00000000    0.01862322 0.00000025 0.00000000  0.16D-05      0.78

 ** WVFN ****  CONVERGENCE REACHED, FINAL GRADIENT:  0.25D-06



 Results for state 1.4
 =====================

 !MCSCF STATE 1.4 Energy               -5.253088077263
 Nuclear energy                         0.00000000
 Kinetic energy                         1.64006863
 One electron energy                   -9.33468527
 Two electron energy                    4.08159719
 Virial ratio                           4.20296846

 !MCSCF STATE 1.4 Dipole moment         0.00000000     0.00000000     0.00000000
 Dipole moment /Debye                   0.00000000     0.00000000     0.00000000



 Results for state 1.6
 =====================

 !MCSCF STATE 1.6 Energy               -5.253088077264
 Nuclear energy                         0.00000000
 Kinetic energy                         1.64006863
 One electron energy                   -9.33468527
 Two electron energy                    4.08159719
 Virial ratio                           4.20296846

 !MCSCF STATE 1.6 Dipole moment         0.00000000     0.00000000     0.00000000
 Dipole moment /Debye                   0.00000000     0.00000000     0.00000000



 Results for state 1.7
 =====================

 !MCSCF STATE 1.7 Energy               -5.253088077264
 Nuclear energy                         0.00000000
 Kinetic energy                         1.64006863
 One electron energy                   -9.33468527
 Two electron energy                    4.08159719
 Virial ratio                           4.20296846

 !MCSCF STATE 1.7 Dipole moment         0.00000000     0.00000000     0.00000000
 Dipole moment /Debye                   0.00000000     0.00000000     0.00000000

 State-averaged charge density matrix saved on record  5202.2 (density set 1)


 NATURAL ORBITALS (state averaged)
 =================================

   Orb     Occ        Energy       Coefficients

                                   1 1s      1 1s      1 1s      1 1s      1 1s      1 1s      1 1s      1 1s      1 1s      1 1s   
[...]
                                   1 4f1-    1 4f3-    1 4f1-    1 4f3-    1 4f1-    1 4f3-    1 4f1-    1 4f3-    1 4f1-    1 4f3- 
                                   1 4f1-    1 4f3-    1 4f1-    1 4f3-    1 4f1-    1 4f3- 

   1.3  0.14286    -0.580567     0.000000  0.000000  0.000000  0.000000  0.000000  0.000000  0.000000  0.000000  0.000000  0.000000
                                 0.000000  0.000000  0.000000  0.000000  0.000000  0.000000  0.000000  0.000000  0.000000  0.000000
                                 0.000000  0.000000  0.000000  0.000000  0.000000  0.000000  0.000000  0.000000  0.000000  0.000000
                                 0.000000  0.000000  0.000000  0.000000  0.000000 -0.000000  0.000000  0.000003  0.000000 -0.000013
                                 0.000000  0.000046  0.000000 -0.000130  0.000000  0.000361  0.000000 -0.000686  0.000000  0.002356
                                 0.000000  0.000100  0.000000  0.050057  0.000000  0.155220  0.000000  0.501869  0.000000  0.431537
                                 0.000000  0.133329  0.000000 -0.010604  0.000000  0.014002

   2.3  0.14286    -1.191403     0.000000 -0.000000  0.000000 -0.000000  0.000000 -0.000000  0.000000 -0.000000  0.000001 -0.000002
                                 0.000007 -0.000021  0.000057 -0.000147  0.000362 -0.000843  0.001864 -0.003920  0.007917 -0.015621
                                 0.031524 -0.069664  0.159325 -0.191407 -0.625797 -0.154739 -0.085899 -0.044821  0.011082  0.764415
                                 0.191671 -0.003500  0.000887  0.922452  0.000000  0.000000  0.000000  0.000000  0.000000  0.000000
                                 0.000000  0.000000  0.000000  0.000000  0.000000  0.000000  0.000000  0.000000  0.000000  0.000000
                                 0.000000  0.000000  0.000000  0.000000  0.000000  0.000000  0.000000  0.000000  0.000000  0.000000
                                 0.000000  0.000000  0.000000  0.000000  0.000000  0.000000

                                   1 2pz     1 2pz     1 2pz     1 2pz     1 2pz     1 2pz     1 2pz     1 2pz     1 2pz     1 2pz  
                                   1 2pz     1 2pz     1 2pz     1 2pz     1 2pz     1 2pz     1 2pz     1 2pz     1 2pz     1 2pz  
                                   1 2pz     1 2pz     1 2pz     1 2pz     1 2pz     1 2pz     1 2pz     1 2pz     1 2pz     1 2pz  
                                   1 2pz     1 2pz     1 2pz     1 2pz     1 4f0     1 4f2+    1 4f0     1 4f2+    1 4f0     1 4f2+ 
                                   1 4f0     1 4f2+    1 4f0     1 4f2+    1 4f0     1 4f2+    1 4f0     1 4f2+    1 4f0     1 4f2+ 
                                   1 4f0     1 4f2+    1 4f0     1 4f2+    1 4f0     1 4f2+    1 4f0     1 4f2+    1 4f0     1 4f2+ 
                                   1 4f0     1 4f2+    1 4f0     1 4f2+    1 4f0     1 4f2+ 

   1.5  0.14286    -0.585431    -0.000000  0.000000 -0.000000  0.000000 -0.000000  0.000000 -0.000000  0.000000 -0.000000  0.000000
                                -0.000000  0.000000 -0.000000  0.000000 -0.000000  0.000000 -0.000000  0.000000 -0.000000  0.000000
                                -0.000000  0.000000 -0.000000  0.000000  0.000000  0.000000  0.000000  0.000000 -0.000000 -0.000000
                                -0.000000  0.000000 -0.000000 -0.000000 -0.000000  0.000000  0.000003  0.000000 -0.000013  0.000000
                                 0.000046  0.000000 -0.000130  0.000000  0.000361  0.000000 -0.000686  0.000000  0.002356  0.000000
                                 0.000100  0.000000  0.050057  0.000000  0.155220  0.000000  0.501869  0.000000  0.431537  0.000000
                                 0.133329  0.000000 -0.010604  0.000000  0.014002  0.000000

   2.5  0.14286    -1.195438     0.000000 -0.000000  0.000000 -0.000000  0.000000 -0.000000  0.000000 -0.000000  0.000001 -0.000002
                                 0.000007 -0.000021  0.000057 -0.000147  0.000362 -0.000843  0.001864 -0.003920  0.007917 -0.015621
                                 0.031524 -0.069664  0.159325 -0.191407 -0.625797 -0.154739 -0.085899 -0.044821  0.011082  0.764415
                                 0.191671 -0.003500  0.000887  0.922452  0.000000  0.000000  0.000000  0.000000  0.000000  0.000000
                                 0.000000  0.000000  0.000000  0.000000  0.000000  0.000000  0.000000  0.000000  0.000000  0.000000
                                 0.000000  0.000000  0.000000  0.000000  0.000000  0.000000  0.000000  0.000000  0.000000  0.000000
                                 0.000000  0.000000  0.000000  0.000000  0.000000  0.000000

                                   1 4f2-    1 4f2-    1 4f2-    1 4f2-    1 4f2-    1 4f2-    1 4f2-    1 4f2-    1 4f2-    1 4f2- 
                                   1 4f2-    1 4f2-    1 4f2-    1 4f2-    1 4f2-    1 4f2- 

   1.8  0.14286    -0.583724    -0.000000  0.000003 -0.000013  0.000046 -0.000130  0.000361 -0.000686  0.002356  0.000100  0.050057
                                 0.155220  0.501869  0.431537  0.133329 -0.010604  0.014002

 Total charge:   4.000000000000
 

 EXTRA SYMMETRY OF MOS IN SYMMETRY 1:   1 1 2 3 1 2 3 1 2 3   1 2 3 1 2 3 1 4 6 5   2 3 1 1 2 3 1 2 3 1   2 3 1 2 3 1 2 3 1 1
                                        2 3 1 2 3 1 2 3 1 2   3 1 2 3 1 2 3 1 2 3   1 2 3 1 2 3 1 1 2 3   1 2 3 1 1 1 1 1 1 1
                                        1 1
 EXTRA SYMMETRY OF MOS IN SYMMETRY 2:   3 1 1 2 3 2 1 3 2 1   1 1 3 2 1 1 2 3 1 2   3 1 2 3 1 2 3 1 1 2   3 1 2 3 1 1 2 3 1 2
                                        3 1 2 3 1 2 3 1 1 2   3 1 2 3 1 1 1 1 1 1   1 1 1 1 1 1
 EXTRA SYMMETRY OF MOS IN SYMMETRY 3:   3 1 1 2 3 2 1 3 2 1   1 1 3 2 1 1 2 3 1 2   3 1 2 3 1 2 3 1 1 2   3 1 2 3 1 1 2 3 1 2
                                        3 1 2 3 1 2 3 1 1 2   3 1 2 3 1 1 1 1 1 1   1 1 1 1 1 1
 EXTRA SYMMETRY OF MOS IN SYMMETRY 5:   2 1 1 3 2 3 1 2 3 1   1 1 2 3 1 1 2 3 1 2   3 1 2 3 1 2 3 1 1 2   3 1 2 3 1 1 2 3 1 2
                                        3 1 2 3 1 2 3 1 1 2   3 1 2 3 1 1 1 1 1 1   1 1 1 1 1 1
 EXTRA SYMMETRY OF MOS IN SYMMETRY 6:   1 1 1 1 1 2 3 1 1 1   1 1 1 1 1 1 1 1 1 1   1 1 1 1
 EXTRA SYMMETRY OF MOS IN SYMMETRY 7:   1 1 1 1 1 2 3 1 1 1   1 1 1 1 1 1 1 1 1 1   1 1 1 1

 Natural orbital dump (state averaged) at molpro section  5202.2    (Orbital set 2)


 CI vector for state symmetry 1
 ==============================

 00 00 00 a          1.0000000

 TOTAL ENERGIES                        -0.88477396

 CI vector for state symmetry 2
 ==============================

 0a 00 00 0          1.0000000   0.0000000
 a0 00 00 0          0.0000000   1.0000000

 TOTAL ENERGIES                        -1.50395886    -0.88477396

 CI vector for state symmetry 3
 ==============================

 00 0a 00 0          1.0000000   0.0000000
 00 a0 00 0          0.0000000   1.0000000

 TOTAL ENERGIES                        -1.50395886    -0.88477396

 CI vector for state symmetry 4
 ==============================

 00 00 0a 0          1.0000000   0.0000000
 00 00 a0 0          0.0000000   1.0000000

 TOTAL ENERGIES                        -1.50395886    -0.88477396



 **********************************************************************************************************************************
 DATASETS  * FILE   NREC   LENGTH (MB)   RECORD NAMES
              1      20       29.07       500      610      700      900      950      970     1000      129      960     1100   
                                          VAR    BASINP    GEOM    SYMINP    ZMAT    AOBASIS   BASIS     P2S    ABASIS      S 
                                         1400     1410     1420     1200     1210     1080     1600     1650     1700     1380   
                                           T        V       ECP      H0       H01     AOSYM     SMH    MOLCAS    OPER     JKOP   

              2      23       57.06       200      700     1000      520     4202     5202     2101     5202(1)  2103     2105   
                                        OPTIONS   GEOM     BASIS   MCVARS     RHF     MCSCF     RHF     MCSCF     RHF      RHF  
                                         2107     2109     2111     2113     5202(2)  2115     5202(3)  2117     2119     2121   
                                          RHF      RHF      RHF      RHF     MCSCF     RHF     MCSCF     RHF      RHF      RHF  
                                         2123     2125     2127   
                                          RHF      RHF      RHF  

 PROGRAMS   *        TOTAL     MULTI       POP       RHF  RCCSD(T)       RHF     MULTI       POP       RHF  RCCSD(T)       RHF
 CPU TIMES  *       929.79      1.64      0.00      1.28      1.06      0.27      2.36      0.00      1.47      0.95      0.18
 REAL TIME  *       990.71 SEC
 DISK USED  *         7.26 GB      
 SF USED    *       646.09 MB      
 GA USED    *         0.00 MB       (max)       0.00 MB       (current)
 **********************************************************************************************************************************


 PROGRAM * RHF-SCF (OPEN SHELL)       Authors: W. Meyer, H.-J. Werner


 NUMBER OF ELECTRONS:       1+    0-    SPACE SYMMETRY=8    SPIN SYMMETRY: Doublet 
 CONVERGENCE THRESHOLDS:    1.00E-05 (Density)    1.00E-07 (Energy)
 MAX. NUMBER OF ITERATIONS:        0
 INTERPOLATION TYPE:            DIIS
 INTERPOLATION STEPS:              2 (START)      1 (STEP)
 LEVEL SHIFTS:                 -0.60 (CLOSED) -0.30 (OPEN) 



 Molecular orbitals read from record     5202.2  Type=MCSCF/NATURAL (state averaged)

 Molecular orbital dump at record        2129.2

 ITERATION    DDIFF          GRAD             ENERGY        2-EL.EN.            DIPOLE MOMENTS         DIIS   ORB.
    1      0.000D+00      0.000D+00        -0.88477396      0.000000    0.00000    0.00000    0.00000    0    start

 Final alpha occupancy:   0   0   0   0   0   0   0   1
 Final beta  occupancy:   0   0   0   0   0   0   0   0

 !RHF STATE 1.8 Energy                 -0.884773962716
 Nuclear energy                         0.00000000
 One-electron energy                   -0.88477396
 Two-electron energy                    0.00000000
 Virial quotient                       -0.58865096
 !RHF STATE 1.8 Dipole moment           0.00000000     0.00000000     0.00000000
 Dipole moment /Debye                   0.00000000     0.00000000     0.00000000

 Orbital energies:

         1.1          2.1
     -1.653112    -0.762480

         1.2          2.2
     -0.580567    -1.191403

         1.3          2.3
     -0.580567    -1.191403

         1.4          2.4
     -0.697597    -0.399652

         1.5          2.5
     -0.585431    -1.195438

         1.6          2.6
     -0.697935    -0.400491

         1.7          2.7
     -0.697935    -0.400491

         1.8          2.8          3.8
     -0.583724    -0.376421    -0.249722

 HOMO      1.8    -0.583724 =     -15.8839eV
 LUMO      1.1    -1.653112 =     -44.9835eV
 LUMO-HOMO        -1.069388 =     -29.0995eV


 **********************************************************************************************************************************
 DATASETS  * FILE   NREC   LENGTH (MB)   RECORD NAMES
              1      20       29.07       500      610      700      900      950      970     1000      129      960     1100   
                                          VAR    BASINP    GEOM    SYMINP    ZMAT    AOBASIS   BASIS     P2S    ABASIS      S 
                                         1400     1410     1420     1200     1210     1080     1600     1650     1700     1380   
                                           T        V       ECP      H0       H01     AOSYM     SMH    MOLCAS    OPER     JKOP   

              2      24       60.44       200      700     1000      520     4202     5202     2101     5202(1)  2103     2105   
                                        OPTIONS   GEOM     BASIS   MCVARS     RHF     MCSCF     RHF     MCSCF     RHF      RHF  
                                         2107     2109     2111     2113     5202(2)  2115     5202(3)  2117     2119     2121   
                                          RHF      RHF      RHF      RHF     MCSCF     RHF     MCSCF     RHF      RHF      RHF  
                                         2123     2125     2127     2129   
                                          RHF      RHF      RHF      RHF  

 PROGRAMS   *        TOTAL       RHF     MULTI       POP       RHF  RCCSD(T)       RHF     MULTI       POP       RHF  RCCSD(T)
 CPU TIMES  *       929.92      0.13      1.64      0.00      1.28      1.06      0.27      2.36      0.00      1.47      0.95
 REAL TIME  *       990.99 SEC
 DISK USED  *         7.26 GB      
 SF USED    *       646.09 MB      
 GA USED    *         0.00 MB       (max)       0.00 MB       (current)
 **********************************************************************************************************************************
 SETTING SCF(15)        =        -0.88477396  AU                              
 SETTING _CC_NORM_MAX   =         2.00000000                                  


 PROGRAM * CCSD (Restricted open-shell coupled cluster)     Authors: C. Hampel, H.-J. Werner, 1991, M. Deegan, P.J. Knowles, 1992


 Convergence thresholds:  THRVAR = 1.00D-08  THRDEN = 1.00D-06

 CCSD(T)     terms to be evaluated (factor= 1.000)


 Number of active  orbitals:        1 (   0   0   0   0   0   0   0   1 )
 Number of external orbitals:     367 (  82  66  66  24  66  24  24  15 )

 Memory could be reduced to 46.81 Mwords without degradation in triples

 Number of N-1 electron functions:               1
 Number of N-2 electron functions:               0
 Number of singly external CSFs:                16
 Number of doubly external CSFs:                 0
 Total number of CSFs:                          16

 Molecular orbitals read from record     2129.2  Type=RHF/CANONICAL (state 1.8)

 Integral transformation finished. Total CPU:   0.20 sec, npass=  1  Memory used:   4.88 MW

 Starting RMP2 calculation

 Wavefunction is spin-projected

 ITER.      SQ.NORM     CORR.ENERGY   TOTAL ENERGY   ENERGY CHANGE        DEN1      VAR(S)    VAR(P)  DIIS     TIME
   1      1.00000000    -0.00000000    -0.88477396     0.00000000    -0.00000000  0.42D-31  0.00D+00  1  1     0.23

 Norm of t1 vector:      0.00000000      S-energy:    -0.00000000      T1 diagnostic:  0.00000000
 Norm of t2 vector:      0.00000000      P-energy:     0.00000000
                                         Alpha-Beta:   0.00000000
                                         Alpha-Alpha:  0.00000000
                                         Beta-Beta:    0.00000000

 Spin contamination <S**2-Sz**2-Sz>     0.00000000
  Reference energy                     -0.884773962716
  RHF-RMP2 correlation energy          -0.000000000000
 !RHF-RMP2 energy                      -0.884773962716
 (NB above energy spin projected)

 Starting RCCSD calculation

 ITER.      SQ.NORM     CORR.ENERGY   TOTAL ENERGY   ENERGY CHANGE        DEN1      VAR(S)    VAR(P)  DIIS     TIME
   1      1.00000000    -0.00000000    -0.88477396     0.00000000    -0.00000000  0.27D-30  0.00D+00  1  1     0.23

 Norm of t1 vector:      0.00000000      S-energy:    -0.00000000      T1 diagnostic:  0.00000000
                                                                       D1 diagnostic:  0.00000000
 Norm of t2 vector:      0.00000000      P-energy:     0.00000000
                                         Alpha-Beta:   0.00000000
                                         Alpha-Alpha:  0.00000000
                                         Beta-Beta:    0.00000000

 Spin contamination <S**2-Sz**2-Sz>     0.00000000

 Memory could be reduced to 46.31 Mwords without degradation in triples
 

 RESULTS
 =======

  Reference energy                     -0.884773962716
  RCCSD singles energy                 -0.000000000000
  RCCSD pair energy                     0.000000000000
  RCCSD correlation energy             -0.000000000000
  Triples (T) contribution              0.000000000000
  Total correlation energy             -0.000000000000
 
  RHF-RCCSD energy                     -0.884773962716
  RHF-RCCSD[T] energy                  -0.884773962716
  RHF-RCCSD-T energy                   -0.884773962716
 !RHF-RCCSD(T) energy                  -0.884773962716

 Program statistics:

 Available memory in ccsd:               511999882
 Min. memory needed in ccsd:                572597
 Max. memory used in ccsd:                  572597
 Max. memory used in cckext:               1047983 ( 1 integral passes)
 Max. memory used in cckint:               4882376 ( 1 integral passes)



 **********************************************************************************************************************************
 DATASETS  * FILE   NREC   LENGTH (MB)   RECORD NAMES
              1      20       29.07       500      610      700      900      950      970     1000      129      960     1100   
                                          VAR    BASINP    GEOM    SYMINP    ZMAT    AOBASIS   BASIS     P2S    ABASIS      S 
                                         1400     1410     1420     1200     1210     1080     1600     1650     1700     1380   
                                           T        V       ECP      H0       H01     AOSYM     SMH    MOLCAS    OPER     JKOP   

              2      24       60.44       200      700     1000      520     4202     5202     2101     5202(1)  2103     2105   
                                        OPTIONS   GEOM     BASIS   MCVARS     RHF     MCSCF     RHF     MCSCF     RHF      RHF  
                                         2107     2109     2111     2113     5202(2)  2115     5202(3)  2117     2119     2121   
                                          RHF      RHF      RHF      RHF     MCSCF     RHF     MCSCF     RHF      RHF      RHF  
                                         2123     2125     2127     2129   
                                          RHF      RHF      RHF      RHF  

 PROGRAMS   *        TOTAL  RCCSD(T)       RHF     MULTI       POP       RHF  RCCSD(T)       RHF     MULTI       POP       RHF
 CPU TIMES  *       930.70      0.77      0.13      1.64      0.00      1.28      1.06      0.27      2.36      0.00      1.47
 REAL TIME  *       992.12 SEC
 DISK USED  *         7.26 GB      
 SF USED    *       646.09 MB      
 GA USED    *         0.00 MB       (max)       0.00 MB       (current)
 **********************************************************************************************************************************
 SETTING CCSD(15)       =        -0.88477396  AU                              
                                                                                                                                                                                                                                                                

       SCF           CCSD
    -5.26366203   -5.33626857
    -5.25308808   -5.36348936
    -4.90904829   -5.05242107
    -4.96163423   -5.01990895
    -4.72788559   -4.74849556
    -4.40582475   -4.44965347
    -4.10927358   -4.12067978
    -4.00485028   -4.07862650
    -3.86891228   -3.90793644
    -3.57493114   -3.60443596
    -3.20944452   -3.21397819
    -2.01183277   -2.01183277
    -1.50395886   -1.50395886
    -0.95920652   -0.95920652
    -0.88477396   -0.88477396
                                                  

 RCCSD(T)/USERDEF energy=     -0.884773962716

        RHF-SCF         MULTI           RHF-SCF         RCCSD(T)        RHF-SCF         MULTI           RHF-SCF         RCCSD(T)
     -0.88477396     -0.88477396     -0.88477396     -0.95920652     -0.95920652     -0.95920652     -0.95920653     -1.50395886
 **********************************************************************************************************************************
 Molpro calculation terminated
 Variable memory released
