
 Primary working directories    : /global/cscratch1/sd/haihan
 Secondary working directories  : /global/cscratch1/sd/haihan
 Wavefunction directory         : /global/homes/h/haihan/wfu/
 Main file repository           : /global/cscratch1/sd/haihan/

 SHA1      : 19cd028119e0e09f93f0674bd8af7968d9b3eff6
 NAME      : 2015.1.36
 ARCHNAME  : linux/x86_64
 FC        : /opt/cray/pe/craype/2.5.14/bin/ftn
 BLASLIB   : -L/opt/intel/compilers_and_libraries_2018.1.163/linux/mkl/lib/intel64 -Wl,-_start-group -lmkl_intel_ilp64 -lmkl_intel_thread -lmkl_core -Wl,-_end-group -liomp5
 id        : lbl

 Nodes     nprocs
 nid00283    11
 Number of processes for MPI-2 version of Molpro:   nprocs(total)=   12   nprocs(compute)=   11   nprocs(helper)=    1

 Using customized tuning parameters: mindgm=7; mindgv=16; mindgc=1; mindgr=1; noblas=0; minvec=7
 default implementation of scratch files=sf  

 ***,Calculation for Mo atom, singlet and triplet
 memory,1,g
 
 gthresh,twoint=1.0E-15
 gthresh,oneint=1.0E-15
 
 geometry={
 1
 Mo
 Mo  0.0 0.0 0.0
 }
 
 basis={
 Including file /global/u2/h/haihan/Research/HZECP/Mo/atom/ECP2.3/Mo.ecp
 
 Including file /global/u2/h/haihan/Research/HZECP/Mo/atom/ECP2.3/aug-cc-pwCVTZ.basis
 }
 
 
 
 Including file /global/u2/h/haihan/Research/HZECP/Mo/atom/ECP2.3/states.proc
 
 
 do i=5,5
     if (i.eq.1) then
         IId4s2
     else if (i.eq.2) then
         Id5s1
     else if (i.eq.3) then
         Id5p1
     else if (i.eq.4) then
         EAd5s2
     else if (i.eq.5) then
         IId4s1
     else if (i.eq.6) then
         Id5
     else if (i.eq.7) then
         IId3s2
     else if (i.eq.8) then
         IIId4
     else if (i.eq.9) then
         IVd3
     else if (i.eq.10) then
         Vd2
     else if (i.eq.11) then
         VId1
     else if (i.eq.12) then
         VIp1
     else if (i.eq.13) then
         VI5f1
     else if (i.eq.14) then
         VIIXeandF
     else if (i.eq.15) then
         Xp3
     else if (i.eq.16) then
         XIIIs2
     endif
     scf(i)=energy
     _CC_NORM_MAX=2.0
     {rccsd(t),shifts=0.2,shiftp=0.2,thrdis=1.0;diis,1,1,15,1;maxit,100;core
     orbital,ignore_error}
     ccsd(i)=energy
 enddo
 
 table,scf,ccsd
 type,csv
 save

 Variables initialized (889), CPU time= 0.01 sec
 Commands  initialized (702), CPU time= 0.01 sec, 572 directives.
 Default parameters read. Elapsed time= 1.12 sec

 Checking input...
 Passed
1


                                         ***  PROGRAM SYSTEM MOLPRO  ***
                                       Copyright, TTI GmbH Stuttgart, 2015
                                    Version 2015.1 linked Dec 29 2018 15:55:43


 **********************************************************************************************************************************
 LABEL *   Calculation for Mo atom, singlet and triplet                                  
  64 bit mpp version                                                                     DATE: 26-Mar-21          TIME: 21:45:44  
 **********************************************************************************************************************************

 SHA1:             19cd028119e0e09f93f0674bd8af7968d9b3eff6
 **********************************************************************************************************************************

 THRESHOLDS:

 ZERO    =  1.00D-12  ONEINT  =  1.00D-12  TWOINT  =  1.00D-15  PREFAC  =  1.00D-14  LOCALI  =  1.00D-09  EORDER  =  1.00D-04
 ENERGY  =  0.00D+00  ETEST   =  0.00D+00  EDENS   =  0.00D+00  THRDEDEF=  1.00D-06  GRADIENT=  1.00D-02  STEP    =  1.00D-03
 ORBITAL =  1.00D-05  CIVEC   =  1.00D-05  COEFF   =  1.00D-04  PRINTCI =  5.00D-02  PUNCHCI =  9.90D+01  OPTGRAD =  3.00D-04
 OPTENERG=  1.00D-06  OPTSTEP =  3.00D-04  THRGRAD =  1.00D-10  COMPRESS=  1.00D-11  VARMIN  =  1.00D-07  VARMAX  =  1.00D-03
 THRDOUB =  0.00D+00  THRDIV  =  1.00D-05  THRRED  =  1.00D-07  THRPSP  =  1.00D+00  THRDC   =  1.00D-10  THRCS   =  1.00D-10
 THRNRM  =  1.00D-08  THREQ   =  0.00D+00  THRDE   =  1.00D+00  THRREF  =  1.00D-05  SPARFAC =  1.00D+00  THRDLP  =  1.00D-07
 THRDIA  =  1.00D-10  THRDLS  =  1.00D-07  THRGPS  =  0.00D+00  THRKEX  =  0.00D+00  THRDIS  =  2.00D-01  THRVAR  =  1.00D-10
 THRLOC  =  1.00D-06  THRGAP  =  1.00D-06  THRLOCT = -1.00D+00  THRGAPT = -1.00D+00  THRORB  =  1.00D-06  THRMLTP =  0.00D+00
 THRCPQCI=  1.00D-10  KEXTA   =  0.00D+00  THRCOARS=  0.00D+00  SYMTOL  =  1.00D-06  GRADTOL =  1.00D-06  THROVL  =  1.00D-08
 THRORTH =  1.00D-08  GRID    =  1.00D-06  GRIDMAX =  1.00D-03  DTMAX   =  0.00D+00  THROCCDE=  1.00D-01  THROCCDE=  1.00D-01



 THRESHOLDS:

 ZERO    =  1.00D-12  ONEINT  =  1.00D-15  TWOINT  =  1.00D-15  PREFAC  =  1.00D-14  LOCALI  =  1.00D-09  EORDER  =  1.00D-04
 ENERGY  =  0.00D+00  ETEST   =  0.00D+00  EDENS   =  0.00D+00  THRDEDEF=  1.00D-06  GRADIENT=  1.00D-02  STEP    =  1.00D-03
 ORBITAL =  1.00D-05  CIVEC   =  1.00D-05  COEFF   =  1.00D-04  PRINTCI =  5.00D-02  PUNCHCI =  9.90D+01  OPTGRAD =  3.00D-04
 OPTENERG=  1.00D-06  OPTSTEP =  3.00D-04  THRGRAD =  1.00D-10  COMPRESS=  1.00D-11  VARMIN  =  1.00D-07  VARMAX  =  1.00D-03
 THRDOUB =  0.00D+00  THRDIV  =  1.00D-05  THRRED  =  1.00D-07  THRPSP  =  1.00D+00  THRDC   =  1.00D-10  THRCS   =  1.00D-10
 THRNRM  =  1.00D-08  THREQ   =  0.00D+00  THRDE   =  1.00D+00  THRREF  =  1.00D-05  SPARFAC =  1.00D+00  THRDLP  =  1.00D-07
 THRDIA  =  1.00D-10  THRDLS  =  1.00D-07  THRGPS  =  0.00D+00  THRKEX  =  0.00D+00  THRDIS  =  2.00D-01  THRVAR  =  1.00D-10
 THRLOC  =  1.00D-06  THRGAP  =  1.00D-06  THRLOCT = -1.00D+00  THRGAPT = -1.00D+00  THRORB  =  1.00D-06  THRMLTP =  0.00D+00
 THRCPQCI=  1.00D-10  KEXTA   =  0.00D+00  THRCOARS=  0.00D+00  SYMTOL  =  1.00D-06  GRADTOL =  1.00D-06  THROVL  =  1.00D-08
 THRORTH =  1.00D-08  GRID    =  1.00D-06  GRIDMAX =  1.00D-03  DTMAX   =  0.00D+00  THROCCDE=  1.00D-01  THROCCDE=  1.00D-01



Geometry recognized as XYZ


 Variable memory set to 1000000000 words,  buffer space   230000 words

 SETTING BASIS          =    USERDEF

 DO I                   =         5.00000000   

 Running procedure=IID4S1


 Recomputing integrals since basis changed


 Using spherical harmonics



 PROGRAM * SEWARD (Integral evaluation for generally contracted gaussian basis sets)     Author: Roland Lindh, 1990

 Geometry written to block  1 of record 700

 Orientation using atomic masses  
 Molecule type: Atom
 Symmetry elements: X,Y,Z
 Rotational constants:       0.0000000      0.0000000      0.0000000 GHz  (calculated with average atomic masses)

 Point group  D2h 



 ATOMIC COORDINATES

 NR  ATOM    CHARGE       X              Y              Z

   1  MO     14.00    0.000000000    0.000000000    0.000000000

 NUCLEAR CHARGE:                   14
 NUMBER OF PRIMITIVE AOS:         312
 NUMBER OF SYMMETRY AOS:          256
 NUMBER OF CONTRACTIONS:          256   (  74Ag  +  34B3u +  34B2u +  25B1g +  34B1u +  25B2g +  25B3g +   5Au  )
 NUMBER OF CORE ORBITALS:           4   (   1Ag  +   1B3u +   1B2u +   0B1g +   1B1u +   0B2g +   0B3g +   0Au  )
 NUMBER OF VALENCE ORBITALS:        6   (   3Ag  +   0B3u +   0B2u +   1B1g +   0B1u +   1B2g +   1B3g +   0Au  )


 NUCLEAR REPULSION ENERGY    0.00000000

 EXTRA SYMMETRY OF AOS IN SYMMETRY 1:   1 1 1 1 1 1 1 1 1 1   1 1 1 1 1 1 1 1 1 1   1 1 1 1 1 1 1 1 2 3   2 3 2 3 2 3 2 3 2 3
                                        2 3 2 3 2 3 2 3 2 3   2 3 2 3 2 3 2 3 2 3   2 3 4 5 6 4 5 6 4 5   6 4 5 6
 EXTRA SYMMETRY OF AOS IN SYMMETRY 2:   1 1 1 1 1 1 1 1 1 1   1 1 1 1 1 1 1 1 1 1   1 1 1 1 2 3 2 3 2 3   2 3 2 3
 EXTRA SYMMETRY OF AOS IN SYMMETRY 3:   1 1 1 1 1 1 1 1 1 1   1 1 1 1 1 1 1 1 1 1   1 1 1 1 2 3 2 3 2 3   2 3 2 3
 EXTRA SYMMETRY OF AOS IN SYMMETRY 4:   1 1 1 1 1 1 1 1 1 1   1 1 1 1 1 1 1 2 3 2   3 2 3 2 3
 EXTRA SYMMETRY OF AOS IN SYMMETRY 5:   1 1 1 1 1 1 1 1 1 1   1 1 1 1 1 1 1 1 1 1   1 1 1 1 2 3 2 3 2 3   2 3 2 3
 EXTRA SYMMETRY OF AOS IN SYMMETRY 6:   1 1 1 1 1 1 1 1 1 1   1 1 1 1 1 1 1 2 3 2   3 2 3 2 3
 EXTRA SYMMETRY OF AOS IN SYMMETRY 7:   1 1 1 1 1 1 1 1 1 1   1 1 1 1 1 1 1 2 3 2   3 2 3 2 3

 Eigenvalues of metric

         1 0.976E-04 0.242E-03 0.242E-03 0.322E-03 0.749E-03 0.149E-02 0.236E-02 0.325E-02
         2 0.140E-04 0.464E-03 0.146E-02 0.372E-02 0.847E-02 0.144E-01 0.248E-01 0.407E-01
         3 0.140E-04 0.464E-03 0.146E-02 0.372E-02 0.847E-02 0.144E-01 0.248E-01 0.407E-01
         4 0.242E-03 0.325E-02 0.114E-01 0.303E-01 0.500E-01 0.974E-01 0.153E+00 0.193E+00
         5 0.140E-04 0.464E-03 0.146E-02 0.372E-02 0.847E-02 0.144E-01 0.248E-01 0.407E-01
         6 0.242E-03 0.325E-02 0.114E-01 0.303E-01 0.500E-01 0.974E-01 0.153E+00 0.193E+00
         7 0.242E-03 0.325E-02 0.114E-01 0.303E-01 0.500E-01 0.974E-01 0.153E+00 0.193E+00
         8 0.112E+00 0.295E+00 0.757E+00 0.154E+01 0.229E+01


 Contracted 2-electron integrals neglected if value below      1.0D-15
 AO integral compression algorithm  1   Integral accuracy      1.0D-15

     561.512 MB (compressed) written to integral file ( 51.7%)

     Node minimum: 22.544 MB, node maximum: 72.090 MB


 NUMBER OF SORTED TWO-ELECTRON INTEGRALS:    6439622.     BUFFER LENGTH:  32768
 NUMBER OF SEGMENTS:   1  SEGMENT LENGTH:    6439622      RECORD LENGTH: 524288

 Memory used in sort:       7.00 MW

 SORT1 READ   135748860. AND WROTE     4149201. INTEGRALS IN     12 RECORDS. CPU TIME:     2.76 SEC, REAL TIME:     2.86 SEC
 SORT2 READ    45683255. AND WROTE    70721685. INTEGRALS IN   2024 RECORDS. CPU TIME:     0.17 SEC, REAL TIME:     0.43 SEC

 Node minimum:     6370092.  Node maximum:     6530222. integrals

 OPERATOR DM      FOR CENTER  0  COORDINATES:    0.000000    0.000000    0.000000


 **********************************************************************************************************************************
 DATASETS  * FILE   NREC   LENGTH (MB)   RECORD NAMES
              1      19       20.40       500      610      700      900      950      970     1000      129      960     1100   
                                          VAR    BASINP    GEOM    SYMINP    ZMAT    AOBASIS   BASIS     P2S    ABASIS      S 
                                         1400     1410     1420     1200     1210     1080     1600     1650     1700   
                                           T        V       ECP      H0       H01     AOSYM     SMH    MOLCAS    OPER   

 PROGRAMS   *        TOTAL       INT
 CPU TIMES  *        22.13     21.68
 REAL TIME  *        24.95 SEC
 DISK USED  *         1.09 GB      
 GA USED    *         0.00 MB       (max)       0.00 MB       (current)
 **********************************************************************************************************************************


 PROGRAM * RHF-SCF (OPEN SHELL)       Authors: W. Meyer, H.-J. Werner


 NUMBER OF ELECTRONS:       9+    4-    SPACE SYMMETRY=1    SPIN SYMMETRY: Sextet  
 CONVERGENCE THRESHOLDS:    1.00E-05 (Density)    1.00E-07 (Energy)
 MAX. NUMBER OF ITERATIONS:       60
 INTERPOLATION TYPE:            DIIS
 INTERPOLATION STEPS:              2 (START)      1 (STEP)
 LEVEL SHIFTS:                 -0.60 (CLOSED) -0.30 (OPEN) 

 Number of closed-shell orbitals:    4 (   1   1   1   0   1   0   0   0 )
 Number of open-shell orbitals:      5 (   2   0   0   1   0   1   1   0 )


 
 Extra symmetries of mos in symmetry 1:   1   1   3   2
 Orbital guess generated from atomic densities. Full valence occupancy:    4   1   1   1   1   1   1   0


 Molecular orbital dump at record        4202.2

 ITERATION    DDIFF          GRAD             ENERGY        2-EL.EN.            DIPOLE MOMENTS         DIIS   ORB.
    1      0.000D+00      0.000D+00       -66.55050181     80.488445    0.00000    0.00000    0.00000    0    start
    2      0.000D+00      0.176D-01       -66.82034380     87.491863    0.00000    0.00000    0.00000    1    diag,B
    3      0.858D-02      0.624D-02       -66.84065631     87.687154    0.00000    0.00000    0.00000    2    diag,B
    4      0.296D-02      0.233D-02       -66.84869113     88.097462    0.00000    0.00000    0.00000    3    diag,B
    5      0.292D-02      0.477D-03       -66.84931848     88.232139    0.00000    0.00000    0.00000    4    diag,B
    6      0.131D-02      0.108D-03       -66.84936525     88.243407    0.00000    0.00000    0.00000    5    diag,B
    7      0.390D-03      0.387D-04       -66.84937364     88.247867    0.00000    0.00000    0.00000    6    fixocc
    8      0.121D-03      0.203D-04       -66.84937622     88.248826    0.00000    0.00000    0.00000    7    diag,B
    9      0.241D-04      0.212D-04       -66.84936713     88.248691    0.00000    0.00000    0.00000    8    diag,B
   10      0.570D-04      0.153D-04       -66.84936027     88.248839    0.00000    0.00000    0.00000    9    orth
   11      0.859D-04      0.820D-05       -66.84936036     88.248696    0.00000    0.00000    0.00000    9    diag,B
   12      0.146D-04      0.770D-05       -66.84936058     88.248772    0.00000    0.00000    0.00000    9    diag,B
   13      0.265D-05      0.767D-05       -66.84936094     88.248793    0.00000    0.00000    0.00000    9    diag,B
   14      0.329D-05      0.766D-05       -66.84936255     88.248805    0.00000    0.00000    0.00000    9    diag,B
   15      0.141D-04      0.763D-05       -66.84938676     88.249541    0.00000    0.00000    0.00000    9    diag,B
   16      0.223D-03      0.135D-04       -66.84938545     88.249451    0.00000    0.00000    0.00000    9    diag,B
   17      0.130D-04      0.124D-04       -66.84938328     88.249310    0.00000    0.00000    0.00000    9    diag,B
   18      0.212D-04      0.108D-04       -66.84938245     88.249294    0.00000    0.00000    0.00000    9    diag,B
   19      0.799D-05      0.104D-04       -66.84938247     88.249149    0.00000    0.00000    0.00000    9    diag,B
   20      0.253D-05      0.912D-05       -66.84938266     88.248839    0.00000    0.00000    0.00000    0    orth

 Final alpha occupancy:   3   1   1   1   1   1   1   0
 Final beta  occupancy:   1   1   1   0   1   0   0   0

 !RHF STATE 1.1 Energy                -66.849382660215
 Nuclear energy                         0.00000000
 One-electron energy                 -110.97380218
 Two-electron energy                   44.12441952
 Virial quotient                       -2.85473251
 !RHF STATE 1.1 Dipole moment           0.00000000     0.00000000     0.00000000
 Dipole moment /Debye                   0.00000000     0.00000000     0.00000000

 ELECTRON ORBITALS
 =================


   Orb  Occ    Energy  Couls-En    Coefficients

                                   1 1s      1 1s      1 1s      1 1s      1 1s      1 1s      1 1s      1 1s      1 1s      1 1s   
                                   1 1s      1 1s      1 1s      1 1s      1 1s      1 1s      1 1s      1 1s      1 1s      1 1s   
                                   1 1s      1 1s      1 1s      1 1s      1 1s      1 1s      1 1s      1 1s      1 3d0     1 3d2+ 
                                   1 3d0     1 3d2+    1 3d0     1 3d2+    1 3d0     1 3d2+    1 3d0     1 3d2+    1 3d0     1 3d2+ 
                                   1 3d0     1 3d2+    1 3d0     1 3d2+    1 3d0     1 3d2+    1 3d0     1 3d2+    1 3d0     1 3d2+ 
                                   1 3d0     1 3d2+    1 3d0     1 3d2+    1 3d0     1 3d2+    1 3d0     1 3d2+    1 3d0     1 3d2+ 
                                   1 3d0     1 3d2+    1 5g0     1 5g4+    1 5g2+    1 5g0     1 5g4+    1 5g2+    1 5g0     1 5g4+ 
                                   1 5g2+    1 5g0     1 5g4+    1 5g2+ 

   1.1   2    -3.2664  -14.0139 -0.000000  0.000000 -0.000000  0.000000 -0.000000  0.000000 -0.000000  0.000000 -0.000001  0.000003
                                -0.000007  0.000020 -0.000061  0.000215 -0.000928  0.005227 -0.031887  0.103845  0.016431 -0.464946
                                -0.194517  0.829285  0.527437  0.035091 -0.022708  0.009100 -0.003805  0.000911 -0.000000 -0.000000
                                 0.000000  0.000000 -0.000001 -0.000002  0.000003  0.000007 -0.000010 -0.000028  0.000042  0.000110
                                -0.000077 -0.000201 -0.000201 -0.000537  0.000045 -0.000033  0.000745  0.000288  0.001385  0.001643
                                 0.000492  0.000425  0.000042  0.000075  0.001214  0.003706  0.001516  0.005337 -0.000006 -0.000021
                                 0.000002  0.000006 -0.000128 -0.000065  0.000134 -0.000667 -0.000394  0.000666 -0.000282 -0.000164
                                 0.000281  0.000019  0.000014 -0.000017

   2.1   +    -0.5088   -5.0956  0.000000 -0.000000  0.000000 -0.000000  0.000000 -0.000000  0.000000 -0.000000  0.000000 -0.000001
                                 0.000002 -0.000005  0.000016 -0.000064  0.000302 -0.001830  0.011657 -0.038851 -0.007909  0.196122
                                 0.067662 -0.420011 -0.446874  0.585441  0.623279  0.050546 -0.001021 -0.000175  0.000000  0.000000
                                -0.000000 -0.000000  0.000000  0.000000 -0.000001 -0.000001  0.000003  0.000003 -0.000011 -0.000008
                                 0.000021  0.000019  0.000042 -0.000019  0.000007  0.000157 -0.000577 -0.001574  0.000345  0.005687
                                 0.001425  0.010753  0.000361  0.002549 -0.000337 -0.000647 -0.000188  0.000354 -0.000032 -0.000237
                                 0.000009  0.000067 -0.000143 -0.000091  0.000140 -0.001454 -0.000897  0.001424 -0.001766 -0.001037
                                 0.001751 -0.000404 -0.000214  0.000411

   3.1   +    -0.6930   -7.6522 -0.000000  0.000000 -0.000000  0.000000 -0.000000  0.000000 -0.000000  0.000000 -0.000000  0.000000
                                -0.000000  0.000001 -0.000002  0.000003 -0.000005 -0.000005  0.000118 -0.000436 -0.000274  0.002418
                                 0.000754 -0.001247 -0.002805 -0.010277  0.000007 -0.001303  0.000543 -0.000134 -0.000002 -0.000003
                                 0.000016  0.000018 -0.000078 -0.000092  0.000320  0.000380 -0.001263 -0.001499  0.005036  0.005973
                                -0.009426 -0.011180 -0.024391 -0.028929  0.010572  0.012533  0.157255  0.186554  0.254259  0.301512
                                 0.096189  0.113980  0.006266  0.007415  0.130494  0.154786  0.133618  0.158479 -0.000484 -0.000572
                                 0.000113  0.000134 -0.000897  0.000733  0.001317 -0.002279  0.002060  0.003555 -0.001683  0.001647
                                 0.002760 -0.000225  0.000269  0.000414

   4.1   0    -0.2389   -6.6152  0.000000 -0.000000  0.000000 -0.000000  0.000000 -0.000000  0.000000 -0.000000  0.000000 -0.000000
                                 0.000000 -0.000000  0.000001 -0.000002  0.000005 -0.000015  0.000054 -0.000155  0.000064  0.000542
                                 0.000335 -0.002709 -0.000953  0.005002  0.002602  0.002377 -0.000395  0.000111 -0.000002  0.000002
                                 0.000015 -0.000013 -0.000078  0.000065  0.000319 -0.000269 -0.001259  0.001062  0.005013 -0.004228
                                -0.009358  0.007891 -0.024253  0.020451  0.010213 -0.008608  0.156673 -0.132127  0.283651 -0.239152
                                 0.203682 -0.171599  0.078047 -0.065714  0.127593 -0.107600  0.130758 -0.110276 -0.000699  0.000591
                                 0.001392 -0.001172 -0.000025  0.000230 -0.000143 -0.000050  0.000480 -0.000299 -0.000008 -0.000122
                                 0.000088  0.000027 -0.000502  0.000329

   5.1   0    -0.0822   -1.7454  0.000000 -0.000000  0.000000 -0.000000  0.000000 -0.000000  0.000000 -0.000000  0.000000 -0.000000
                                 0.000000 -0.000000 -0.000001  0.000009 -0.000064  0.000464 -0.003145  0.010623  0.002615 -0.055748
                                -0.017577  0.116845  0.141089 -0.155509 -0.505375 -0.250600  1.152200  0.243687  0.000000 -0.000000
                                -0.000000  0.000000  0.000000 -0.000000 -0.000000  0.000000  0.000000  0.000000 -0.000001 -0.000001
                                 0.000002  0.000000  0.000008  0.000022 -0.000011 -0.000054  0.000045  0.000351 -0.000397 -0.002283
                                -0.000533 -0.003073  0.001161  0.005921 -0.000007  0.000106 -0.000056 -0.000185  0.002667  0.013682
                                 0.000588  0.003019  0.000042  0.000025 -0.000041  0.000366  0.000224 -0.000359  0.000355  0.000203
                                -0.000354  0.000537  0.000376 -0.000501

                                   1 2px     1 2px     1 2px     1 2px     1 2px     1 2px     1 2px     1 2px     1 2px     1 2px  
                                   1 2px     1 2px     1 2px     1 2px     1 2px     1 2px     1 2px     1 2px     1 2px     1 2px  
                                   1 2px     1 2px     1 2px     1 2px     1 4f1+    1 4f3+    1 4f1+    1 4f3+    1 4f1+    1 4f3+ 
                                   1 4f1+    1 4f3+    1 4f1+    1 4f3+ 

   1.2   2    -2.1453  -11.6483 -0.000000  0.000000 -0.000000  0.000001 -0.000007  0.000028 -0.000101  0.000317 -0.000929  0.002682
                                -0.008047  0.019041  0.011469 -0.134109 -0.025035  0.324069  0.539401  0.330083  0.039371 -0.003452
                                 0.001598 -0.119514 -0.000663  0.000192  0.001568  0.000472  0.004036  0.000310  0.003368 -0.001862
                                 0.000027 -0.000065  0.000077 -0.000042

   2.2   0    -0.1673   -3.5778  0.000000 -0.000000  0.000000 -0.000000  0.000002 -0.000007  0.000025 -0.000078  0.000230 -0.000669
                                 0.002028 -0.004854 -0.003092  0.035884  0.007673 -0.095208 -0.167888 -0.125640  0.195252  0.572313
                                 0.371093  0.030351  0.019436  0.001660  0.000138 -0.000361  0.002199 -0.002179  0.006258 -0.001531
                                 0.004023  0.003762  0.000806  0.002807

   3.2   0    -0.0583   -1.3852 -0.000000  0.000000 -0.000000  0.000000 -0.000001  0.000003 -0.000009  0.000028 -0.000082  0.000240
                                -0.000732  0.001752  0.001239 -0.013550 -0.000960  0.036902  0.061538  0.048997 -0.079094 -0.279976
                                -0.293915 -0.013842  0.813381  0.431611 -0.000070  0.000147 -0.000845  0.000764 -0.002406  0.000562
                                -0.001822 -0.001788 -0.002286  0.002643

                                   1 2py     1 2py     1 2py     1 2py     1 2py     1 2py     1 2py     1 2py     1 2py     1 2py  
                                   1 2py     1 2py     1 2py     1 2py     1 2py     1 2py     1 2py     1 2py     1 2py     1 2py  
                                   1 2py     1 2py     1 2py     1 2py     1 4f1-    1 4f3-    1 4f1-    1 4f3-    1 4f1-    1 4f3- 
                                   1 4f1-    1 4f3-    1 4f1-    1 4f3- 

   1.3   2    -2.1364  -11.6308 -0.000000  0.000000 -0.000000  0.000001 -0.000007  0.000028 -0.000100  0.000315 -0.000924  0.002670
                                -0.008013  0.018959  0.011551 -0.134194 -0.023073  0.325120  0.533595  0.333053  0.043428 -0.003851
                                 0.001858 -0.121407 -0.000782  0.000227  0.000536  0.002048  0.001011  0.004259 -0.000074  0.001247
                                -0.000025 -0.000044 -0.000001  0.000029

   2.3   0    -0.1621   -3.5526  0.000000 -0.000000  0.000000 -0.000000  0.000002 -0.000007  0.000025 -0.000080  0.000234 -0.000678
                                 0.002053 -0.004914 -0.003060  0.036013  0.008837 -0.095368 -0.169500 -0.121577  0.190783  0.558322
                                 0.384392  0.028978  0.025295  0.001240 -0.000131 -0.000278 -0.000501 -0.000272  0.000597  0.004363
                                 0.002474  0.007980  0.001486  0.004004

   3.3   0    -0.0575   -1.3725 -0.000000  0.000000 -0.000000  0.000000 -0.000001  0.000003 -0.000009  0.000028 -0.000083  0.000241
                                -0.000736  0.001761  0.001257 -0.013683 -0.000773  0.037448  0.061693  0.047824 -0.077044 -0.269442
                                -0.312508 -0.014204  0.793928  0.456227  0.000050  0.000100  0.000160  0.000030 -0.000237 -0.001696
                                -0.001173 -0.003686  0.000665  0.000481

                                   1 3d2-    1 3d2-    1 3d2-    1 3d2-    1 3d2-    1 3d2-    1 3d2-    1 3d2-    1 3d2-    1 3d2- 
                                   1 3d2-    1 3d2-    1 3d2-    1 3d2-    1 3d2-    1 3d2-    1 3d2-    1 5g2-    1 5g4-    1 5g2- 
                                   1 5g4-    1 5g2-    1 5g4-    1 5g2-    1 5g4- 

   1.4   +    -0.7105   -7.6869 -0.000003  0.000024 -0.000121  0.000500 -0.001970  0.007851 -0.014695 -0.037973  0.016253  0.247246
                                 0.394115  0.143745  0.008449  0.203652  0.207451 -0.000589  0.000132  0.000699  0.000411  0.001858
                                 0.001262  0.001409  0.001041  0.000196  0.000179

   2.4   0    -0.0548   -1.5134  0.000000 -0.000002  0.000011 -0.000043  0.000173 -0.000700  0.001302  0.003631 -0.001922 -0.017859
                                -0.040233  0.007733  0.115545 -0.018288 -0.024461  0.527282  0.497786 -0.000057 -0.000065 -0.000106
                                -0.000112 -0.000051 -0.000115  0.000142  0.002523

   3.4   0    -0.0238   -1.2636 -0.000000  0.000002 -0.000008  0.000034 -0.000148  0.000664 -0.001120 -0.005222  0.004923 -0.025593
                                 0.068474 -0.045730 -0.070153  0.014998  0.069809 -1.080078  1.216802  0.000065  0.000073  0.000121
                                 0.000145  0.000052  0.000063 -0.000165 -0.002973

                                   1 2pz     1 2pz     1 2pz     1 2pz     1 2pz     1 2pz     1 2pz     1 2pz     1 2pz     1 2pz  
                                   1 2pz     1 2pz     1 2pz     1 2pz     1 2pz     1 2pz     1 2pz     1 2pz     1 2pz     1 2pz  
                                   1 2pz     1 2pz     1 2pz     1 2pz     1 4f0     1 4f2+    1 4f0     1 4f2+    1 4f0     1 4f2+ 
                                   1 4f0     1 4f2+    1 4f0     1 4f2+ 

   1.5   2    -2.1425  -11.6424 -0.000000  0.000000 -0.000000  0.000001 -0.000007  0.000028 -0.000100  0.000316 -0.000927  0.002678
                                -0.008035  0.019013  0.011496 -0.134134 -0.024384  0.324391  0.537403  0.331134  0.040716 -0.003595
                                 0.001688 -0.120119 -0.000704  0.000204 -0.001070  0.002358 -0.002809  0.005188 -0.002600  0.002342
                                -0.000033 -0.000025 -0.000058  0.000053

   2.5   0    -0.1654   -3.5680  0.000000 -0.000000  0.000000 -0.000000  0.000002 -0.000007  0.000025 -0.000079  0.000231 -0.000672
                                 0.002036 -0.004872 -0.003079  0.035901  0.008076 -0.095184 -0.168297 -0.124157  0.193246  0.567295
                                 0.376155  0.029841  0.021477  0.001517 -0.000137 -0.000178 -0.001855  0.000635 -0.004755  0.006208
                                -0.002443  0.008414 -0.000184  0.003637

   3.5   0    -0.0580   -1.3809 -0.000000  0.000000 -0.000000  0.000000 -0.000001  0.000003 -0.000009  0.000028 -0.000083  0.000241
                                -0.000733  0.001755  0.001246 -0.013598 -0.000888  0.037099  0.061581  0.048611 -0.078280 -0.276432
                                -0.300716 -0.013978  0.806895  0.440084  0.000065  0.000056  0.000700 -0.000309  0.001825 -0.002410
                                 0.001056 -0.003867  0.002083 -0.000424

                                   1 3d1+    1 3d1+    1 3d1+    1 3d1+    1 3d1+    1 3d1+    1 3d1+    1 3d1+    1 3d1+    1 3d1+ 
                                   1 3d1+    1 3d1+    1 3d1+    1 3d1+    1 3d1+    1 3d1+    1 3d1+    1 5g1+    1 5g3+    1 5g1+ 
                                   1 5g3+    1 5g1+    1 5g3+    1 5g1+    1 5g3+ 

   1.6   +    -0.7339   -7.7323 -0.000003  0.000024 -0.000122  0.000503 -0.001984  0.007900 -0.014788 -0.038135  0.016050  0.251658
                                 0.393442  0.136754  0.006997  0.205197  0.207476 -0.000411  0.000084  0.000094  0.000700  0.000249
                                 0.001944  0.000191  0.001474  0.000022  0.000209

   2.6   0    -0.0554   -1.5343  0.000000 -0.000002  0.000011 -0.000045  0.000178 -0.000717  0.001334  0.003710 -0.001940 -0.018677
                                -0.040797  0.010586  0.125177 -0.018781 -0.024874  0.535663  0.481336 -0.000004 -0.000078 -0.000008
                                -0.000139 -0.000007 -0.000085 -0.000272  0.001734

   3.6   0    -0.0244   -1.2600 -0.000000  0.000002 -0.000008  0.000035 -0.000151  0.000671 -0.001139 -0.005173  0.004780 -0.023174
                                 0.067127 -0.047409 -0.082829  0.015340  0.067880 -1.055263  1.218471  0.000004  0.000087  0.000006
                                 0.000166  0.000014  0.000047  0.000314 -0.001990

                                   1 3d1-    1 3d1-    1 3d1-    1 3d1-    1 3d1-    1 3d1-    1 3d1-    1 3d1-    1 3d1-    1 3d1- 
                                   1 3d1-    1 3d1-    1 3d1-    1 3d1-    1 3d1-    1 3d1-    1 3d1-    1 5g1-    1 5g3-    1 5g1- 
                                   1 5g3-    1 5g1-    1 5g3-    1 5g1-    1 5g3- 

   1.7   +    -0.6974   -7.6608 -0.000003  0.000024 -0.000121  0.000498 -0.001963  0.007822 -0.014642 -0.037874  0.016361  0.244825
                                 0.394395  0.147792  0.009376  0.202756  0.207334 -0.000706  0.000163 -0.000286  0.001469 -0.000636
                                 0.003968 -0.000413  0.003071 -0.000038  0.000461

   2.7   0    -0.0545   -1.5031  0.000000 -0.000002  0.000010 -0.000043  0.000171 -0.000693  0.001287  0.003595 -0.001915 -0.017476
                                -0.040009  0.006213  0.110729 -0.018061 -0.024269  0.522964  0.506024  0.000007 -0.000134  0.000019
                                -0.000248 -0.000042 -0.000146  0.001225  0.001441

   3.7   0    -0.0235   -1.2653 -0.000000  0.000002 -0.000008  0.000033 -0.000147  0.000661 -0.001112 -0.005250  0.005000 -0.026830
                                 0.069223 -0.044754 -0.063530  0.014835  0.070818 -1.092659  1.215917 -0.000009  0.000155 -0.000012
                                 0.000294  0.000017  0.000125 -0.001461 -0.001718

                                   1 4f2-    1 4f2-    1 4f2-    1 4f2-    1 4f2- 

   1.8   0     0.0451   -1.9127  0.006223 -0.005197  0.073651 -0.131225  1.067361

   2.8   0     0.3065   -2.6279  0.004332  0.093443 -0.033050  1.288570 -0.757002

 HOMO      3.1    -0.693044 =     -18.8587eV
 LUMO      4.1    -0.238895 =      -6.5007eV
 LUMO-HOMO         0.454148 =      12.3580eV


 **********************************************************************************************************************************
 DATASETS  * FILE   NREC   LENGTH (MB)   RECORD NAMES
              1      19       20.43       500      610      700      900      950      970     1000      129      960     1100   
                                          VAR    BASINP    GEOM    SYMINP    ZMAT    AOBASIS   BASIS     P2S    ABASIS      S 
                                         1400     1410     1420     1200     1210     1080     1600     1650     1700   
                                           T        V       ECP      H0       H01     AOSYM     SMH    MOLCAS    OPER   

              2       5        5.68       200      700     1000      520     4202   
                                        OPTIONS   GEOM     BASIS   MCVARS     RHF  

 PROGRAMS   *        TOTAL       RHF       INT
 CPU TIMES  *        23.04      0.91     21.68
 REAL TIME  *        26.06 SEC
 DISK USED  *         1.40 GB      
 SF USED    *         0.04 MB      
 GA USED    *         0.00 MB       (max)       0.00 MB       (current)
 **********************************************************************************************************************************


 PROGRAM * POP (Mulliken population analysis)

 
 Density matrix read from record         4202.2  Type=RHF/CHARGE (state 1.1)
 
 Population analysis by basis function type

 Unique atom        s        p        d        f        g    Total    Charge
   1  MO      2.99964  5.99959  4.00018  0.00041  0.00018 13.00000  + 1.00000


 **********************************************************************************************************************************
 DATASETS  * FILE   NREC   LENGTH (MB)   RECORD NAMES
              1      19       20.43       500      610      700      900      950      970     1000      129      960     1100   
                                          VAR    BASINP    GEOM    SYMINP    ZMAT    AOBASIS   BASIS     P2S    ABASIS      S 
                                         1400     1410     1420     1200     1210     1080     1600     1650     1700   
                                           T        V       ECP      H0       H01     AOSYM     SMH    MOLCAS    OPER   

              2       5        5.68       200      700     1000      520     4202   
                                        OPTIONS   GEOM     BASIS   MCVARS     RHF  

 PROGRAMS   *        TOTAL       POP       RHF       INT
 CPU TIMES  *        23.04      0.00      0.91     21.68
 REAL TIME  *        26.07 SEC
 DISK USED  *         1.40 GB      
 SF USED    *         0.04 MB      
 GA USED    *         0.00 MB       (max)       0.00 MB       (current)
 **********************************************************************************************************************************


 PROGRAM * MULTI (Direct Multiconfiguration SCF)       Authors: P.J. Knowles, H.-J. Werner (1984)     S.T. Elbert (1988)


 Number of closed-shell orbitals:   4 (   1   1   1   0   1   0   0   0 )
 Number of active  orbitals:        6 (   3   0   0   1   0   1   1   0 )
 Number of external orbitals:     246 (  70  33  33  24  33  24  24   5 )

 State symmetry 1

 Orbital occupancy restrictions for symmetry 1
  1      1       200000                          

 Number of electrons:     5    Spin symmetry=Sextet    Space symmetry=1
 Number of states:        2
 Number of CSFs:          2

 State symmetry 2

 Orbital occupancy restrictions for symmetry 4
  1      1       200000                          

 Number of electrons:     5    Spin symmetry=Sextet    Space symmetry=4
 Number of states:        1
 Number of CSFs:          1

 State symmetry 3

 Orbital occupancy restrictions for symmetry 6
  1      1       200000                          

 Number of electrons:     5    Spin symmetry=Sextet    Space symmetry=6
 Number of states:        1
 Number of CSFs:          1

 State symmetry 4

 Orbital occupancy restrictions for symmetry 7
  1      1       200000                          

 Number of electrons:     5    Spin symmetry=Sextet    Space symmetry=7
 Number of states:        1
 Number of CSFs:          1
 
 Maximum number of shells:             1
 Maximum number of spin couplings:     1

 Storage for configuration lists      46, coupling coefficients      5, address lists    266

 Molecular orbitals read from record     4202.2  Type=RHF/CANONICAL (state 1.1)
 *** IN SYMMETRY 1 ORBITAL  1 SYMMETRY CONTAMINATION OF 0.928D-02 HAS BEEN REMOVED
 *** IN SYMMETRY 1 ORBITAL  2 SYMMETRY CONTAMINATION OF 0.141D-01 HAS BEEN REMOVED
 *** IN SYMMETRY 1 ORBITAL  3 SYMMETRY CONTAMINATION OF 0.469D+00 HAS BEEN REMOVED
 *** IN SYMMETRY 1 ORBITAL  4 SYMMETRY CONTAMINATION OF 0.462D+00 HAS BEEN REMOVED

 EXTRA SYMMETRY OF MOS IN SYMMETRY 1:   1 1 3 2 1 3 2 1 3 2   1 3 2 1 4 5 6 3 2 6   5 4 3 2 1 3 5 2 2 3   2 3 1 6 5 4 2 3 1 2
                                        3 1 2 3 1 2 3 1 2 3   1 2 3 1 1 2 3 1 2 3   1 1 1 1 1 1 1 1 1 1   1 1 6 4
 *** IN SYMMETRY 2 ORBITAL  1 SYMMETRY CONTAMINATION OF 0.752D-02 HAS BEEN REMOVED
 EXTRA SYMMETRY OF MOS IN SYMMETRY 2:   1 1 1 1 2 3 1 2 3 1   2 3 1 2 3 1 2 3 1 1   1 1 1 1 1 1 1 1 1 1   1 1 1 1
 *** IN SYMMETRY 3 ORBITAL  1 SYMMETRY CONTAMINATION OF 0.590D-02 HAS BEEN REMOVED
 EXTRA SYMMETRY OF MOS IN SYMMETRY 3:   1 1 1 1 3 2 1 3 2 1   3 2 1 3 2 1 3 2 1 1   1 1 1 1 1 1 1 1 1 1   1 1 1 1
 *** IN SYMMETRY 4 ORBITAL  1 SYMMETRY CONTAMINATION OF 0.546D-02 HAS BEEN REMOVED
 EXTRA SYMMETRY OF MOS IN SYMMETRY 4:   1 1 1 1 2 3 1 2 3 1   1 3 1 1 2 3 1 1 1 1   1 1 1 1 2
 *** IN SYMMETRY 5 ORBITAL  1 SYMMETRY CONTAMINATION OF 0.105D-01 HAS BEEN REMOVED
 EXTRA SYMMETRY OF MOS IN SYMMETRY 5:   1 1 1 1 2 3 1 3 2 1   3 2 1 3 2 1 3 2 1 1   1 1 1 1 1 1 1 1 1 1   1 1 1 1
 *** IN SYMMETRY 6 ORBITAL  1 SYMMETRY CONTAMINATION OF 0.380D-02 HAS BEEN REMOVED
 EXTRA SYMMETRY OF MOS IN SYMMETRY 6:   1 1 1 1 2 3 1 2 3 1   1 3 1 1 2 3 1 1 1 1   1 1 1 1 2
 *** IN SYMMETRY 7 ORBITAL  1 SYMMETRY CONTAMINATION OF 0.797D-02 HAS BEEN REMOVED
 EXTRA SYMMETRY OF MOS IN SYMMETRY 7:   1 1 1 1 3 2 1 3 2 1   3 1 1 1 3 2 1 1 1 1   1 1 1 1 2

 Wavefunction dump at record             5202.2

 Convergence thresholds  0.10E-01 (gradient)  0.10E-05 (energy)  0.10E-02 (step length)

 Weight factors for state symmetry  1:    0.20000   0.20000
 Weight factors for state symmetry  2:    0.20000
 Weight factors for state symmetry  3:    0.20000
 Weight factors for state symmetry  4:    0.20000

 Eigenvalues of redundancy matrix
   1-  3   -0.000000    0.000000    1.000000

 Non-redundant active-active orbital rotations:
     1  2  3  4  5
  2   
  3  +   
  4         
  5            
  6               

 Number of orbital rotations:      455   (     3 Core/Active    169 Core/Virtual   1 Active/Active    282 Active/Virtual)
 Total number of variables:        462


 ITER. MIC  NCI  NEG     ENERGY(VAR)     ENERGY(PROJ)   ENERGY CHANGE     GRAD(0)  GRAD(ORB)   GRAD(CI)     STEP       TIME

   1   24   28    0     -66.82824279     -66.84701279   -0.01876999    0.10927039 0.00000000 0.00000000  0.20D+00      0.24
   2   23   32    0     -66.84699623     -66.84700514   -0.00000891    0.00390820 0.00000002 0.00000000  0.41D-02      0.47
   3   48   20    0     -66.84700514     -66.84700514   -0.00000000    0.00000248 0.00000000 0.00000000  0.24D-05      0.65

 ** WVFN ****  CONVERGENCE REACHED, FINAL GRADIENT:  0.36D-10



 Results for state 1.1
 =====================

 !MCSCF STATE 1.1 Energy              -66.847005142471
 Nuclear energy                         0.00000000
 Kinetic energy                        23.41255327
 One electron energy                 -110.97288791
 Two electron energy                   44.12588277
 Virial ratio                           3.85517792

 !MCSCF STATE 1.1 Dipole moment         0.00000000     0.00000000     0.00000000
 Dipole moment /Debye                   0.00000000     0.00000000     0.00000000

 Results for state 2.1
 =====================

 !MCSCF STATE 2.1 Energy              -66.847005142471
 Nuclear energy                         0.00000000
 Kinetic energy                        23.41255327
 One electron energy                 -110.97288791
 Two electron energy                   44.12588277
 Virial ratio                           3.85517792

 !MCSCF STATE 2.1 Dipole moment         0.00000000     0.00000000     0.00000000
 Dipole moment /Debye                   0.00000000     0.00000000     0.00000000



 Results for state 1.4
 =====================

 !MCSCF STATE 1.4 Energy              -66.847005142471
 Nuclear energy                         0.00000000
 Kinetic energy                        23.41255327
 One electron energy                 -110.97288791
 Two electron energy                   44.12588277
 Virial ratio                           3.85517792

 !MCSCF STATE 1.4 Dipole moment         0.00000000     0.00000000     0.00000000
 Dipole moment /Debye                   0.00000000     0.00000000     0.00000000



 Results for state 1.6
 =====================

 !MCSCF STATE 1.6 Energy              -66.847005142471
 Nuclear energy                         0.00000000
 Kinetic energy                        23.41255327
 One electron energy                 -110.97288791
 Two electron energy                   44.12588277
 Virial ratio                           3.85517792

 !MCSCF STATE 1.6 Dipole moment         0.00000000     0.00000000     0.00000000
 Dipole moment /Debye                   0.00000000     0.00000000     0.00000000



 Results for state 1.7
 =====================

 !MCSCF STATE 1.7 Energy              -66.847005142471
 Nuclear energy                         0.00000000
 Kinetic energy                        23.41255327
 One electron energy                 -110.97288791
 Two electron energy                   44.12588277
 Virial ratio                           3.85517792

 !MCSCF STATE 1.7 Dipole moment         0.00000000     0.00000000     0.00000000
 Dipole moment /Debye                   0.00000000     0.00000000     0.00000000

 State-averaged charge density matrix saved on record  5202.2 (density set 1)


 NATURAL ORBITALS (state averaged)
 =================================

   Orb     Occ        Energy       Coefficients

                                   1 1s      1 1s      1 1s      1 1s      1 1s      1 1s      1 1s      1 1s      1 1s      1 1s   
                                   1 1s      1 1s      1 1s      1 1s      1 1s      1 1s      1 1s      1 1s      1 1s      1 1s   
                                   1 1s      1 1s      1 1s      1 1s      1 1s      1 1s      1 1s      1 1s      1 3d0     1 3d2+ 
                                   1 3d0     1 3d2+    1 3d0     1 3d2+    1 3d0     1 3d2+    1 3d0     1 3d2+    1 3d0     1 3d2+ 
                                   1 3d0     1 3d2+    1 3d0     1 3d2+    1 3d0     1 3d2+    1 3d0     1 3d2+    1 3d0     1 3d2+ 
                                   1 3d0     1 3d2+    1 3d0     1 3d2+    1 3d0     1 3d2+    1 3d0     1 3d2+    1 3d0     1 3d2+ 
                                   1 3d0     1 3d2+    1 5g0     1 5g4+    1 5g2+    1 5g0     1 5g4+    1 5g2+    1 5g0     1 5g4+ 
                                   1 5g2+    1 5g0     1 5g4+    1 5g2+ 

   1.1  2.00000    -3.266761    -0.000000  0.000000 -0.000000  0.000000 -0.000000  0.000000 -0.000000  0.000000 -0.000001  0.000003
                                -0.000007  0.000020 -0.000061  0.000215 -0.000928  0.005227 -0.031889  0.103851  0.016438 -0.465003
                                -0.194512  0.829395  0.527394  0.035123 -0.022716  0.009102 -0.003806  0.000912  0.000000  0.000000
                                 0.000000  0.000000  0.000000  0.000000  0.000000  0.000000  0.000000  0.000000  0.000000  0.000000
                                 0.000000  0.000000  0.000000  0.000000  0.000000  0.000000  0.000000  0.000000  0.000000  0.000000
                                 0.000000  0.000000  0.000000  0.000000  0.000000  0.000000  0.000000  0.000000  0.000000  0.000000
                                 0.000000  0.000000  0.000000  0.000000  0.000000  0.000000  0.000000  0.000000  0.000000  0.000000
                                 0.000000  0.000000  0.000000  0.000000

   2.1  1.00000    -0.340006     0.000000 -0.000000  0.000000 -0.000000  0.000000 -0.000000  0.000000 -0.000000  0.000000 -0.000001
                                 0.000002 -0.000005  0.000017 -0.000064  0.000303 -0.001832  0.011662 -0.038864 -0.007897  0.196131
                                 0.067716 -0.420213 -0.446821  0.585808  0.623005  0.050716 -0.001084 -0.000171  0.000000  0.000000
                                 0.000000  0.000000  0.000000  0.000000  0.000000  0.000000  0.000000  0.000000  0.000000  0.000000
                                 0.000000  0.000000  0.000000  0.000000  0.000000  0.000000  0.000000  0.000000  0.000000  0.000000
                                 0.000000  0.000000  0.000000  0.000000  0.000000  0.000000  0.000000  0.000000  0.000000  0.000000
                                 0.000000  0.000000  0.000000  0.000000  0.000000  0.000000  0.000000  0.000000  0.000000  0.000000
                                 0.000000  0.000000  0.000000  0.000000

   3.1  0.80000    -0.349028     0.000000  0.000000  0.000000  0.000000  0.000000  0.000000  0.000000  0.000000  0.000000  0.000000
                                 0.000000  0.000000  0.000000  0.000000  0.000000  0.000000  0.000000  0.000000  0.000000  0.000000
                                 0.000000  0.000000  0.000000  0.000000  0.000000  0.000000  0.000000  0.000000 -0.000003  0.000000
                                 0.000024  0.000000 -0.000121  0.000000  0.000499  0.000000 -0.001968  0.000000  0.007844  0.000000
                                -0.014682  0.000000 -0.037948  0.000000  0.016281  0.000000  0.246659  0.000000  0.394209  0.000000
                                 0.144741  0.000000  0.008662  0.000000  0.203421  0.000000  0.207416  0.000000 -0.000615  0.000000
                                 0.000138  0.000000  0.000000  0.000000  0.000000  0.000000  0.000000  0.000000  0.000000  0.000000
                                 0.000000  0.000000  0.000000  0.000000

   4.1  0.80000    -0.349028     0.000000  0.000000  0.000000  0.000000  0.000000  0.000000  0.000000  0.000000  0.000000  0.000000
                                 0.000000  0.000000  0.000000  0.000000  0.000000  0.000000  0.000000  0.000000  0.000000  0.000000
                                 0.000000  0.000000  0.000000  0.000000  0.000000  0.000000  0.000000  0.000000  0.000000 -0.000003
                                 0.000000  0.000024  0.000000 -0.000121  0.000000  0.000499  0.000000 -0.001968  0.000000  0.007844
                                 0.000000 -0.014682  0.000000 -0.037948  0.000000  0.016281  0.000000  0.246659  0.000000  0.394209
                                 0.000000  0.144741  0.000000  0.008662  0.000000  0.203421  0.000000  0.207416  0.000000 -0.000615
                                 0.000000  0.000138  0.000000  0.000000  0.000000  0.000000  0.000000  0.000000  0.000000  0.000000
                                 0.000000  0.000000  0.000000  0.000000

                                   1 2px     1 2px     1 2px     1 2px     1 2px     1 2px     1 2px     1 2px     1 2px     1 2px  
                                   1 2px     1 2px     1 2px     1 2px     1 2px     1 2px     1 2px     1 2px     1 2px     1 2px  
                                   1 2px     1 2px     1 2px     1 2px     1 4f1+    1 4f3+    1 4f1+    1 4f3+    1 4f1+    1 4f3+ 
                                   1 4f1+    1 4f3+    1 4f1+    1 4f3+ 

   1.2  2.00000    -2.141476    -0.000000  0.000000 -0.000000  0.000001 -0.000007  0.000028 -0.000100  0.000316 -0.000927  0.002677
                                -0.008033  0.019006  0.011507 -0.134160 -0.024156  0.324582  0.536848  0.331390  0.041156 -0.003631
                                 0.001713 -0.120374 -0.000716  0.000207  0.000000  0.000000  0.000000  0.000000  0.000000  0.000000
                                 0.000000  0.000000  0.000000  0.000000

                                   1 2py     1 2py     1 2py     1 2py     1 2py     1 2py     1 2py     1 2py     1 2py     1 2py  
                                   1 2py     1 2py     1 2py     1 2py     1 2py     1 2py     1 2py     1 2py     1 2py     1 2py  
                                   1 2py     1 2py     1 2py     1 2py     1 4f1-    1 4f3-    1 4f1-    1 4f3-    1 4f1-    1 4f3- 
                                   1 4f1-    1 4f3-    1 4f1-    1 4f3- 

   1.3  2.00000    -2.141476    -0.000000  0.000000 -0.000000  0.000001 -0.000007  0.000028 -0.000100  0.000316 -0.000927  0.002677
                                -0.008033  0.019006  0.011507 -0.134160 -0.024156  0.324582  0.536848  0.331390  0.041156 -0.003631
                                 0.001713 -0.120374 -0.000716  0.000207  0.000000  0.000000  0.000000  0.000000  0.000000  0.000000
                                 0.000000  0.000000  0.000000  0.000000

                                   1 3d2-    1 3d2-    1 3d2-    1 3d2-    1 3d2-    1 3d2-    1 3d2-    1 3d2-    1 3d2-    1 3d2- 
                                   1 3d2-    1 3d2-    1 3d2-    1 3d2-    1 3d2-    1 3d2-    1 3d2-    1 5g2-    1 5g4-    1 5g2- 
                                   1 5g4-    1 5g2-    1 5g4-    1 5g2-    1 5g4- 

   1.4  0.80000    -0.349028    -0.000003  0.000024 -0.000121  0.000499 -0.001968  0.007844 -0.014682 -0.037948  0.016281  0.246659
                                 0.394209  0.144741  0.008662  0.203421  0.207416 -0.000615  0.000138  0.000000  0.000000  0.000000
                                 0.000000  0.000000  0.000000  0.000000  0.000000

                                   1 2pz     1 2pz     1 2pz     1 2pz     1 2pz     1 2pz     1 2pz     1 2pz     1 2pz     1 2pz  
                                   1 2pz     1 2pz     1 2pz     1 2pz     1 2pz     1 2pz     1 2pz     1 2pz     1 2pz     1 2pz  
                                   1 2pz     1 2pz     1 2pz     1 2pz     1 4f0     1 4f2+    1 4f0     1 4f2+    1 4f0     1 4f2+ 
                                   1 4f0     1 4f2+    1 4f0     1 4f2+ 

   1.5  2.00000    -2.141476    -0.000000  0.000000 -0.000000  0.000001 -0.000007  0.000028 -0.000100  0.000316 -0.000927  0.002677
                                -0.008033  0.019006  0.011507 -0.134160 -0.024156  0.324582  0.536848  0.331390  0.041156 -0.003631
                                 0.001713 -0.120374 -0.000716  0.000207  0.000000  0.000000  0.000000  0.000000  0.000000  0.000000
                                 0.000000  0.000000  0.000000  0.000000

                                   1 3d1+    1 3d1+    1 3d1+    1 3d1+    1 3d1+    1 3d1+    1 3d1+    1 3d1+    1 3d1+    1 3d1+ 
                                   1 3d1+    1 3d1+    1 3d1+    1 3d1+    1 3d1+    1 3d1+    1 3d1+    1 5g1+    1 5g3+    1 5g1+ 
                                   1 5g3+    1 5g1+    1 5g3+    1 5g1+    1 5g3+ 

   1.6  0.80000    -0.349028    -0.000003  0.000024 -0.000121  0.000499 -0.001968  0.007844 -0.014682 -0.037948  0.016281  0.246659
                                 0.394209  0.144741  0.008662  0.203421  0.207416 -0.000615  0.000138  0.000000  0.000000  0.000000
                                 0.000000  0.000000  0.000000  0.000000  0.000000

                                   1 3d1-    1 3d1-    1 3d1-    1 3d1-    1 3d1-    1 3d1-    1 3d1-    1 3d1-    1 3d1-    1 3d1- 
                                   1 3d1-    1 3d1-    1 3d1-    1 3d1-    1 3d1-    1 3d1-    1 3d1-    1 5g1-    1 5g3-    1 5g1- 
                                   1 5g3-    1 5g1-    1 5g3-    1 5g1-    1 5g3- 

   1.7  0.80000    -0.349028    -0.000003  0.000024 -0.000121  0.000499 -0.001968  0.007844 -0.014682 -0.037948  0.016281  0.246659
                                 0.394209  0.144741  0.008662  0.203421  0.207416 -0.000615  0.000138  0.000000  0.000000  0.000000
                                 0.000000  0.000000  0.000000  0.000000  0.000000

 Total charge:   1.000000000000
 

 EXTRA SYMMETRY OF MOS IN SYMMETRY 1:   1 1 2 3 1 2 3 1 3 2   1 3 2 1 4 6 5 2 3 6   4 5 3 2 1 6 4 5 2 3   2 3 1 4 6 5 3 2 1 3
                                        2 1 2 3 1 2 3 1 2 3   1 3 2 1 1 3 2 1 3 2   1 1 2 3 1 1 1 1 1 1   1 1 1 1
 EXTRA SYMMETRY OF MOS IN SYMMETRY 2:   1 1 1 1 2 3 1 2 3 1   3 2 1 3 2 1 3 2 1 1   1 1 1 1 1 1 1 1 1 1   1 1 1 1
 EXTRA SYMMETRY OF MOS IN SYMMETRY 3:   1 1 1 1 3 2 1 2 3 1   2 3 1 2 3 1 2 3 1 1   1 1 1 1 1 1 1 1 1 1   1 1 1 1
 EXTRA SYMMETRY OF MOS IN SYMMETRY 4:   1 1 1 1 2 3 1 3 2 1   2 3 1 1 3 2 1 1 1 1   1 1 1 1 1
 EXTRA SYMMETRY OF MOS IN SYMMETRY 5:   1 1 1 1 2 3 1 3 2 1   2 3 1 2 3 1 2 3 1 1   1 1 1 1 1 1 1 1 1 1   1 1 1 1
 EXTRA SYMMETRY OF MOS IN SYMMETRY 6:   1 1 1 1 2 3 1 3 2 1   3 2 1 1 2 3 1 1 1 1   1 1 1 1 1
 EXTRA SYMMETRY OF MOS IN SYMMETRY 7:   1 1 1 1 3 2 1 3 2 1   3 2 1 1 3 2 1 1 1 1   1 1 1 1 1

 Natural orbital dump (state averaged) at molpro section  5202.2    (Orbital set 2)


 CI vector for state symmetry 1
 ==============================

 /0/ / / /          0.0000000   1.0000000
 //0 / / /          1.0000000   0.0000000

 TOTAL ENERGIES                       -66.84700514   -66.84700514

 CI vector for state symmetry 2
 ==============================

 /// 0 / /          1.0000000

 TOTAL ENERGIES                       -66.84700514

 CI vector for state symmetry 3
 ==============================

 /// / 0 /          1.0000000

 TOTAL ENERGIES                       -66.84700514

 CI vector for state symmetry 4
 ==============================

 /// / / 0          1.0000000

 TOTAL ENERGIES                       -66.84700514



 **********************************************************************************************************************************
 DATASETS  * FILE   NREC   LENGTH (MB)   RECORD NAMES
              1      20       26.43       500      610      700      900      950      970     1000      129      960     1100   
                                          VAR    BASINP    GEOM    SYMINP    ZMAT    AOBASIS   BASIS     P2S    ABASIS      S 
                                         1400     1410     1420     1200     1210     1080     1600     1650     1700     1380   
                                           T        V       ECP      H0       H01     AOSYM     SMH    MOLCAS    OPER     JKOP   

              2       6        8.57       200      700     1000      520     4202     5202   
                                        OPTIONS   GEOM     BASIS   MCVARS     RHF     MCSCF   

 PROGRAMS   *        TOTAL     MULTI       POP       RHF       INT
 CPU TIMES  *        23.91      0.87      0.00      0.91     21.68
 REAL TIME  *        27.89 SEC
 DISK USED  *         1.40 GB      
 SF USED    *        36.23 MB      
 GA USED    *         0.00 MB       (max)       0.00 MB       (current)
 **********************************************************************************************************************************


 PROGRAM * RHF-SCF (OPEN SHELL)       Authors: W. Meyer, H.-J. Werner


 NUMBER OF ELECTRONS:       9+    4-    SPACE SYMMETRY=1    SPIN SYMMETRY: Sextet  
 CONVERGENCE THRESHOLDS:    1.00E-05 (Density)    1.00E-07 (Energy)
 MAX. NUMBER OF ITERATIONS:        0
 INTERPOLATION TYPE:            DIIS
 INTERPOLATION STEPS:              2 (START)      1 (STEP)
 LEVEL SHIFTS:                 -0.60 (CLOSED) -0.30 (OPEN) 

 Number of closed-shell orbitals:    4 (   1   1   1   0   1   0   0   0 )
 Number of open-shell orbitals:      5 (   2   0   0   1   0   1   1   0 )


 Molecular orbitals read from record     5202.2  Type=MCSCF/NATURAL (state averaged)

 Molecular orbital dump at record        2109.2

 ITERATION    DDIFF          GRAD             ENERGY        2-EL.EN.            DIPOLE MOMENTS         DIIS   ORB.
    1      0.000D+00      0.000D+00       -66.84700514     88.251766    0.00000    0.00000    0.00000    0    start

 Final alpha occupancy:   3   1   1   1   1   1   1   0
 Final beta  occupancy:   1   1   1   0   1   0   0   0

 !RHF STATE 1.1 Energy                -66.847005142471
 Nuclear energy                         0.00000000
 One-electron energy                 -110.97288791
 Two-electron energy                   44.12588277
 Virial quotient                       -2.85517792
 !RHF STATE 1.1 Dipole moment           0.00000000     0.00000000     0.00000000
 Dipole moment /Debye                   0.00000000     0.00000000     0.00000000

 Orbital energies:

         1.1          2.1          3.1          4.1          5.1
     -3.266761    -0.340006    -0.349028    -0.349028    -0.079193

         1.2          2.2          3.2
     -2.141476    -0.133648    -0.054395

         1.3          2.3          3.3
     -2.141476    -0.133648    -0.054395

         1.4          2.4          3.4
     -0.349028    -0.053607    -0.022112

         1.5          2.5          3.5
     -2.141476    -0.133648    -0.054395

         1.6          2.6          3.6
     -0.349028    -0.053607    -0.022112

         1.7          2.7          3.7
     -0.349028    -0.053607    -0.022112

         1.8          2.8
      0.047053     0.327825

 HOMO      3.1    -0.349028 =      -9.4975eV
 LUMO      4.1    -0.349028 =      -9.4975eV
 LUMO-HOMO         0.000000 =       0.0000eV


 **********************************************************************************************************************************
 DATASETS  * FILE   NREC   LENGTH (MB)   RECORD NAMES
              1      20       26.43       500      610      700      900      950      970     1000      129      960     1100   
                                          VAR    BASINP    GEOM    SYMINP    ZMAT    AOBASIS   BASIS     P2S    ABASIS      S 
                                         1400     1410     1420     1200     1210     1080     1600     1650     1700     1380   
                                           T        V       ECP      H0       H01     AOSYM     SMH    MOLCAS    OPER     JKOP   

              2       7       11.64       200      700     1000      520     4202     5202     2109   
                                        OPTIONS   GEOM     BASIS   MCVARS     RHF     MCSCF     RHF  

 PROGRAMS   *        TOTAL       RHF     MULTI       POP       RHF       INT
 CPU TIMES  *        23.94      0.03      0.87      0.00      0.91     21.68
 REAL TIME  *        27.98 SEC
 DISK USED  *         1.40 GB      
 SF USED    *        36.23 MB      
 GA USED    *         0.00 MB       (max)       0.00 MB       (current)
 **********************************************************************************************************************************
 SETTING SCF(5)         =       -66.84700514  AU                              
 SETTING _CC_NORM_MAX   =         2.00000000                                  


 PROGRAM * CCSD (Restricted open-shell coupled cluster)     Authors: C. Hampel, H.-J. Werner, 1991, M. Deegan, P.J. Knowles, 1992


 Convergence thresholds:  THRVAR = 1.00D-08  THRDEN = 1.00D-06

 CCSD(T)     terms to be evaluated (factor= 1.000)


 Number of closed-shell orbitals:   4 (   1   1   1   0   1   0   0   0 )
 Number of active  orbitals:        5 (   2   0   0   1   0   1   1   0 )
 Number of external orbitals:     247 (  71  33  33  24  33  24  24   5 )

 Memory could be reduced to 33.55 Mwords without degradation in triples

 Number of N-1 electron functions:              13
 Number of N-2 electron functions:              78
 Number of singly external CSFs:               565
 Number of doubly external CSFs:            463182
 Total number of CSFs:                      463747

 Molecular orbitals read from record     2109.2  Type=RHF/CANONICAL (state 1.1)

 Integral transformation finished. Total CPU:   0.63 sec, npass=  1  Memory used:   5.85 MW

 Starting RMP2 calculation

 Wavefunction is spin-projected

 ITER.      SQ.NORM     CORR.ENERGY   TOTAL ENERGY   ENERGY CHANGE        DEN1      VAR(S)    VAR(P)  DIIS     TIME
   1      1.07839984    -0.40194163   -67.24894677    -0.40194163    -0.00084655  0.11D-04  0.28D-03  1  1     0.68
   2      1.07909764    -0.40285946   -67.24986460    -0.00091783    -0.00000216  0.14D-06  0.94D-06  2  2     0.77
   3      1.07912618    -0.40287657   -67.24988171    -0.00001711    -0.00000001  0.45D-08  0.31D-08  3  3     0.81
   4      1.07912709    -0.40287679   -67.24988193    -0.00000022    -0.00000000  0.14D-09  0.87D-11  4  4     0.85

 Norm of t1 vector:      0.04135823      S-energy:    -0.00558917      T1 diagnostic:  0.00531136
 Norm of t2 vector:      0.27823836      P-energy:    -0.39728762
                                         Alpha-Beta:  -0.26601444
                                         Alpha-Alpha: -0.10351353
                                         Beta-Beta:   -0.02775965

 Spin contamination <S**2-Sz**2-Sz>     0.00000000
  Reference energy                    -66.847005142471
  RHF-RMP2 correlation energy          -0.402876789830
 !RHF-RMP2 energy                     -67.249881932301
 (NB above energy spin projected)

 Starting RCCSD calculation

 ITER.      SQ.NORM     CORR.ENERGY   TOTAL ENERGY   ENERGY CHANGE        DEN1      VAR(S)    VAR(P)  DIIS     TIME
   1      1.07736372    -0.40328400   -67.25028914    -0.40328400    -0.00439934  0.47D-03  0.71D-03  1  1     1.20
   2      1.08046895    -0.40784978   -67.25485492    -0.00456578    -0.00016002  0.65D-04  0.33D-04  2  2     1.52
   3      1.08139276    -0.40825460   -67.25525974    -0.00040482    -0.00001877  0.15D-04  0.26D-05  3  3     1.79
   4      1.08185463    -0.40840086   -67.25540601    -0.00014626    -0.00000137  0.11D-05  0.20D-06  4  4     2.13
   5      1.08197311    -0.40842102   -67.25542617    -0.00002016    -0.00000004  0.28D-07  0.93D-08  5  5     2.42
   6      1.08198621    -0.40842278   -67.25542792    -0.00000176    -0.00000000  0.73D-09  0.81D-09  6  6     2.74
   7      1.08198740    -0.40842298   -67.25542813    -0.00000020    -0.00000000  0.11D-10  0.92D-10  7  7     3.07

 Norm of t1 vector:      0.05846299      S-energy:    -0.00548311      T1 diagnostic:  0.00988397
                                                                       D1 diagnostic:  0.03020952
 Norm of t2 vector:      0.28030247      P-energy:    -0.40293987
                                         Alpha-Beta:  -0.27798001
                                         Alpha-Alpha: -0.09941254
                                         Beta-Beta:   -0.02554732

 Spin contamination <S**2-Sz**2-Sz>     0.00000000

 Memory could be reduced to 35.54 Mwords without degradation in triples
 

  Correlated core orbitals:             1.1       1.2       1.3       1.5
  Orbital energies:                    -3.3792   -2.2723   -2.2723   -2.3026
 
  RCCSD core-core energy               -0.176332779831
  RCCSD core-valence energy            -0.179613936618
  RCCSD valence correlation energy     -0.052476267873
 

 RESULTS
 =======

  Reference energy                    -66.847005142471
  RCCSD singles energy                 -0.005483114307
  RCCSD pair energy                    -0.402939870015
  RCCSD correlation energy             -0.408422984322
  Triples (T) contribution             -0.011875121577
  Total correlation energy             -0.420298105899
 
  RHF-RCCSD energy                    -67.255428126793
  RHF-RCCSD[T] energy                 -67.267297840257
  RHF-RCCSD-T energy                  -67.267293110027
 !RHF-RCCSD(T) energy                 -67.267303248370

 Program statistics:

 Available memory in ccsd:               999999162
 Min. memory needed in ccsd:               1630890
 Max. memory used in ccsd:                 2178804
 Max. memory used in cckext:               1716462 ( 7 integral passes)
 Max. memory used in cckint:               5852116 ( 1 integral passes)



 **********************************************************************************************************************************
 DATASETS  * FILE   NREC   LENGTH (MB)   RECORD NAMES
              1      20       26.43       500      610      700      900      950      970     1000      129      960     1100   
                                          VAR    BASINP    GEOM    SYMINP    ZMAT    AOBASIS   BASIS     P2S    ABASIS      S 
                                         1400     1410     1420     1200     1210     1080     1600     1650     1700     1380   
                                           T        V       ECP      H0       H01     AOSYM     SMH    MOLCAS    OPER     JKOP   

              2       7       11.64       200      700     1000      520     4202     5202     2109   
                                        OPTIONS   GEOM     BASIS   MCVARS     RHF     MCSCF     RHF  

 PROGRAMS   *        TOTAL  RCCSD(T)       RHF     MULTI       POP       RHF       INT
 CPU TIMES  *        31.47      7.53      0.03      0.87      0.00      0.91     21.68
 REAL TIME  *        38.37 SEC
 DISK USED  *         2.29 GB      
 SF USED    *       511.44 MB      
 GA USED    *         0.00 MB       (max)       0.00 MB       (current)
 **********************************************************************************************************************************
 SETTING CCSD(5)        =       -67.26730325  AU                              
 Output type csv         
                                                                                                                                                                                                                                                                

       SCF,CCSD
     0.00000000,     0.00000000
     0.00000000,     0.00000000
     0.00000000,     0.00000000
     0.00000000,     0.00000000
   -66.84700514,   -67.26730325
                                                  

 RCCSD(T)/USERDEF energy=    -67.267303248370

        RCCSD(T)        RHF-SCF         MULTI           RHF-SCF 
    -67.26730325    -66.84700514    -66.84700514    -66.84938266
 **********************************************************************************************************************************
 Molpro calculation terminated
 Variable memory released
