<?xml version="1.0"?>
<molpro xmlns="http://www.molpro.net/schema/molpro-output"
  xmlns:xsd="http://www.w3.org/1999/XMLSchema"
  xmlns:cml="http://www.xml-cml.org/schema"
  xmlns:stm="http://www.xml-cml.org/schema"
  xmlns:xhtml="http://www.w3.org/1999/xhtml">
 <!--

 Nodes     nprocs
 nid01957    23
 Number of processes for MPI-2 version of Molpro:   nprocs(total)=   24   nprocs(compute)=   23   nprocs(helper)=    1

 Using customized tuning parameters: mindgm=7; mindgv=16; mindgc=1; mindgr=1; noblas=0; minvec=7
 default implementation of scratch files=sf

 --><job>
  <!--

 Variables initialized (889), CPU time= 0.02 sec
 Commands  initialized (702), CPU time= 0.02 sec, 572 directives.
 Default parameters read. Elapsed time= 0.18 sec

 Checking input...
 Passed
1


                                         ***  PROGRAM SYSTEM MOLPRO  ***
                                       Copyright, TTI GmbH Stuttgart, 2015
                                    Version 2015.1 linked Dec 29 2018 15:55:43


 **********************************************************************************************************************************
 LABEL *   Calculation for PdO groundstate
  64 bit mpp version                                                                     DATE: 30-Mar-21          TIME: 07:09:13
 **********************************************************************************************************************************

 SHA1:             19cd028119e0e09f93f0674bd8af7968d9b3eff6
 **********************************************************************************************************************************
  -->
  <!--

 THRESHOLDS:

 ZERO    =  1.00D-12  ONEINT  =  1.00D-12  TWOINT  =  1.00D-12  PREFAC  =  1.00D-14  LOCALI  =  1.00D-09  EORDER  =  1.00D-04
 ENERGY  =  0.00D+00  ETEST   =  0.00D+00  EDENS   =  0.00D+00  THRDEDEF=  1.00D-06  GRADIENT=  1.00D-02  STEP    =  1.00D-03
 ORBITAL =  1.00D-05  CIVEC   =  1.00D-05  COEFF   =  1.00D-04  PRINTCI =  5.00D-02  PUNCHCI =  9.90D+01  OPTGRAD =  3.00D-04
 OPTENERG=  1.00D-06  OPTSTEP =  3.00D-04  THRGRAD =  1.00D-10  COMPRESS=  1.00D-11  VARMIN  =  1.00D-07  VARMAX  =  1.00D-03
 THRDOUB =  0.00D+00  THRDIV  =  1.00D-05  THRRED  =  1.00D-07  THRPSP  =  1.00D+00  THRDC   =  1.00D-10  THRCS   =  1.00D-10
 THRNRM  =  1.00D-08  THREQ   =  0.00D+00  THRDE   =  1.00D+00  THRREF  =  1.00D-05  SPARFAC =  1.00D+00  THRDLP  =  1.00D-07
 THRDIA  =  1.00D-10  THRDLS  =  1.00D-07  THRGPS  =  0.00D+00  THRKEX  =  0.00D+00  THRDIS  =  2.00D-01  THRVAR  =  1.00D-10
 THRLOC  =  1.00D-06  THRGAP  =  1.00D-06  THRLOCT = -1.00D+00  THRGAPT = -1.00D+00  THRORB  =  1.00D-06  THRMLTP =  0.00D+00
 THRCPQCI=  1.00D-10  KEXTA   =  0.00D+00  THRCOARS=  0.00D+00  SYMTOL  =  1.00D-06  GRADTOL =  1.00D-06  THROVL  =  1.00D-08
 THRORTH =  1.00D-08  GRID    =  1.00D-06  GRIDMAX =  1.00D-03  DTMAX   =  0.00D+00  THROCCDE=  1.00D-01  THROCCDE=  1.00D-01



 THRESHOLDS:

 ZERO    =  1.00D-12  ONEINT  =  1.00D-12  TWOINT  =  1.00D-12  PREFAC  =  1.00D-14  LOCALI  =  1.00D-09  EORDER  =  1.00D-04
 ENERGY  =  0.00D+00  ETEST   =  0.00D+00  EDENS   =  0.00D+00  THRDEDEF=  1.00D-06  GRADIENT=  1.00D-02  STEP    =  1.00D-03
 ORBITAL =  1.00D-05  CIVEC   =  1.00D-05  COEFF   =  1.00D-04  PRINTCI =  5.00D-02  PUNCHCI =  9.90D+01  OPTGRAD =  3.00D-04
 OPTENERG=  1.00D-06  OPTSTEP =  3.00D-04  THRGRAD =  1.00D-10  COMPRESS=  1.00D-11  VARMIN  =  1.00D-07  VARMAX  =  1.00D-03
 THRDOUB =  0.00D+00  THRDIV  =  1.00D-05  THRRED  =  1.00D-07  THRPSP  =  1.00D+00  THRDC   =  1.00D-10  THRCS   =  1.00D-10
 THRNRM  =  1.00D-08  THREQ   =  0.00D+00  THRDE   =  1.00D+00  THRREF  =  1.00D-05  SPARFAC =  1.00D+00  THRDLP  =  1.00D-07
 THRDIA  =  1.00D-10  THRDLS  =  1.00D-07  THRGPS  =  0.00D+00  THRKEX  =  0.00D+00  THRDIS  =  2.00D-01  THRVAR  =  1.00D-10
 THRLOC  =  1.00D-06  THRGAP  =  1.00D-06  THRLOCT = -1.00D+00  THRGAPT = -1.00D+00  THRORB  =  1.00D-06  THRMLTP =  0.00D+00
 THRCPQCI=  1.00D-10  KEXTA   =  0.00D+00  THRCOARS=  0.00D+00  SYMTOL  =  1.00D-06  GRADTOL =  1.00D-06  THROVL  =  1.00D-12
 THRORTH =  1.00D-08  GRID    =  1.00D-06  GRIDMAX =  1.00D-03  DTMAX   =  0.00D+00  THROCCDE=  1.00D-01  THROCCDE=  1.00D-01


 SETTING DKROLL         =         1.00000000
 SETTING DKHO           =        10.00000000
 SETTING DKHP           =         4.00000000

 Variable memory set to  512000000 words,  buffer space   230000 words

 SETTING BASIS          =    USERDEF
 SETTING OE             =       -75.09181489
 SETTING PDE            =     -5044.36637900
 SETTING NE             =        54.00000000

Geometry recognized as XYZ

 SETTING A1             =        14.00000000
 SETTING B1             =         6.00000000
 SETTING B2             =         6.00000000
 SETTING A2             =         2.00000000
  --><jobstep command="RKS-SCF" commandset="SCFPRO">
   <!--


 Recomputing integrals since basis changed


 Using spherical harmonics



 PROGRAM * SEWARD (Integral evaluation for generally contracted gaussian basis sets)     Author: Roland Lindh, 1990

 Geometry written to block  1 of record 700


 Point group  C2v


   --><cml:molecule>
    <cml:symmetry pointGroup="C2v"/>
    <cml:atomArray>
     <cml:atom id="a1" elementType="Pd" x3="0.0" y3="0.0" z3="0.0"/>
     <cml:atom id="a2" elementType="O" x3="0.0" y3="0.0" z3="1.985"/>
    </cml:atomArray>
    <cml:bondArray>
     <cml:bond atomRefs2="a1 a2"/>
    </cml:bondArray>
   </cml:molecule><!--

 ATOMIC COORDINATES

 NR  ATOM    CHARGE       X              Y              Z

   1  PD     46.00    0.000000000    0.000000000    0.000000000
   2  O       8.00    0.000000000    0.000000000    3.751106357

 Bond lengths in Bohr (Angstrom)

 1-2  3.751106357
     ( 1.985000000)

 NUCLEAR CHARGE:                   54
 NUMBER OF PRIMITIVE AOS:         355
 NUMBER OF SYMMETRY AOS:          299
 NUMBER OF CONTRACTIONS:          182   (  73A1  +  43B1  +  43B2  +  23A2  )
 NUMBER OF CORE ORBITALS:          19   (  10A1  +   4B1  +   4B2  +   1A2  )
 NUMBER OF VALENCE ORBITALS:       10   (   5A1  +   2B1  +   2B2  +   1A2  )


 NUCLEAR REPULSION ENERGY   98.10438973

 One-electron integrals computed with SEWARD

 10nd-order Douglas-Kroll-Hess method activated. McWeeny DKH parametrization is used.

 Computing Douglas-Kroll / X2C integrals

 AO integral compression algorithm  1   Integral accuracy      1.0D-12

     158.073 MB (compressed) written to integral file ( 47.7%)

     Node minimum: 2.359 MB, node maximum: 11.010 MB


 NUMBER OF SORTED TWO-ELECTRON INTEGRALS:    1570448.     BUFFER LENGTH:  32768
 NUMBER OF SEGMENTS:   1  SEGMENT LENGTH:    1570448      RECORD LENGTH: 524288

 Memory used in sort:       2.13 MW

 SORT1 READ    41520926. AND WROTE     1007143. INTEGRALS IN      3 RECORDS. CPU TIME:     0.71 SEC, REAL TIME:     0.74 SEC
 SORT2 READ    23438533. AND WROTE    35715180. INTEGRALS IN    851 RECORDS. CPU TIME:     0.11 SEC, REAL TIME:     0.21 SEC

 Node minimum:     1548720.  Node maximum:     1570662. integrals

 OPERATOR DM      FOR CENTER  0  COORDINATES:    0.000000    0.000000    0.000000

 EXTRA SYMMETRY OF AOS IN SYMMETRY 1:   1 1 1 1 1 1 1 1 1 1   1 1 1 1 1 1 1 1 1 1   1 1 2 1 2 1 2 1 2 1   2 1 2 1 2 1 2 1 2 1
                                        2 1 2 1 2 1 3 2 1 3   2 1 3 2 1 1 1 1 1 1   1 1 1 1 2 1 2 1 2 1   2 1 2
 EXTRA SYMMETRY OF AOS IN SYMMETRY 2:   1 1 1 1 1 1 1 1 1 1   1 1 1 1 1 1 1 1 1 2   1 2 1 2 1 2 1 2 1 2   1 2 1 1 1 1 1 1 1 1
                                        2 1 2
 EXTRA SYMMETRY OF AOS IN SYMMETRY 3:   1 1 1 1 1 1 1 1 1 1   1 1 1 1 1 1 1 1 1 2   1 2 1 2 1 2 1 2 1 2   1 2 1 1 1 1 1 1 1 1
                                        2 1 2
 EXTRA SYMMETRY OF AOS IN SYMMETRY 4:   1 1 1 1 1 1 1 1 1 1   1 1 1 2 1 2 1 2 1 1   1 1 1

 Eigenvalues of metric

         1 0.116E-03 0.358E-03 0.594E-03 0.826E-03 0.154E-02 0.158E-02 0.344E-02 0.460E-02
         2 0.646E-03 0.157E-02 0.211E-02 0.158E-01 0.311E-01 0.432E-01 0.493E-01 0.557E-01
         3 0.646E-03 0.157E-02 0.211E-02 0.158E-01 0.311E-01 0.432E-01 0.493E-01 0.557E-01
         4 0.158E-02 0.224E-01 0.881E-01 0.103E+00 0.136E+00 0.148E+00 0.221E+00 0.331E+00


 **********************************************************************************************************************************
 DATASETS  * FILE   NREC   LENGTH (MB)   RECORD NAMES
              1      22       20.91       500      610      700      900      950      970     1000      129      960     1700
                                          VAR    BASINP    GEOM    SYMINP    ZMAT    AOBASIS   BASIS     P2S    ABASIS    OPER
                                         1101     1401     1411     1412     1650     1100     1400     1410     1200     1210
                                          SR      EKINR    POTR     PVPR    MOLCAS      S      EKIN      POT      H0       H01
                                         1080     1600
                                         AOSYM     SMH

 PROGRAMS   *        TOTAL       INT
 CPU TIMES  *         8.01      7.41
 REAL TIME  *         9.14 SEC
 DISK USED  *       424.09 MB
 GA USED    *         0.00 MB       (max)       0.00 MB       (current)
 **********************************************************************************************************************************

 Density functional group PBE0=PBEX+PBEC
 Functional: PBEX(Automatically generated (new) PBEX)                          Gradient terms: 1
 Functional: PBEC(Automatically generated (new) PBEC)                          Gradient terms: 1
 Use grid at  1800.2


 Exact exchange will be calculated, factor:  0.2500

 Functional: PBEX                      Factor:  0.7500
 Functional: PBEC                      Factor:  1.0000

 Generated new metagrid on record  1800.2 with target accuracy 1.0D-06 and 4751 points in CPU time    0.1
 Computed new grid on record 1800.1 in CPU time    0.1
  152282 words reserved for DFT integration

 PROGRAM * RKS-SCF (Restricted open shell Kohn-Sham)     Authors: W. Meyer, H.-J. Werner, P.J. Knowles, 1993

 NUMBER OF ELECTRONS:      28+   26-    SPACE SYMMETRY=2    SPIN SYMMETRY: Triplet
 CONVERGENCE THRESHOLDS:    1.00E-05 (Density)    1.08E-06 (Energy)
 MAX. NUMBER OF ITERATIONS:       60
 INTERPOLATION TYPE:            DIIS
 INTERPOLATION STEPS:              2 (START)      1 (STEP)
 LEVEL SHIFTS:                 -0.60 (CLOSED) -0.30 (OPEN)

 Number of closed-shell orbitals:   26 (  13   5   6   2 )
 Number of open-shell orbitals:      2 (   1   1   0   0 )


 Use fine grid record 1800.2 for energy threshold  1.0D-06
 Orbital guess generated from atomic densities. Full valence occupancy:   15   6   6   2

 Molecular orbital dump at record        2100.2

 ITERATION    DDIFF          GRAD             ENERGY        2-EL.EN.            DIPOLE MOMENTS         DIIS   ORB.
    1      0.000D+00      0.000D+00     -5098.81245525   3764.123738    0.00000    0.00000  -10.34550    0    start
    2      0.000D+00      0.741D-01     -5087.87523830   4844.228513    0.00000    0.00000   22.09648    1    diag,B
    3      0.509D+00      0.195D+00     -5108.84355549   4634.010605    0.00000    0.00000   10.73198    2    diag,B
    4      0.571D-01      0.125D+00     -5113.39410011   4566.023590    0.00000    0.00000    7.80935    3    diag,B
    5      0.172D-01      0.962D-01     -5116.94885877   4492.648494    0.00000    0.00000    4.16619    4    diag,B
    6      0.224D-01      0.645D-01     -5118.53947852   4443.579838    0.00000    0.00000    2.54098    5    diag,B
    7      0.146D-01      0.451D-01     -5119.86449369   4371.396564    0.00000    0.00000    0.38565    6    fixocc
    8      0.154D-01      0.185D-01     -5120.17805662   4326.535379    0.00000    0.00000   -1.15039    7    diag,B
    9      0.102D-01      0.395D-02     -5120.20210948   4314.272672    0.00000    0.00000   -1.33707    8    diag,B
   10      0.444D-02      0.133D-02     -5120.20810565   4310.376154    0.00000    0.00000   -1.59958    9    orth
   11      0.221D-02      0.950D-03     -5120.21154729   4310.011035    0.00000    0.00000   -1.62956    9    diag,B
   12      0.148D-02      0.620D-03     -5120.21437499   4309.333420    0.00000    0.00000   -1.67069    9    diag,B
   13      0.186D-02      0.391D-03     -5120.21574843   4309.534357    0.00000    0.00000   -1.68595    9    diag,B
   14      0.127D-02      0.127D-03     -5120.21623136   4309.353788    0.00000    0.00000   -1.69618    9    diag,B
   15      0.743D-03      0.611D-04     -5120.21636297   4309.282325    0.00000    0.00000   -1.70528    9    diag,B
   16      0.398D-03      0.416D-04     -5120.21641050   4309.247863    0.00000    0.00000   -1.70628    9    diag,B
   17      0.283D-03      0.180D-04     -5120.21641784   4309.256359    0.00000    0.00000   -1.70778    9    diag,B
   18      0.105D-03      0.834D-05     -5120.21641912   4309.255913    0.00000    0.00000   -1.70778    9    diag,B
   19      0.471D-04      0.359D-05     -5120.21641930   4309.254457    0.00000    0.00000   -1.70814    9    diag,B
   20      0.204D-04      0.162D-05     -5120.21641932   4309.254223    0.00000    0.00000   -1.70812    9    orth
   21      0.669D-05      0.104D-05     -5120.21641933   4309.252229    0.00000    0.00000   -1.70836    0    orth

 Final alpha occupancy:  14   6   6   2
 Final beta  occupancy:  13   5   6   2

 !RKS STATE 1.2 Energy              -5120.216419326125
   --><property name="Energy" method="RKS" principal="true" stateSymmetry="2" stateNumber="1"
     value="-5120.21641932613"/><!--
 Nuclear energy                        98.10438973
 One-electron energy                -7257.19912237
 Two-electron energy                 2154.62611434
 Density functional                  -115.74780103     PBEX=-150.77959564 PBEC=  -2.66310430
 Virial quotient                       -0.88777754
 !RKS STATE 1.2 Dipole moment           0.00000000     0.00000000    -1.70835775
 Dipole moment /Debye                   0.00000000     0.00000000    -4.34192788
   --><property name="Dipole moment" method="RKS" principal="true" stateSymmetry="2"
     stateNumber="1" value="0.0 0.0 -1.70835774743554"/><!--

 Orbital energies:

         1.1          2.1          3.1          4.1          5.1          6.1          7.1          8.1          9.1         10.1
   -889.955086  -130.828541  -117.296244   -24.022781   -19.544344   -19.223805   -12.397416   -12.387282    -3.437013    -2.146727

        11.1         12.1         13.1         14.1         15.1         16.1
     -0.888217    -0.357299    -0.291427    -0.268074    -0.098781     0.014562

         1.2          2.2          3.2          4.2          5.2          6.2          7.2          8.2
   -117.290969   -19.532446   -12.395434    -2.128894    -0.321481    -0.336944    -0.005610     0.041226

         1.3          2.3          3.3          4.3          5.3          6.3          7.3          8.3
   -117.290265   -19.530671   -12.394289    -2.127159    -0.335902    -0.250523    -0.003348     0.042234

         1.4          2.4          3.4          4.4
    -12.387324    -0.291460     0.070743     0.256145

 HOMO      6.3    -0.250523 =      -6.8171eV
 LUMO     15.1    -0.098781 =      -2.6880eV
 LUMO-HOMO         0.151742 =       4.1291eV


 **********************************************************************************************************************************
 DATASETS  * FILE   NREC   LENGTH (MB)   RECORD NAMES
              1      23       20.91       500      610      700      900      950      970     1000      129      960     1700
                                          VAR    BASINP    GEOM    SYMINP    ZMAT    AOBASIS   BASIS     P2S    ABASIS    OPER
                                         1101     1401     1411     1412     1650     1100     1400     1410     1200     1210
                                          SR      EKINR    POTR     PVPR    MOLCAS      S      EKIN      POT      H0       H01
                                         1080     1600     1800
                                         AOSYM     SMH     GRID

              2       5        3.08       700     1000      520     1800     2100
                                         GEOM     BASIS   MCVARS    GRID      RKS

 PROGRAMS   *        TOTAL       RKS       INT
 CPU TIMES  *         8.85      0.83      7.41
 REAL TIME  *        10.19 SEC
 DISK USED  *         1.01 GB
 SF USED    *         0.04 MB
 GA USED    *         0.22 MB       (max)       0.22 MB       (current)
 **********************************************************************************************************************************
   -->
   <time start="07:09:14" end="07:09:23" cpu="8.85" system="0.82" real="10.19"/>
   <storage units="megabyte" memory="4097.84" sf="0.04" df="585.66" eaf="424.09" ga="0.22"/>
  </jobstep><!--
  --><jobstep command="RHF-SCF" commandset="SCFPRO">
   <!--


 PROGRAM * RHF-SCF (OPEN SHELL)       Authors: W. Meyer, H.-J. Werner


 NUMBER OF ELECTRONS:      28+   26-    SPACE SYMMETRY=2    SPIN SYMMETRY: Triplet
 CONVERGENCE THRESHOLDS:    1.00E-05 (Density)    1.08E-07 (Energy)
 MAX. NUMBER OF ITERATIONS:       60
 INTERPOLATION TYPE:            DIIS
 INTERPOLATION STEPS:              2 (START)      1 (STEP)
 LEVEL SHIFTS:                 -0.60 (CLOSED) -0.30 (OPEN)

 Number of closed-shell orbitals:   26 (  13   5   6   2 )
 Number of open-shell orbitals:      2 (   1   1   0   0 )


 Molecular orbitals read from record     2100.2  Type=RKS/CANONICAL (state 1.2)

 Molecular orbital dump at record        2101.2

 ITERATION    DDIFF          GRAD             ENERGY        2-EL.EN.            DIPOLE MOMENTS         DIIS   ORB.
    1      0.000D+00      0.000D+00     -5117.68092993   4082.827605    0.00000    0.00000   -1.70836    0    start
    2      0.000D+00      0.117D-01     -5117.70956160   4083.070941    0.00000    0.00000   -1.87137    1    diag,B
    3      0.730D-02      0.141D-02     -5117.71810990   4083.691805    0.00000    0.00000   -1.99099    2    diag,B
    4      0.133D-02      0.787D-03     -5117.72413344   4083.449659    0.00000    0.00000   -2.11560    3    diag,B
    5      0.122D-02      0.530D-03     -5117.72771245   4083.589696    0.00000    0.00000   -2.22479    4    diag,B
    6      0.114D-02      0.342D-03     -5117.72930517   4083.155125    0.00000    0.00000   -2.29840    5    diag,B
    7      0.835D-03      0.230D-03     -5117.73002482   4083.115281    0.00000    0.00000   -2.34364    6    diag,B
    8      0.633D-03      0.109D-03     -5117.73022926   4083.000223    0.00000    0.00000   -2.36926    7    orth
    9      0.393D-03      0.442D-04     -5117.73025242   4082.990239    0.00000    0.00000   -2.37378    8    diag,B
   10      0.139D-03      0.202D-04     -5117.73025634   4082.984112    0.00000    0.00000   -2.37343    9    diag,B
   11      0.508D-04      0.106D-04     -5117.73025773   4082.989130    0.00000    0.00000   -2.37303    9    diag,B
   12      0.316D-04      0.609D-05     -5117.73025831   4082.987972    0.00000    0.00000   -2.37244    9    diag,B
   13      0.191D-04      0.441D-05     -5117.73025869   4082.991192    0.00000    0.00000   -2.37253    9    diag,B
   14      0.125D-04      0.387D-05     -5117.73025896   4082.990942    0.00000    0.00000   -2.37241    9    diag,B
   15      0.825D-05      0.334D-05     -5117.73025942   4082.991315    0.00000    0.00000   -2.37246    9    diag,B
   16      0.162D-04      0.282D-05     -5117.73026009   4082.992649    0.00000    0.00000   -2.37260    9    diag,B
   17      0.318D-04      0.188D-05     -5117.73026039   4082.992762    0.00000    0.00000   -2.37262    9    diag,B
   18      0.258D-04      0.114D-05     -5117.73026047   4082.993052    0.00000    0.00000   -2.37257    9    orth
   19      0.126D-04      0.641D-06     -5117.73026048   4082.992815    0.00000    0.00000   -2.37251    9    diag,B
   20      0.658D-05      0.348D-06     -5117.73026048   4082.992837    0.00000    0.00000   -2.37249    0    orth

 Final alpha occupancy:  14   6   6   2
 Final beta  occupancy:  13   5   6   2

 !RHF STATE 1.2 Energy              -5117.730260484478
   --><property name="Energy" method="RHF" principal="true" stateSymmetry="2" stateNumber="1"
     value="-5117.73026048448"/><!--
 Nuclear energy                        98.10438973
 One-electron energy                -7257.33106879
 Two-electron energy                 2041.49641857
 Virial quotient                       -0.88707980
 !RHF STATE 1.2 Dipole moment           0.00000000     0.00000000    -2.37249447
 Dipole moment /Debye                   0.00000000     0.00000000    -6.02988449
   --><property name="Dipole moment" method="RHF" principal="true" stateSymmetry="2"
     stateNumber="1" value="0.0 0.0 -2.37249446685622"/><!--

 Orbital energies:

         1.1          2.1          3.1          4.1          5.1          6.1          7.1          8.1          9.1         10.1
   -899.581606  -134.539285  -120.432952   -25.692960   -20.937247   -20.508725   -13.349823   -13.347706    -3.996873    -2.551143

        11.1         12.1         13.1         14.1         15.1         16.1
     -1.130730    -0.459292    -0.454929    -0.452457    -0.015332     0.031729

         1.2          2.2          3.2          4.2          5.2          6.2          7.2          8.2
   -120.429012   -20.922353   -13.359419    -2.548720    -0.484420    -0.510746     0.021758     0.077656

         1.3          2.3          3.3          4.3          5.3          6.3          7.3          8.3
   -120.429007   -20.922481   -13.359970    -2.548615    -0.505037    -0.386991     0.022681     0.078977

         1.4          2.4          3.4          4.4
    -13.349753    -0.458470     0.094261     0.321248

 HOMO      6.3    -0.386991 =     -10.5306eV
 LUMO     15.1    -0.015332 =      -0.4172eV
 LUMO-HOMO         0.371659 =      10.1134eV


 **********************************************************************************************************************************
 DATASETS  * FILE   NREC   LENGTH (MB)   RECORD NAMES
              1      23       20.91       500      610      700      900      950      970     1000      129      960     1700
                                          VAR    BASINP    GEOM    SYMINP    ZMAT    AOBASIS   BASIS     P2S    ABASIS    OPER
                                         1101     1401     1411     1412     1650     1100     1400     1410     1200     1210
                                          SR      EKINR    POTR     PVPR    MOLCAS      S      EKIN      POT      H0       H01
                                         1080     1600     1800
                                         AOSYM     SMH     GRID

              2       6        5.96       700     1000      520     1800     2100     2101
                                         GEOM     BASIS   MCVARS    GRID      RKS      RHF

 PROGRAMS   *        TOTAL       RHF       RKS       INT
 CPU TIMES  *         9.23      0.38      0.83      7.41
 REAL TIME  *        10.73 SEC
 DISK USED  *         1.08 GB
 SF USED    *         0.04 MB
 GA USED    *         0.22 MB       (max)       0.22 MB       (current)
 **********************************************************************************************************************************
   -->
   <time start="07:09:23" end="07:09:24" cpu="0.38" system="0.11" real="0.54"/>
   <storage units="megabyte" memory="4097.84" sf="0.04" df="651.96" eaf="424.09" ga="0.22"/>
  </jobstep><!--
 SETTING BASIS          =    USERDEF
  --><jobstep command="RHF-SCF" commandset="SCFPRO">
   <!--


 Recomputing integrals since basis changed


 Using spherical harmonics



 PROGRAM * SEWARD (Integral evaluation for generally contracted gaussian basis sets)     Author: Roland Lindh, 1990

 Geometry written to block  1 of record 700


 Point group  C2v



 ATOMIC COORDINATES

 NR  ATOM    CHARGE       X              Y              Z

   1  PD     46.00    0.000000000    0.000000000    0.000000000
   2  O       8.00    0.000000000    0.000000000    3.751106357

 Bond lengths in Bohr (Angstrom)

 1-2  3.751106357
     ( 1.985000000)

 NUCLEAR CHARGE:                   54
 NUMBER OF PRIMITIVE AOS:         642
 NUMBER OF SYMMETRY AOS:          471
 NUMBER OF CONTRACTIONS:          471   ( 186A1  + 112B1  + 112B2  +  61A2  )
 NUMBER OF CORE ORBITALS:          19   (  10A1  +   4B1  +   4B2  +   1A2  )
 NUMBER OF VALENCE ORBITALS:       10   (   5A1  +   2B1  +   2B2  +   1A2  )


 NUCLEAR REPULSION ENERGY   98.10438973

 One-electron integrals computed with SEWARD

 10nd-order Douglas-Kroll-Hess method activated. McWeeny DKH parametrization is used.

 Computing Douglas-Kroll / X2C integrals

 AO integral compression algorithm  1   Integral accuracy      1.0D-12

     3369.337 MB (compressed) written to integral file ( 23.9%)

     Node minimum: 110.887 MB, node maximum: 247.202 MB


 NUMBER OF SORTED TWO-ELECTRON INTEGRALS:   68490206.     BUFFER LENGTH:  32768
 NUMBER OF SEGMENTS:   3  SEGMENT LENGTH:   31990307      RECORD LENGTH: 524288

 Memory used in sort:      32.55 MW

 SORT1 READ  1760380706. AND WROTE    25998576. INTEGRALS IN     76 RECORDS. CPU TIME:    36.31 SEC, REAL TIME:    45.51 SEC
 SORT2 READ   613372390. AND WROTE  1570932477. INTEGRALS IN  13340 RECORDS. CPU TIME:     2.24 SEC, REAL TIME:     3.85 SEC

 Node minimum:    68250355.  Node maximum:    68491598. integrals

 OPERATOR DM      FOR CENTER  0  COORDINATES:    0.000000    0.000000    0.000000

 EXTRA SYMMETRY OF AOS IN SYMMETRY 1:   1 1 1 1 1 1 1 1 1 1   1 1 1 1 1 1 1 1 1 1   1 1 1 1 1 1 1 1 1 1   1 1 1 1 1 1 1 1 1 1
                                        1 1 1 1 1 1 1 1 1 1   1 1 1 2 1 2 1 2 1 2   1 2 1 2 1 2 1 2 1 2   1 2 1 2 1 2 1 2 1 2
                                        1 2 1 2 1 2 1 2 1 2   1 2 1 2 1 2 1 3 2 1   3 2 1 3 2 1 3 2 2 3   1 2 3 1 2 3 1 4 3 2
                                        1 4 3 2 1 1 1 1 1 1   1 1 1 1 1 1 1 1 1 1   1 1 1 1 1 1 1 1 1 1   1 1 1 1 2 1 2 1 2 1
                                        2 1 2 1 2 1 2 1 2 1   2 1 3 2 1 3 2 1 3 2   2 3 1 2 3 1
 EXTRA SYMMETRY OF AOS IN SYMMETRY 2:   1 1 1 1 1 1 1 1 1 1   1 1 1 1 1 1 1 1 1 1   1 1 1 1 1 1 1 1 1 1   1 1 1 1 1 1 1 1 1 1
                                        1 2 1 2 1 2 1 2 1 2   1 2 1 2 1 2 1 2 1 2   3 1 2 3 1 2 3 3 2 1   3 2 1 1 1 1 1 1 1 1
                                        1 1 1 1 1 1 1 1 1 1   1 1 1 2 1 2 1 2 1 2   1 2 1 2 1 2 1 2 3 1   2 3
 EXTRA SYMMETRY OF AOS IN SYMMETRY 3:   1 1 1 1 1 1 1 1 1 1   1 1 1 1 1 1 1 1 1 1   1 1 1 1 1 1 1 1 1 1   1 1 1 1 1 1 1 1 1 1
                                        1 2 1 2 1 2 1 2 1 2   1 2 1 2 1 2 1 2 1 2   3 1 2 3 1 2 3 3 2 1   3 2 1 1 1 1 1 1 1 1
                                        1 1 1 1 1 1 1 1 1 1   1 1 1 2 1 2 1 2 1 2   1 2 1 2 1 2 1 2 3 1   2 3
 EXTRA SYMMETRY OF AOS IN SYMMETRY 4:   1 1 1 1 1 1 1 1 1 1   1 1 1 1 1 1 1 1 1 1   1 1 1 2 1 2 1 2 1 2   2 1 2 1 2 1 1 3 2 1
                                        3 2 1 1 1 1 1 1 1 1   1 1 2 1 2 1 2 2 1 2   1

 Eigenvalues of metric

         1 0.254E-07 0.838E-07 0.569E-06 0.852E-06 0.863E-06 0.180E-05 0.659E-05 0.752E-05
         2 0.286E-07 0.770E-06 0.971E-06 0.898E-05 0.176E-04 0.636E-04 0.274E-03 0.467E-03
         3 0.286E-07 0.770E-06 0.971E-06 0.898E-05 0.176E-04 0.636E-04 0.274E-03 0.467E-03
         4 0.948E-05 0.306E-03 0.301E-02 0.107E-01 0.202E-01 0.237E-01 0.304E-01 0.518E-01


 **********************************************************************************************************************************
 DATASETS  * FILE   NREC   LENGTH (MB)   RECORD NAMES
              1      22       24.20       500      610      700      900      950      970     1001      129      960     1700
                                          VAR    BASINP    GEOM    SYMINP    ZMAT    AOBASIS   BASIS     P2S    ABASIS    OPER
                                         1101     1401     1411     1412     1650     1100     1400     1410     1200     1210
                                          SR      EKINR    POTR     PVPR    MOLCAS      S      EKIN      POT      H0       H01
                                         1080     1600
                                         AOSYM     SMH

              2       7        6.16       700     1000      520     1800     2100     2101     1001
                                         GEOM     BASIS   MCVARS    GRID      RKS      RHF     BASIS

 PROGRAMS   *        TOTAL       INT       RHF       RKS       INT
 CPU TIMES  *       101.51     92.23      0.38      0.83      7.41
 REAL TIME  *       115.01 SEC
 DISK USED  *        11.40 GB
 SF USED    *         0.04 MB
 GA USED    *         0.22 MB       (max)       0.00 MB       (current)
 **********************************************************************************************************************************


 PROGRAM * RHF-SCF (OPEN SHELL)       Authors: W. Meyer, H.-J. Werner


 NUMBER OF ELECTRONS:      28+   26-    SPACE SYMMETRY=2    SPIN SYMMETRY: Triplet
 CONVERGENCE THRESHOLDS:    1.00E-05 (Density)    1.08E-07 (Energy)
 MAX. NUMBER OF ITERATIONS:       60
 INTERPOLATION TYPE:            DIIS
 INTERPOLATION STEPS:              2 (START)      1 (STEP)
 LEVEL SHIFTS:                 -0.60 (CLOSED) -0.30 (OPEN)

 Number of closed-shell orbitals:   26 (  13   5   6   2 )
 Number of open-shell orbitals:      2 (   1   1   0   0 )


 Molecular orbitals read from record     2101.2  Type=RHF/CANONICAL (state 1.2)

 Present basis size:     186 112 112  61
 Previous basis size:     73  43  43  23
 Previous occupation:     14   6   6   2
 Previous closed-shells:  13   5   6   2
 Previous core-orbitals:  10   4   4   1
 Present occupation:      14   6   6   2
 Present closed-shells:   13   5   6   2
 Present core-orbitals:   10   4   4   1
 Wavefunction symmetry:    2   Triplet

 Orbital overlap <old|new>:  < 1.1| 1.1> = 1.000000   < 2.1| 2.1> = 1.000000   < 3.1| 3.1> = 1.000000   < 4.1| 4.1> = 1.000000
                             < 5.1| 5.1> = 1.000000   < 6.1| 6.1> = 0.999164   < 7.1| 7.1> = 1.000000   < 8.1| 8.1> = 1.000000
                             < 9.1| 9.1> = 1.000000   <10.1|10.1> = 1.000000   < 1.2| 1.2> = 1.000000   < 2.2| 2.2> = 1.000000
                             < 3.2| 3.2> = 1.000000   < 4.2| 4.2> = 1.000000   < 1.3| 1.3> = 1.000000   < 2.3| 2.3> = 1.000000
                             < 3.3| 3.3> = 1.000000   < 4.3| 4.3> = 1.000000   < 1.4| 1.4> = 1.000000   <11.1|11.1> = 0.999956
                             <12.1|12.1> = 0.999999   <13.1|13.1> = 0.999997   < 5.2| 5.2> = 1.000000   < 5.3| 5.3> = 0.999999
                             < 6.3| 6.3> = 0.999997   < 2.4| 2.4> = 1.000000   <14.1|14.1> = 0.999999   < 6.2| 6.2> = 0.999996

 Molecular orbital dump at record        2102.2

 ITERATION    DDIFF          GRAD             ENERGY        2-EL.EN.            DIPOLE MOMENTS         DIIS   ORB.
    1      0.000D+00      0.000D+00     -5115.68421897   4082.931308    0.00000    0.00000   -2.37243    0    start
    2      0.000D+00      0.548D-01     -5115.77279932   4082.393664    0.00000    0.00000   -2.37291    1    diag,B
    3      0.118D+02      0.878D-03     -5115.77344769   4082.389065    0.00000    0.00000   -2.39249    2    diag,B
    4      0.493D+00      0.168D-03     -5115.77354993   4082.479638    0.00000    0.00000   -2.39456    3    diag,B
    5      0.334D-01      0.629D-04     -5115.77357568   4082.399436    0.00000    0.00000   -2.39969    4    diag,B
    6      0.595D-02      0.295D-04     -5115.77358146   4082.450237    0.00000    0.00000   -2.40186    5    diag,B
    7      0.377D-02      0.114D-04     -5115.77358286   4082.437855    0.00000    0.00000   -2.40337    6    diag,B
    8      0.240D-02      0.575D-05     -5115.77358356   4082.437952    0.00000    0.00000   -2.40496    7    orth
    9      0.189D-02      0.272D-05     -5115.77358377   4082.438949    0.00000    0.00000   -2.40590    8    diag,B
   10      0.395D-03      0.121D-05     -5115.77358381   4082.438468    0.00000    0.00000   -2.40627    9    diag,B
   11      0.213D-03      0.649D-06     -5115.77358383   4082.438397    0.00000    0.00000   -2.40639    9    diag,B
   12      0.174D-03      0.371D-06     -5115.77358384   4082.438654    0.00000    0.00000   -2.40643    9    diag,B
   13      0.102D-03      0.221D-06     -5115.77358385   4082.438555    0.00000    0.00000   -2.40643    9    diag,B
   14      0.485D-04      0.166D-06     -5115.77358385   4082.438700    0.00000    0.00000   -2.40643    9    diag,B
   15      0.312D-04      0.142D-06     -5115.77358386   4082.438725    0.00000    0.00000   -2.40642    9    diag,B
   16      0.784D-04      0.124D-06     -5115.77358385   4082.438749    0.00000    0.00000   -2.40642    9    diag,B
   17      0.421D-04      0.109D-06     -5115.77358384   4082.438784    0.00000    0.00000   -2.40642    9    diag,B
   18      0.135D-03      0.875D-07     -5115.77358385   4082.438834    0.00000    0.00000   -2.40642    9    orth
   19      0.263D-03      0.682D-07     -5115.77358385   4082.438832    0.00000    0.00000   -2.40642    9    diag,B
   20      0.169D-03      0.485D-07     -5115.77358385   4082.438819    0.00000    0.00000   -2.40642    9    diag,B
   21      0.403D-03      0.586D-07     -5115.77358386   4082.438817    0.00000    0.00000   -2.40642    9    diag,B
   22      0.115D-03      0.278D-07     -5115.77358384   4082.438823    0.00000    0.00000   -2.40642    9    diag,B
   23      0.869D-04      0.330D-07     -5115.77358385   4082.438821    0.00000    0.00000   -2.40642    9    diag,B
   24      0.886D-04      0.182D-07     -5115.77358386   4082.438821    0.00000    0.00000   -2.40642    9    diag,B
   25      0.369D-04      0.140D-07     -5115.77358385   4082.438818    0.00000    0.00000   -2.40642    9    diag,B
   26      0.105D-03      0.188D-07     -5115.77358384   4082.438817    0.00000    0.00000   -2.40642    9    diag,B
   27      0.374D-04      0.293D-07     -5115.77358385   4082.438817    0.00000    0.00000   -2.40642    9    diag,B
   28      0.306D-04      0.953D-08     -5115.77358385   4082.438817    0.00000    0.00000   -2.40642    9    orth
   29      0.681D-05      0.104D-07     -5115.77358384   4082.438818    0.00000    0.00000   -2.40642    0    orth

 Final alpha occupancy:  14   6   6   2
 Final beta  occupancy:  13   5   6   2

 !RHF STATE 1.2 Energy              -5115.773583842123
   --><property name="Energy" method="RHF" principal="true" stateSymmetry="2" stateNumber="1"
     value="-5115.77358384212"/><!--
 Nuclear energy                        98.10438973
 One-electron energy                -7255.09738234
 Two-electron energy                 2041.21940877
 Virial quotient                       -0.88737463
 !RHF STATE 1.2 Dipole moment           0.00000000     0.00000000    -2.40641690
 Dipole moment /Debye                   0.00000000     0.00000000    -6.11610107
   --><property name="Dipole moment" method="RHF" principal="true" stateSymmetry="2"
     stateNumber="1" value="0.0 0.0 -2.40641690106863"/><!--

 Orbital energies:

         1.1          2.1          3.1          4.1          5.1          6.1          7.1          8.1          9.1         10.1
   -899.576441  -134.540355  -120.433413   -25.694461   -20.938556   -19.678691   -13.351487   -13.349152    -3.998333    -2.552452

        11.1         12.1         13.1         14.1         15.1         16.1
     -1.082459    -0.461912    -0.458559    -0.455371    -0.015821     0.029631

         1.2          2.2          3.2          4.2          5.2          6.2          7.2          8.2
   -120.429573   -20.923841   -13.360926    -2.550226    -0.485914    -0.517388     0.021207     0.076243

         1.3          2.3          3.3          4.3          5.3          6.3          7.3          8.3
   -120.429564   -20.923944   -13.361459    -2.550120    -0.507422    -0.392276     0.022075     0.077450

         1.4          2.4          3.4          4.4
    -13.351427    -0.459938     0.093166     0.311889

 HOMO      6.3    -0.392276 =     -10.6744eV
 LUMO     15.1    -0.015821 =      -0.4305eV
 LUMO-HOMO         0.376455 =      10.2439eV


 **********************************************************************************************************************************
 DATASETS  * FILE   NREC   LENGTH (MB)   RECORD NAMES
              1      22       24.20       500      610      700      900      950      970     1001      129      960     1700
                                          VAR    BASINP    GEOM    SYMINP    ZMAT    AOBASIS   BASIS     P2S    ABASIS    OPER
                                         1101     1401     1411     1412     1650     1100     1400     1410     1200     1210
                                          SR      EKINR    POTR     PVPR    MOLCAS      S      EKIN      POT      H0       H01
                                         1080     1600
                                         AOSYM     SMH

              2       8       10.45       700     1000      520     1800     2100     2101     1001     2102
                                         GEOM     BASIS   MCVARS    GRID      RKS      RHF     BASIS     RHF

 PROGRAMS   *        TOTAL       RHF       INT       RHF       RKS       INT
 CPU TIMES  *       113.03     11.50     92.23      0.38      0.83      7.41
 REAL TIME  *       127.91 SEC
 DISK USED  *        11.76 GB
 SF USED    *         0.26 MB
 GA USED    *         0.22 MB       (max)       0.00 MB       (current)
 **********************************************************************************************************************************
   -->
   <time start="07:09:24" end="07:11:21" cpu="103.8" system="10.96" real="117.18"/>
   <storage units="megabyte" memory="4097.84" sf="0.26" df="1011.05" eaf="10750.44"
     ga="0.0"/>
  </jobstep><!--
 SETTING SCF            =     -5115.77358384  AU
 SETTING _CC_NORM_MAX   =         2.00000000
  --><jobstep command="RCCSD(T)" commandset="CCSD">
   <!--


 PROGRAM * CCSD (Restricted open-shell coupled cluster)     Authors: C. Hampel, H.-J. Werner, 1991, M. Deegan, P.J. Knowles, 1992


 Convergence thresholds:  THRVAR = 1.00D-08  THRDEN = 1.08D-06

 CCSD(T)     terms to be evaluated (factor= 1.000)


 Number of closed-shell orbitals:  26 (  13   5   6   2 )
 Number of active  orbitals:        2 (   1   1   0   0 )
 Number of external orbitals:     443 ( 172 106 106  59 )

 For full I/O caching in triples, increase memory by 456.44 Mwords to 968.72 Mwords.

 Number of N-1 electron functions:              54
 Number of N-2 electron functions:            1431
 Number of singly external CSFs:              7356
 Number of doubly external CSFs:          54592887
 Total number of CSFs:                    54600243

 Molecular orbitals read from record     2102.2  Type=RHF/CANONICAL (state 1.2)

 Integral transformation finished. Total CPU:  65.78 sec, npass=  1  Memory used: 103.89 MW

 Starting RMP2 calculation

 Wavefunction is spin-projected

 ITER.      SQ.NORM     CORR.ENERGY   TOTAL ENERGY   ENERGY CHANGE        DEN1      VAR(S)    VAR(P)  DIIS     TIME
   1      1.19597300    -2.01151824 -5117.78510211    -2.01151824    -0.00160678  0.84D-05  0.57D-03  1  1    87.62
   2      1.19733788    -2.01321628 -5117.78680014    -0.00169803    -0.00000557  0.23D-06  0.30D-05  2  2   105.59
   3      1.19741938    -2.01327121 -5117.78685507    -0.00005493    -0.00000004  0.98D-08  0.19D-07  3  3   121.57
   4      1.19742155    -2.01327133 -5117.78685519    -0.00000012    -0.00000000  0.29D-09  0.16D-09  4  4   141.96

 Norm of t1 vector:      0.04055919      S-energy:    -0.00563692      T1 diagnostic:  0.00029385
 Norm of t2 vector:      0.44246639      P-energy:    -2.00763441
                                         Alpha-Beta:  -1.37944504
                                         Alpha-Alpha: -0.33649439
                                         Beta-Beta:   -0.29169498

 Spin contamination <S**2-Sz**2-Sz>     0.00000000
  Reference energy                  -5115.773583865972
   --><property name="energy" method="Reference" stateSymmetry="1" stateNumber="1"
     value="-5115.77358386597"/><!--
  RHF-RMP2 correlation energy          -2.013271326953
   --><property name="energy" method="RHF-RMP2 correlation" stateSymmetry="1" stateNumber="1"
     value="-2.0132713269527"/><!--
 !RHF-RMP2 energy                   -5117.786855192925
   --><property name="energy" method="RHF-RMP2" principal="true" stateSymmetry="2"
     stateNumber="1" value="-5117.78685519293"/><!--
 (NB above energy spin projected)

 Starting RCCSD calculation

 ITER.      SQ.NORM     CORR.ENERGY   TOTAL ENERGY   ENERGY CHANGE        DEN1      VAR(S)    VAR(P)  DIIS     TIME
   1      1.17135812    -1.90184930 -5117.67543317    -1.90184930    -0.03454822  0.79D-02  0.39D-02  0  0   345.38
   2      1.18916994    -1.93388742 -5117.70747129    -0.03203812    -0.00682110  0.27D-03  0.12D-02  1  1   571.34
   3      1.20272487    -1.93075020 -5117.70433406     0.00313723    -0.19224694  0.11D-02  0.52D-02  1  0   784.99
   4      1.60353524    -1.93736079 -5117.71094466    -0.00661060   -12.10372627  0.25D-03  0.37D+00  1  0   989.88
   5     25.19036944    -1.93838863 -5117.71197250    -0.00102784  -802.87883697  0.47D-03  0.22D+02  1  0  1209.24
   6   1893.03686864    -2.13043730 -5117.90402116    -0.19204866-54703.77040748  0.36D-01  0.17D+04  1  0  1416.50

 UNREASONABLE NORM:********** CALCULATION WILL BE STOPPED

 The threshold can be changed using option CC_NORM_MAX (see manual). The current value is CC_NORM_MAX=2.00

 Norm of t1 vector:      0.25813191      S-energy:    -0.00603138      T1 diagnostic:  0.02432490
                                                                       D1 diagnostic:  0.13655169
 Norm of t2 vector:     43.49678421      P-energy:    -2.12440591
                                         Alpha-Beta:  -1.54964517
                                         Alpha-Alpha: -0.30627750
                                         Beta-Beta:   -0.26848324

 Singles amplitudes (print threshold =  0.500E-01):

         I         SYM. A    A   T(IA) [Beta-Beta]

        12         1         1      0.08798216
        13         1         1     -0.07113302
        19         2         1      0.06576319

 Doubles amplitudes (print threshold =  0.500E-01):

         I         J         SYM. A    SYM. B    A         B      T(IJ, AB) [Alpha-Alpha]

        20        11         1         2        91        51     -0.05210925
        20        11         1         2        91        73     -0.08777639
        20        11         1         2        91        86      0.09745462
        20        11         1         2        91        89      0.05919977
        20        11         1         2       112        73     -0.08763636
        20        11         1         2       112        86      0.10419715
        20        11         1         2       112        89      0.06665595
        20        11         1         2       124        73     -0.06913661
        20        11         1         2       124        86      0.08854816
        20        11         1         2       124        89      0.06045901
        20        11         1         2       125        62      0.05286844
        20        11         1         2       127        86      0.05052126
        20        11         2         1        51        91      0.05210925
        20        11         2         1        62       125     -0.05286844
        20        11         2         1        73        91      0.08777639
        20        11         2         1        73       112      0.08763636
        20        11         2         1        73       124      0.06913661
        20        11         2         1        86        91     -0.09745462
        20        11         2         1        86       112     -0.10419715
        20        11         2         1        86       124     -0.08854816
        20        11         2         1        86       127     -0.05052126
        20        11         2         1        89        91     -0.05919977
        20        11         2         1        89       112     -0.06665595
        20        11         2         1        89       124     -0.06045901
        26        11         1         3        91        72     -0.07186662
        26        11         1         3        91        85      0.07965080
        26        11         1         3       112        72     -0.07161124
        26        11         1         3       112        85      0.08505829
        26        11         1         3       112        88      0.05436402
        26        11         1         3       124        72     -0.05645446
        26        11         1         3       124        85      0.07227131
        26        11         3         1        72        91      0.07186662
        26        11         3         1        72       112      0.07161124
        26        11         3         1        72       124      0.05645446
        26        11         3         1        85        91     -0.07965080
        26        11         3         1        85       112     -0.08505829
        26        11         3         1        85       124     -0.07227131
        26        11         3         1        88       112     -0.05436402

         I         J         SYM. A    SYM. B    A         B      T(IJ, AB) [Beta-Beta]

        26        11         1         3        91        72     -0.07186662
        26        11         1         3        91        85      0.07965080
        26        11         1         3       112        72     -0.07161124
        26        11         1         3       112        85      0.08505829
        26        11         1         3       112        88      0.05436402
        26        11         1         3       124        72     -0.05645446
        26        11         1         3       124        85      0.07227131
        26        11         3         1        72        91      0.07186662
        26        11         3         1        72       112      0.07161124
        26        11         3         1        72       124      0.05645446
        26        11         3         1        85        91     -0.07965080
        26        11         3         1        85       112     -0.08505829
        26        11         3         1        85       124     -0.07227131
        26        11         3         1        88       112     -0.05436402

         I         J         SYM. A    SYM. B    A         B      T(IJ, AB) [Alpha-Beta]

         9         6         1         1        91        91     -0.07859059
         9         6         1         1        91       112     -0.07877412
         9         6         1         1        91       124     -0.06504863
         9         6         1         1       112        91     -0.07876935
         9         6         1         1       112       112     -0.08030615
         9         6         1         1       112       124     -0.06755957
         9         6         1         1       124        91     -0.06500153
         9         6         1         1       124       112     -0.06751293
         9         6         1         1       124       124     -0.05811736
         6         9         1         1        91        91     -0.07859059
         6         9         1         1        91       112     -0.07876935
         6         9         1         1        91       124     -0.06500153
         6         9         1         1       112        91     -0.07877412
         6         9         1         1       112       112     -0.08030615
         6         9         1         1       112       124     -0.06751293
         6         9         1         1       124        91     -0.06504863
         6         9         1         1       124       112     -0.06755957
         6         9         1         1       124       124     -0.05811736
         9         9         1         1        13       125     -0.05455393
         9         9         1         1        20       107     -0.06905194
         9         9         1         1        20       125     -0.07977158
         9         9         1         1        27       107     -0.08754010
         9         9         1         1        27       125     -0.10352320
         9         9         1         1        27       131     -0.06248366
         9         9         1         1        29       107     -0.06718918
         9         9         1         1        29       125     -0.07564928
         9         9         1         1        34        91     -0.05452301
         9         9         1         1        36        63     -0.05797855
         9         9         1         1        36        77      0.06090672
         9         9         1         1        36        82     -0.05985787
         9         9         1         1        36        91      0.07595405
         9         9         1         1        36        92     -0.08489281
         9         9         1         1        36       103      0.05359411
         9         9         1         1        36       107      0.14873923
         9         9         1         1        36       112      0.05718695
         9         9         1         1        36       121      0.06334793
         9         9         1         1        36       125      0.17529827
         9         9         1         1        36       131      0.10652404
         9         9         1         1        37        59     -0.06750101
         9         9         1         1        37        81     -0.05955803
         9         9         1         1        37        91     -0.09547573
         9         9         1         1        37       112     -0.08499805
         9         9         1         1        37       124     -0.06036211
         9         9         1         1        38        91     -0.06956212
         9         9         1         1        38       112     -0.06234330
         9         9         1         1        49        91      0.06842138
         9         9         1         1        49        92     -0.06218927
         9         9         1         1        49       107      0.07673211
         9         9         1         1        49       112      0.05923526
         9         9         1         1        49       125      0.08751147
         9         9         1         1        49       131      0.05282458
         9         9         1         1        50       107     -0.07155630
         9         9         1         1        50       125     -0.08899051
         9         9         1         1        50       131     -0.05735278
         9         9         1         1        51        51     -0.05325976
         9         9         1         1        51        59      0.06579397
         9         9         1         1        51        60      0.05570256
         9         9         1         1        51        63     -0.07798399
         9         9         1         1        51        77      0.07033522
         9         9         1         1        51        81      0.05252406
         9         9         1         1        51        82     -0.07115386
         9         9         1         1        51        83     -0.06832795
         9         9         1         1        51        91      0.11285786
         9         9         1         1        51        92     -0.11368214
         9         9         1         1        51       103      0.05159307
         9         9         1         1        51       107      0.15027568
         9         9         1         1        51       112      0.09299721
         9         9         1         1        51       121      0.08646755
         9         9         1         1        51       124      0.06978296
         9         9         1         1        51       125      0.17814615
         9         9         1         1        51       131      0.11070244
         9         9         1         1        53        63     -0.05061892
         9         9         1         1        53        92     -0.07067860
         9         9         1         1        53       107      0.07227203
         9         9         1         1        53       121      0.05858103
         9         9         1         1        53       125      0.08983588
         9         9         1         1        53       131      0.05524897
         9         9         1         1        59        37     -0.06750101
         9         9         1         1        59        51      0.06579397
         9         9         1         1        59        59     -0.08529860
         9         9         1         1        59        60     -0.06840750
         9         9         1         1        59        63      0.13885564
         9         9         1         1        59        67     -0.07205635
         9         9         1         1        59        68     -0.05615127
         9         9         1         1        59        77     -0.09015845
         9         9         1         1        59        81     -0.07605759
         9         9         1         1        59        82      0.07786800
         9         9         1         1        59        83      0.09293786
         9         9         1         1        59        88     -0.05013597
         9         9         1         1        59        91     -0.14876859
         9         9         1         1        59        92      0.20148373
         9         9         1         1        59       103     -0.06763753
         9         9         1         1        59       105      0.06550594
         9         9         1         1        59       107     -0.19113330
         9         9         1         1        59       112     -0.12985730
         9         9         1         1        59       121     -0.16200693
         9         9         1         1        59       124     -0.09814176
         9         9         1         1        59       125     -0.23526266
         9         9         1         1        59       127     -0.05294509
         9         9         1         1        59       130     -0.08447080
         9         9         1         1        59       131     -0.14861720
         9         9         1         1        59       137      0.05860021
         9         9         1         1        60        51      0.05570256
         9         9         1         1        60        59     -0.06840750
         9         9         1         1        60        63      0.05799134
         9         9         1         1        60        77     -0.06724338
         9         9         1         1        60        82      0.06092685
         9         9         1         1        60        83      0.07002710
         9         9         1         1        60        88     -0.05723598
         9         9         1         1        60        91     -0.10184335
         9         9         1         1        60        92      0.08068925
         9         9         1         1        60       107     -0.14759686
         9         9         1         1        60       112     -0.08108932
         9         9         1         1        60       121     -0.06390452
         9         9         1         1        60       124     -0.06063745
         9         9         1         1        60       125     -0.17658589
         9         9         1         1        60       131     -0.11330258
         9         9         1         1        61       107      0.05116142
         9         9         1         1        61       125      0.06145991
         9         9         1         1        62        91      0.05391932
         9         9         1         1        62       112      0.05179464
         9         9         1         1        63        36     -0.05797855
         9         9         1         1        63        51     -0.07798399
         9         9         1         1        63        53     -0.05061892
         9         9         1         1        63        59      0.13885564
         9         9         1         1        63        60      0.05799134
         9         9         1         1        63        77      0.06517974
         9         9         1         1        63        79      0.08442094
         9         9         1         1        63        81      0.12663301
         9         9         1         1        63        82     -0.09267432
         9         9         1         1        63        83     -0.06225702
         9         9         1         1        63        84     -0.06819436
         9         9         1         1        63        91      0.21104793
         9         9         1         1        63       112      0.19351831
         9         9         1         1        63       124      0.14142193
         9         9         1         1        63       127      0.07126535
         9         9         1         1        67        59     -0.07205635
         9         9         1         1        67        81     -0.06205363
         9         9         1         1        67        82      0.05182860
         9         9         1         1        67        91     -0.10451584
         9         9         1         1        67       112     -0.09411717
         9         9         1         1        67       124     -0.06945212
         9         9         1         1        68        59     -0.05615127
         9         9         1         1        68        81     -0.05204648
         9         9         1         1        68        91     -0.09012144
         9         9         1         1        68       112     -0.08241287
         9         9         1         1        68       124     -0.06123188
         9         9         1         1        77        36      0.06090672
         9         9         1         1        77        51      0.07033522
         9         9         1         1        77        59     -0.09015845
         9         9         1         1        77        60     -0.06724338
         9         9         1         1        77        63      0.06517974
         9         9         1         1        77        77     -0.06724435
         9         9         1         1        77        81     -0.07977849
         9         9         1         1        77        82      0.08010664
         9         9         1         1        77        83      0.07327200
         9         9         1         1        77        91     -0.14804357
         9         9         1         1        77        92      0.10674815
         9         9         1         1        77       107     -0.10626507
         9         9         1         1        77       112     -0.13236897
         9         9         1         1        77       121     -0.08348480
         9         9         1         1        77       124     -0.10100698
         9         9         1         1        77       125     -0.12671217
         9         9         1         1        77       127     -0.05345156
         9         9         1         1        77       131     -0.08206879
         9         9         1         1        79        63      0.08442094
         9         9         1         1        79        92      0.11143777
         9         9         1         1        79       107     -0.07846458
         9         9         1         1        79       121     -0.09928000
         9         9         1         1        79       125     -0.10895132
         9         9         1         1        79       130     -0.05405878
         9         9         1         1        79       131     -0.07144092
         9         9         1         1        81        37     -0.05955803
         9         9         1         1        81        51      0.05252406
         9         9         1         1        81        59     -0.07605759
         9         9         1         1        81        63      0.12663301
         9         9         1         1        81        67     -0.06205363
         9         9         1         1        81        68     -0.05204648
         9         9         1         1        81        77     -0.07977849
         9         9         1         1        81        81     -0.06906588
         9         9         1         1        81        82      0.05939229
         9         9         1         1        81        83      0.08711122
         9         9         1         1        81        88     -0.05740402
         9         9         1         1        81        91     -0.13250461
         9         9         1         1        81        92      0.18278010
         9         9         1         1        81       103     -0.05873164
         9         9         1         1        81       105      0.06106615
         9         9         1         1        81       107     -0.17379830
         9         9         1         1        81       112     -0.11819138
         9         9         1         1        81       121     -0.15418977
         9         9         1         1        81       124     -0.09047335
         9         9         1         1        81       125     -0.22095290
         9         9         1         1        81       127     -0.05017755
         9         9         1         1        81       130     -0.08268962
         9         9         1         1        81       131     -0.14464596
         9         9         1         1        81       137      0.05876479
         9         9         1         1        82        36     -0.05985787
         9         9         1         1        82        51     -0.07115386
         9         9         1         1        82        59      0.07786800
         9         9         1         1        82        60      0.06092685
         9         9         1         1        82        63     -0.09267432
         9         9         1         1        82        67      0.05182860
         9         9         1         1        82        77      0.08010664
         9         9         1         1        82        81      0.05939229
         9         9         1         1        82        82     -0.07200198
         9         9         1         1        82        83     -0.08723238
         9         9         1         1        82        88      0.06594056
         9         9         1         1        82        91      0.12258750
         9         9         1         1        82        92     -0.13618427
         9         9         1         1        82       103      0.06027221
         9         9         1         1        82       105     -0.06147891
         9         9         1         1        82       107      0.18749036
         9         9         1         1        82       112      0.10259995
         9         9         1         1        82       121      0.11382430
         9         9         1         1        82       124      0.07946499
         9         9         1         1        82       125      0.23383239
         9         9         1         1        82       130      0.06068162
         9         9         1         1        82       131      0.15223523
         9         9         1         1        82       137     -0.06139190
         9         9         1         1        83        51     -0.06832795
         9         9         1         1        83        59      0.09293786
         9         9         1         1        83        60      0.07002710
         9         9         1         1        83        63     -0.06225702
         9         9         1         1        83        77      0.07327200
         9         9         1         1        83        81      0.08711122
         9         9         1         1        83        82     -0.08723238
         9         9         1         1        83        83     -0.08896503
         9         9         1         1        83        91      0.16733019
         9         9         1         1        83        92     -0.09744904
         9         9         1         1        83       107      0.12333891
         9         9         1         1        83       112      0.15046184
         9         9         1         1        83       121      0.07331597
         9         9         1         1        83       124      0.11412541
         9         9         1         1        83       125      0.14472815
         9         9         1         1        83       127      0.06144569
         9         9         1         1        83       131      0.09518471
         9         9         1         1        84        63     -0.06819436
         9         9         1         1        84        91      0.07302384
         9         9         1         1        84        92     -0.11190897
         9         9         1         1        84       112      0.07128395
         9         9         1         1        84       121      0.09554043
         9         9         1         1        84       124      0.05629517
         9         9         1         1        84       125      0.05278331
         9         9         1         1        84       130      0.05260252
         9         9         1         1        88        59     -0.05013597
         9         9         1         1        88        60     -0.05723598
         9         9         1         1        88        81     -0.05740402
         9         9         1         1        88        82      0.06594056
         9         9         1         1        88        91     -0.10896346
         9         9         1         1        88        95      0.05203743
         9         9         1         1        88       112     -0.10455272
         9         9         1         1        88       124     -0.07923939
         9         9         1         1        89        91      0.05484062
         9         9         1         1        91        34     -0.05452301
         9         9         1         1        91        36      0.07595405
         9         9         1         1        91        37     -0.09547573
         9         9         1         1        91        38     -0.06956212
         9         9         1         1        91        49      0.06842138
         9         9         1         1        91        51      0.11285786
         9         9         1         1        91        59     -0.14876859
         9         9         1         1        91        60     -0.10184335
         9         9         1         1        91        62      0.05391932
         9         9         1         1        91        63      0.21104793
         9         9         1         1        91        67     -0.10451584
         9         9         1         1        91        68     -0.09012144
         9         9         1         1        91        77     -0.14804357
         9         9         1         1        91        81     -0.13250461
         9         9         1         1        91        82      0.12258750
         9         9         1         1        91        83      0.16733019
         9         9         1         1        91        84      0.07302384
         9         9         1         1        91        88     -0.10896346
         9         9         1         1        91        89      0.05484062
         9         9         1         1        91        91     -0.25845504
         9         9         1         1        91        92      0.31915287
         9         9         1         1        91       103     -0.10837400
         9         9         1         1        91       105      0.11337058
         9         9         1         1        91       107     -0.32916868
         9         9         1         1        91       108     -0.05202660
         9         9         1         1        91       112     -0.23345684
         9         9         1         1        91       117     -0.07098069
         9         9         1         1        91       121     -0.28001220
         9         9         1         1        91       123      0.07347965
         9         9         1         1        91       124     -0.18456028
         9         9         1         1        91       125     -0.43061633
         9         9         1         1        91       127     -0.10485821
         9         9         1         1        91       130     -0.15653148
         9         9         1         1        91       131     -0.29134080
         9         9         1         1        91       137      0.12199315
         9         9         1         1        92        36     -0.08489281
         9         9         1         1        92        49     -0.06218927
         9         9         1         1        92        51     -0.11368214
         9         9         1         1        92        53     -0.07067860
         9         9         1         1        92        59      0.20148373
         9         9         1         1        92        60      0.08068925
         9         9         1         1        92        77      0.10674815
         9         9         1         1        92        79      0.11143777
         9         9         1         1        92        81      0.18278010
         9         9         1         1        92        82     -0.13618427
         9         9         1         1        92        83     -0.09744904
         9         9         1         1        92        84     -0.11190897
         9         9         1         1        92        91      0.31915287
         9         9         1         1        92        92     -0.09653221
         9         9         1         1        92       107      0.06395322
         9         9         1         1        92       112      0.30266372
         9         9         1         1        92       121      0.06837986
         9         9         1         1        92       124      0.23201175
         9         9         1         1        92       125      0.05392877
         9         9         1         1        92       127      0.12396197
         9         9         1         1        95        88      0.05203743
         9         9         1         1        95       107      0.06488047
         9         9         1         1        95       125      0.07458402
         9         9         1         1       103        36      0.05359411
         9         9         1         1       103        51      0.05159307
         9         9         1         1       103        59     -0.06763753
         9         9         1         1       103        81     -0.05873164
         9         9         1         1       103        82      0.06027221
         9         9         1         1       103        91     -0.10837400
         9         9         1         1       103       112     -0.10066992
         9         9         1         1       103       124     -0.07938024
         9         9         1         1       105        59      0.06550594
         9         9         1         1       105        81      0.06106615
         9         9         1         1       105        82     -0.06147891
         9         9         1         1       105        91      0.11337058
         9         9         1         1       105       112      0.10739231
         9         9         1         1       105       124      0.08420769
         9         9         1         1       107        20     -0.06905194
         9         9         1         1       107        27     -0.08754010
         9         9         1         1       107        29     -0.06718918
         9         9         1         1       107        36      0.14873923
         9         9         1         1       107        49      0.07673211
         9         9         1         1       107        50     -0.07155630
         9         9         1         1       107        51      0.15027568
         9         9         1         1       107        53      0.07227203
         9         9         1         1       107        59     -0.19113330
         9         9         1         1       107        60     -0.14759686
         9         9         1         1       107        61      0.05116142
         9         9         1         1       107        77     -0.10626507
         9         9         1         1       107        79     -0.07846458
         9         9         1         1       107        81     -0.17379830
         9         9         1         1       107        82      0.18749036
         9         9         1         1       107        83      0.12333891
         9         9         1         1       107        91     -0.32916868
         9         9         1         1       107        92      0.06395322
         9         9         1         1       107        95      0.06488047
         9         9         1         1       107       107     -0.10439255
         9         9         1         1       107       112     -0.30916352
         9         9         1         1       107       124     -0.24621716
         9         9         1         1       107       125     -0.10584401
         9         9         1         1       107       127     -0.13476306
         9         9         1         1       107       131     -0.07272956
         9         9         1         1       107       133     -0.05542651
         9         9         1         1       108        91     -0.05202660
         9         9         1         1       108       112     -0.05308056
         9         9         1         1       112        36      0.05718695
         9         9         1         1       112        37     -0.08499805
         9         9         1         1       112        38     -0.06234330
         9         9         1         1       112        49      0.05923526
         9         9         1         1       112        51      0.09299721
         9         9         1         1       112        59     -0.12985730
         9         9         1         1       112        60     -0.08108932
         9         9         1         1       112        62      0.05179464
         9         9         1         1       112        63      0.19351831
         9         9         1         1       112        67     -0.09411717
         9         9         1         1       112        68     -0.08241287
         9         9         1         1       112        77     -0.13236897
         9         9         1         1       112        81     -0.11819138
         9         9         1         1       112        82      0.10259995
         9         9         1         1       112        83      0.15046184
         9         9         1         1       112        84      0.07128395
         9         9         1         1       112        88     -0.10455272
         9         9         1         1       112        91     -0.23345684
         9         9         1         1       112        92      0.30266372
         9         9         1         1       112       103     -0.10066992
         9         9         1         1       112       105      0.10739231
         9         9         1         1       112       107     -0.30916352
         9         9         1         1       112       108     -0.05308056
         9         9         1         1       112       112     -0.21713980
         9         9         1         1       112       117     -0.06783437
         9         9         1         1       112       121     -0.28212857
         9         9         1         1       112       123      0.07275386
         9         9         1         1       112       124     -0.17656082
         9         9         1         1       112       125     -0.42427990
         9         9         1         1       112       127     -0.10426044
         9         9         1         1       112       130     -0.16669813
         9         9         1         1       112       131     -0.30020029
         9         9         1         1       112       136     -0.05466213
         9         9         1         1       112       137      0.13074218
         9         9         1         1       113       125     -0.05646990
         9         9         1         1       117        91     -0.07098069
         9         9         1         1       117       112     -0.06783437
         9         9         1         1       117       124     -0.05533207
         9         9         1         1       121        36      0.06334793
         9         9         1         1       121        51      0.08646755
         9         9         1         1       121        53      0.05858103
         9         9         1         1       121        59     -0.16200693
         9         9         1         1       121        60     -0.06390452
         9         9         1         1       121        77     -0.08348480
         9         9         1         1       121        79     -0.09928000
         9         9         1         1       121        81     -0.15418977
         9         9         1         1       121        82      0.11382430
         9         9         1         1       121        83      0.07331597
         9         9         1         1       121        84      0.09554043
         9         9         1         1       121        91     -0.28001220
         9         9         1         1       121        92      0.06837986
         9         9         1         1       121       112     -0.28212857
         9         9         1         1       121       121     -0.05407978
         9         9         1         1       121       124     -0.22909044
         9         9         1         1       121       127     -0.13010456
         9         9         1         1       121       133     -0.05512201
         9         9         1         1       123        91      0.07347965
         9         9         1         1       123       112      0.07275386
         9         9         1         1       123       124      0.05828589
         9         9         1         1       124        37     -0.06036211
         9         9         1         1       124        51      0.06978296
         9         9         1         1       124        59     -0.09814176
         9         9         1         1       124        60     -0.06063745
         9         9         1         1       124        63      0.14142193
         9         9         1         1       124        67     -0.06945212
         9         9         1         1       124        68     -0.06123188
         9         9         1         1       124        77     -0.10100698
         9         9         1         1       124        81     -0.09047335
         9         9         1         1       124        82      0.07946499
         9         9         1         1       124        83      0.11412541
         9         9         1         1       124        84      0.05629517
         9         9         1         1       124        88     -0.07923939
         9         9         1         1       124        91     -0.18456028
         9         9         1         1       124        92      0.23201175
         9         9         1         1       124       103     -0.07938024
         9         9         1         1       124       105      0.08420769
         9         9         1         1       124       107     -0.24621716
         9         9         1         1       124       112     -0.17656082
         9         9         1         1       124       117     -0.05533207
         9         9         1         1       124       121     -0.22909044
[...]
        11        11         2         2        85        85     -0.09182282
        11        11         2         2        87        33     -0.05991594
        11        11         2         2        87        39     -0.07983800
        11        11         2         2        87        56      0.08807292
        11        11         2         2        87        62      0.09187314
        11        11         2         2        87        78      0.07082620
        11        11         3         3        10        61     -0.06153032
        11        11         3         3        10        77      0.05246206
        11        11         3         3        15        55     -0.06434844
        11        11         3         3        15        61     -0.08820265
        11        11         3         3        15        77      0.07521644
        11        11         3         3        15        84      0.05201474
        11        11         3         3        16        61     -0.05398129
        11        11         3         3        21        55      0.10796030
        11        11         3         3        21        61      0.15526769
        11        11         3         3        21        77     -0.13884715
        11        11         3         3        21        84     -0.09693617
        11        11         3         3        32        38      0.06081100
        11        11         3         3        32        55     -0.13834444
        11        11         3         3        32        56     -0.06004641
        11        11         3         3        32        61     -0.19989689
        11        11         3         3        32        77      0.17972568
        11        11         3         3        32        84      0.12821117
        11        11         3         3        32        86      0.05871125
        11        11         3         3        33        55      0.06857160
        11        11         3         3        33        61      0.09673672
        11        11         3         3        33        77     -0.08590790
        11        11         3         3        33        84     -0.06076979
        11        11         3         3        38        32      0.06081100
        11        11         3         3        38        38     -0.12490233
        11        11         3         3        38        39      0.07026608
        11        11         3         3        38        55      0.20285045
        11        11         3         3        38        56      0.08814389
        11        11         3         3        38        61      0.27039728
        11        11         3         3        38        77     -0.23701381
        11        11         3         3        38        78      0.05661699
        11        11         3         3        38        84     -0.16678775
        11        11         3         3        38        86     -0.07734425
        11        11         3         3        39        38      0.07026608
        11        11         3         3        39        55     -0.09809552
        11        11         3         3        39        61     -0.12095712
        11        11         3         3        39        77      0.10235306
        11        11         3         3        39        84      0.07081198
        11        11         3         3        55        15     -0.06434844
        11        11         3         3        55        21      0.10796030
        11        11         3         3        55        32     -0.13834444
        11        11         3         3        55        33      0.06857160
        11        11         3         3        55        38      0.20285045
        11        11         3         3        55        39     -0.09809552
        11        11         3         3        55        55     -0.26913852
        11        11         3         3        55        56     -0.11545998
        11        11         3         3        55        61     -0.32232639
        11        11         3         3        55        77      0.27033964
        11        11         3         3        55        78     -0.06453769
        11        11         3         3        55        84      0.18695828
        11        11         3         3        55        86      0.08751121
        11        11         3         3        56        32     -0.06004641
        11        11         3         3        56        38      0.08814389
        11        11         3         3        56        55     -0.11545998
        11        11         3         3        56        56     -0.05069258
        11        11         3         3        56        61     -0.13833369
        11        11         3         3        56        77      0.11581535
        11        11         3         3        56        84      0.08002957
        11        11         3         3        61        10     -0.06153032
        11        11         3         3        61        15     -0.08820265
        11        11         3         3        61        16     -0.05398129
        11        11         3         3        61        21      0.15526769
        11        11         3         3        61        32     -0.19989689
        11        11         3         3        61        33      0.09673672
        11        11         3         3        61        38      0.27039728
        11        11         3         3        61        39     -0.12095712
        11        11         3         3        61        55     -0.32232639
        11        11         3         3        61        56     -0.13833369
        11        11         3         3        61        61     -0.36331842
        11        11         3         3        61        77      0.29143537
        11        11         3         3        61        78     -0.06954455
        11        11         3         3        61        84      0.19658636
        11        11         3         3        61        86      0.09321586
        11        11         3         3        77        10      0.05246206
        11        11         3         3        77        15      0.07521644
        11        11         3         3        77        21     -0.13884715
        11        11         3         3        77        32      0.17972568
        11        11         3         3        77        33     -0.08590790
        11        11         3         3        77        38     -0.23701381
        11        11         3         3        77        39      0.10235306
        11        11         3         3        77        55      0.27033964
        11        11         3         3        77        56      0.11581535
        11        11         3         3        77        61      0.29143537
        11        11         3         3        77        77     -0.22652243
        11        11         3         3        77        78      0.05392449
        11        11         3         3        77        84     -0.14804346
        11        11         3         3        77        86     -0.07108222
        11        11         3         3        78        38      0.05661699
        11        11         3         3        78        55     -0.06453769
        11        11         3         3        78        61     -0.06954455
        11        11         3         3        78        77      0.05392449
        11        11         3         3        84        15      0.05201474
        11        11         3         3        84        21     -0.09693617
        11        11         3         3        84        32      0.12821117
        11        11         3         3        84        33     -0.06076979
        11        11         3         3        84        38     -0.16678775
        11        11         3         3        84        39      0.07081198
        11        11         3         3        84        55      0.18695828
        11        11         3         3        84        56      0.08002957
        11        11         3         3        84        61      0.19658636
        11        11         3         3        84        77     -0.14804346
        11        11         3         3        84        84     -0.09422940
        11        11         3         3        86        32      0.05871125
        11        11         3         3        86        38     -0.07734425
        11        11         3         3        86        55      0.08751121
        11        11         3         3        86        61      0.09321586
        11        11         3         3        86        77     -0.07108222
        12         9         1         1        91        91      0.05394184
         9        12         1         1        91        91      0.05394184
        12        10         1         1        91       125     -0.05527438
        12        10         1         1       112       125     -0.05399541
        12        10         1         1       125        91     -0.05513926
        12        10         1         1       125       112     -0.05381197
        10        12         1         1        91       125     -0.05513926
        10        12         1         1       112       125     -0.05381197
        10        12         1         1       125        91     -0.05527438
        10        12         1         1       125       112     -0.05399541
        12        11         1         1        27        91     -0.05027932
        12        11         1         1        36        36     -0.06021834
        12        11         1         1        36        51     -0.06148067
        12        11         1         1        36        59      0.07339918
        12        11         1         1        36        60      0.05033828
        12        11         1         1        36        77      0.05517422
        12        11         1         1        36        82     -0.06772477
        12        11         1         1        36        91      0.09475754
        12        11         1         1        36       107      0.07585953
        12        11         1         1        36       112      0.07100310
        12        11         1         1        36       125      0.07433742
        12        11         1         1        49        91      0.06657527
        12        11         1         1        49       112      0.05306203
        12        11         1         1        50        59     -0.05098338
        12        11         1         1        51        36     -0.06301372
        12        11         1         1        51        51     -0.06858077
        12        11         1         1        51        59      0.08587280
        12        11         1         1        51        60      0.05925653
        12        11         1         1        51        77      0.06008892
        12        11         1         1        51        81      0.06498686
        12        11         1         1        51        82     -0.07266110
        12        11         1         1        51        83     -0.05429190
        12        11         1         1        51        91      0.11599055
        12        11         1         1        51        92     -0.05274774
        12        11         1         1        51       107      0.07598601
        12        11         1         1        51       112      0.09123588
        12        11         1         1        51       124      0.06264142
        12        11         1         1        51       125      0.07513320
        12        11         1         1        59        36      0.07304462
        12        11         1         1        59        51      0.08313682
        12        11         1         1        59        59     -0.11062829
        12        11         1         1        59        60     -0.07244989
        12        11         1         1        59        63      0.06078373
        12        11         1         1        59        77     -0.07705293
        12        11         1         1        59        81     -0.09017326
        12        11         1         1        59        82      0.09153666
        12        11         1         1        59        83      0.07280545
        12        11         1         1        59        91     -0.16041773
        12        11         1         1        59        92      0.08745832
        12        11         1         1        59       107     -0.09740449
        12        11         1         1        59       112     -0.13307478
        12        11         1         1        59       121     -0.05587542
        12        11         1         1        59       124     -0.09342634
        12        11         1         1        59       125     -0.09960337
        12        11         1         1        59       131     -0.05891801
        12        11         1         1        60        36      0.05594387
        12        11         1         1        60        51      0.06410059
        12        11         1         1        60        59     -0.08270575
        12        11         1         1        60        77     -0.05347000
        12        11         1         1        60        81     -0.06028471
        12        11         1         1        60        82      0.06211146
        12        11         1         1        60        83      0.05467458
        12        11         1         1        60        91     -0.10432222
        12        11         1         1        60       107     -0.06971766
        12        11         1         1        60       112     -0.08263083
        12        11         1         1        60       124     -0.05723964
        12        11         1         1        60       125     -0.07032747
        12        11         1         1        63        59      0.06472911
        12        11         1         1        63        81      0.05452098
        12        11         1         1        63        91      0.08492449
        12        11         1         1        63       112      0.07330009
        12        11         1         1        63       124      0.05050280
        12        11         1         1        77        36      0.05198566
        12        11         1         1        77        51      0.05602654
        12        11         1         1        77        59     -0.07420440
        12        11         1         1        77        81     -0.06180566
        12        11         1         1        77        82      0.06034156
        12        11         1         1        77        91     -0.10907853
        12        11         1         1        77       107     -0.05116334
        12        11         1         1        77       112     -0.09286574
        12        11         1         1        77       124     -0.06698267
        12        11         1         1        77       125     -0.05185590
        12        11         1         1        79        91     -0.05451806
        12        11         1         1        81        36      0.05403386
        12        11         1         1        81        51      0.06688036
        12        11         1         1        81        59     -0.09641766
        12        11         1         1        81        60     -0.05392796
        12        11         1         1        81        63      0.05375031
        12        11         1         1        81        77     -0.06615691
        12        11         1         1        81        81     -0.08059961
        12        11         1         1        81        82      0.07402741
        12        11         1         1        81        83      0.06490415
        12        11         1         1        81        91     -0.14436455
        12        11         1         1        81        92      0.07975749
        12        11         1         1        81       107     -0.08492515
        12        11         1         1        81       112     -0.12405688
        12        11         1         1        81       121     -0.05471448
        12        11         1         1        81       124     -0.08953587
        12        11         1         1        81       125     -0.09037661
        12        11         1         1        81       131     -0.05570460
        12        11         1         1        82        36     -0.06588049
        12        11         1         1        82        51     -0.07159221
        12        11         1         1        82        59      0.09179543
        12        11         1         1        82        60      0.05904126
        12        11         1         1        82        77      0.06283617
        12        11         1         1        82        81      0.07359766
        12        11         1         1        82        82     -0.07672279
        12        11         1         1        82        83     -0.06503287
        12        11         1         1        82        91      0.13480997
        12        11         1         1        82        92     -0.06271143
        12        11         1         1        82       107      0.08814096
        12        11         1         1        82       112      0.11391299
        12        11         1         1        82       124      0.08226909
        12        11         1         1        82       125      0.09315128
        12        11         1         1        82       131      0.05719609
        12        11         1         1        83        51     -0.05606200
        12        11         1         1        83        59      0.07729672
        12        11         1         1        83        60      0.05043159
        12        11         1         1        83        81      0.06707178
        12        11         1         1        83        82     -0.06582427
        12        11         1         1        83        83     -0.05572695
        12        11         1         1        83        91      0.12133750
        12        11         1         1        83       107      0.05786949
        12        11         1         1        83       112      0.10460915
        12        11         1         1        83       124      0.07535795
        12        11         1         1        83       125      0.05809060
        12        11         1         1        84        91      0.05825313
        12        11         1         1        84       112      0.05188292
        12        11         1         1        91        27     -0.05088171
        12        11         1         1        91        36      0.09656585
        12        11         1         1        91        49      0.07023794
        12        11         1         1        91        51      0.11544206
        12        11         1         1        91        59     -0.16588255
        12        11         1         1        91        60     -0.09291638
        12        11         1         1        91        63      0.08335053
        12        11         1         1        91        68     -0.05199965
        12        11         1         1        91        77     -0.11339416
        12        11         1         1        91        79     -0.05230349
        12        11         1         1        91        81     -0.14235201
        12        11         1         1        91        82      0.13325660
        12        11         1         1        91        83      0.11656560
        12        11         1         1        91        84      0.07029383
        12        11         1         1        91        91     -0.26418561
        12        11         1         1        91        92      0.13531267
        12        11         1         1        91       107     -0.15338558
        12        11         1         1        91       112     -0.23590410
        12        11         1         1        91       121     -0.09806350
