
 Primary working directories    : /global/cscratch1/sd/bkincaid
 Secondary working directories  : /global/cscratch1/sd/bkincaid
 Wavefunction directory         : /global/homes/b/bkincaid/wfu/
 Main file repository           : /global/cscratch1/sd/bkincaid/

 SHA1      : 19cd028119e0e09f93f0674bd8af7968d9b3eff6
 NAME      : 2015.1.36
 ARCHNAME  : linux/x86_64
 FC        : /opt/cray/pe/craype/2.5.14/bin/ftn
 BLASLIB   : -L/opt/intel/compilers_and_libraries_2018.1.163/linux/mkl/lib/intel64 -Wl,-_start-group -lmkl_intel_ilp64 -lmkl_intel_thread -lmkl_core -Wl,-_end-group -liomp5
 id        : lbl

 Nodes     nprocs
 nid00750    23
 Number of processes for MPI-2 version of Molpro:   nprocs(total)=   24   nprocs(compute)=   23   nprocs(helper)=    1

 Using customized tuning parameters: mindgm=7; mindgv=16; mindgc=1; mindgr=1; noblas=0; minvec=7
 default implementation of scratch files=sf  

 ***,Calculation for PdO groundstate
 memory,512,m
 gthresh,twoint=1.0E-12
 gthresh,throvl=1.0E-12
                                                                                 !symmetry,nosym
 
 set,dkroll=1,dkho=10,dkhp=4
 
 basis={
 Including file /global/u1/b/bkincaid/molpro/Pd/molecules/PdO/5z/ae/1.785/c-Pd-aug-cc-pwCVTZ.basis
 Including file /global/u1/b/bkincaid/molpro/Pd/molecules/PdO/5z/ae/1.785/c-O-aug-cc-CVTZ.basis
 }
 
 OE=-75.09181489
 PdE=-5044.366379
 
 ne = 54
 geometry={
         2
         PdO
         Pd 0.0 0.0 0.0
         O 0.0 0.0 1.785
 }
 
 A1=14
 B1=6
 B2=6
 A2=2
 
 {rks,pbe0
 wf,nele=ne,spin=2,sym=2
 occ,A1,B1,B2,A2
 closed,A1-1,B1-1,B2,A2
 }
 
 {rhf
 wf,nelec=ne,spin=2,sym=2
 occ,A1,B1,B2,A2
 closed,A1-1,B1-1,B2,A2
 }
 
 basis={
 Including file /global/u1/b/bkincaid/molpro/Pd/molecules/PdO/5z/ae/1.785/5z.basis
 Including file /global/u1/b/bkincaid/molpro/Pd/molecules/PdO/5z/ae/1.785/O-aug-cc-pV5Z.basis
 }
 
 {rhf
 wf,nelec=ne,spin=2,sym=2
 occ,A1,B1,B2,A2
 closed,A1-1,B1-1,B2,A2
 }
 
 scf=energy
 
 _CC_NORM_MAX=2.0
 {rccsd(t);maxit,100;core}
 ccsd=energy
 
 BE = ccsd - PdE - OE
 
 table,scf,ccsd
 save
 type,csv

 Variables initialized (889), CPU time= 0.01 sec
 Commands  initialized (702), CPU time= 0.01 sec, 572 directives.
 Default parameters read. Elapsed time= 0.15 sec

 Checking input...
 Passed
1


                                         ***  PROGRAM SYSTEM MOLPRO  ***
                                       Copyright, TTI GmbH Stuttgart, 2015
                                    Version 2015.1 linked Dec 29 2018 15:55:43


 **********************************************************************************************************************************
 LABEL *   Calculation for PdO groundstate                                               
  64 bit mpp version                                                                     DATE: 30-Mar-21          TIME: 03:08:54  
 **********************************************************************************************************************************

 SHA1:             19cd028119e0e09f93f0674bd8af7968d9b3eff6
 **********************************************************************************************************************************

 THRESHOLDS:

 ZERO    =  1.00D-12  ONEINT  =  1.00D-12  TWOINT  =  1.00D-12  PREFAC  =  1.00D-14  LOCALI  =  1.00D-09  EORDER  =  1.00D-04
 ENERGY  =  0.00D+00  ETEST   =  0.00D+00  EDENS   =  0.00D+00  THRDEDEF=  1.00D-06  GRADIENT=  1.00D-02  STEP    =  1.00D-03
 ORBITAL =  1.00D-05  CIVEC   =  1.00D-05  COEFF   =  1.00D-04  PRINTCI =  5.00D-02  PUNCHCI =  9.90D+01  OPTGRAD =  3.00D-04
 OPTENERG=  1.00D-06  OPTSTEP =  3.00D-04  THRGRAD =  1.00D-10  COMPRESS=  1.00D-11  VARMIN  =  1.00D-07  VARMAX  =  1.00D-03
 THRDOUB =  0.00D+00  THRDIV  =  1.00D-05  THRRED  =  1.00D-07  THRPSP  =  1.00D+00  THRDC   =  1.00D-10  THRCS   =  1.00D-10
 THRNRM  =  1.00D-08  THREQ   =  0.00D+00  THRDE   =  1.00D+00  THRREF  =  1.00D-05  SPARFAC =  1.00D+00  THRDLP  =  1.00D-07
 THRDIA  =  1.00D-10  THRDLS  =  1.00D-07  THRGPS  =  0.00D+00  THRKEX  =  0.00D+00  THRDIS  =  2.00D-01  THRVAR  =  1.00D-10
 THRLOC  =  1.00D-06  THRGAP  =  1.00D-06  THRLOCT = -1.00D+00  THRGAPT = -1.00D+00  THRORB  =  1.00D-06  THRMLTP =  0.00D+00
 THRCPQCI=  1.00D-10  KEXTA   =  0.00D+00  THRCOARS=  0.00D+00  SYMTOL  =  1.00D-06  GRADTOL =  1.00D-06  THROVL  =  1.00D-08
 THRORTH =  1.00D-08  GRID    =  1.00D-06  GRIDMAX =  1.00D-03  DTMAX   =  0.00D+00  THROCCDE=  1.00D-01  THROCCDE=  1.00D-01



 THRESHOLDS:

 ZERO    =  1.00D-12  ONEINT  =  1.00D-12  TWOINT  =  1.00D-12  PREFAC  =  1.00D-14  LOCALI  =  1.00D-09  EORDER  =  1.00D-04
 ENERGY  =  0.00D+00  ETEST   =  0.00D+00  EDENS   =  0.00D+00  THRDEDEF=  1.00D-06  GRADIENT=  1.00D-02  STEP    =  1.00D-03
 ORBITAL =  1.00D-05  CIVEC   =  1.00D-05  COEFF   =  1.00D-04  PRINTCI =  5.00D-02  PUNCHCI =  9.90D+01  OPTGRAD =  3.00D-04
 OPTENERG=  1.00D-06  OPTSTEP =  3.00D-04  THRGRAD =  1.00D-10  COMPRESS=  1.00D-11  VARMIN  =  1.00D-07  VARMAX  =  1.00D-03
 THRDOUB =  0.00D+00  THRDIV  =  1.00D-05  THRRED  =  1.00D-07  THRPSP  =  1.00D+00  THRDC   =  1.00D-10  THRCS   =  1.00D-10
 THRNRM  =  1.00D-08  THREQ   =  0.00D+00  THRDE   =  1.00D+00  THRREF  =  1.00D-05  SPARFAC =  1.00D+00  THRDLP  =  1.00D-07
 THRDIA  =  1.00D-10  THRDLS  =  1.00D-07  THRGPS  =  0.00D+00  THRKEX  =  0.00D+00  THRDIS  =  2.00D-01  THRVAR  =  1.00D-10
 THRLOC  =  1.00D-06  THRGAP  =  1.00D-06  THRLOCT = -1.00D+00  THRGAPT = -1.00D+00  THRORB  =  1.00D-06  THRMLTP =  0.00D+00
 THRCPQCI=  1.00D-10  KEXTA   =  0.00D+00  THRCOARS=  0.00D+00  SYMTOL  =  1.00D-06  GRADTOL =  1.00D-06  THROVL  =  1.00D-12
 THRORTH =  1.00D-08  GRID    =  1.00D-06  GRIDMAX =  1.00D-03  DTMAX   =  0.00D+00  THROCCDE=  1.00D-01  THROCCDE=  1.00D-01


 SETTING DKROLL         =         1.00000000                                  
 SETTING DKHO           =        10.00000000                                  
 SETTING DKHP           =         4.00000000                                  

 Variable memory set to  512000000 words,  buffer space   230000 words

 SETTING BASIS          =    USERDEF
 SETTING OE             =       -75.09181489                                  
 SETTING PDE            =     -5044.36637900                                  
 SETTING NE             =        54.00000000                                  

Geometry recognized as XYZ

 SETTING A1             =        14.00000000                                  
 SETTING B1             =         6.00000000                                  
 SETTING B2             =         6.00000000                                  
 SETTING A2             =         2.00000000                                  


 Recomputing integrals since basis changed


 Using spherical harmonics



 PROGRAM * SEWARD (Integral evaluation for generally contracted gaussian basis sets)     Author: Roland Lindh, 1990

 Geometry written to block  1 of record 700


 Point group  C2v 



 ATOMIC COORDINATES

 NR  ATOM    CHARGE       X              Y              Z

   1  PD     46.00    0.000000000    0.000000000    0.000000000
   2  O       8.00    0.000000000    0.000000000    3.373161132

 Bond lengths in Bohr (Angstrom)

 1-2  3.373161132
     ( 1.785000000)

 NUCLEAR CHARGE:                   54
 NUMBER OF PRIMITIVE AOS:         355
 NUMBER OF SYMMETRY AOS:          299
 NUMBER OF CONTRACTIONS:          182   (  73A1  +  43B1  +  43B2  +  23A2  )
 NUMBER OF CORE ORBITALS:          19   (  10A1  +   4B1  +   4B2  +   1A2  )
 NUMBER OF VALENCE ORBITALS:       10   (   5A1  +   2B1  +   2B2  +   1A2  )


 NUCLEAR REPULSION ENERGY  109.09647822

 One-electron integrals computed with SEWARD

 10nd-order Douglas-Kroll-Hess method activated. McWeeny DKH parametrization is used.

 Computing Douglas-Kroll / X2C integrals

 AO integral compression algorithm  1   Integral accuracy      1.0D-12

     162.529 MB (compressed) written to integral file ( 48.9%)

     Node minimum: 2.359 MB, node maximum: 11.534 MB


 NUMBER OF SORTED TWO-ELECTRON INTEGRALS:    1551252.     BUFFER LENGTH:  32768
 NUMBER OF SEGMENTS:   1  SEGMENT LENGTH:    1551252      RECORD LENGTH: 524288

 Memory used in sort:       2.11 MW

 SORT1 READ    41520926. AND WROTE     1010534. INTEGRALS IN      3 RECORDS. CPU TIME:     0.68 SEC, REAL TIME:     0.72 SEC
 SORT2 READ    23498263. AND WROTE    35715180. INTEGRALS IN    690 RECORDS. CPU TIME:     0.14 SEC, REAL TIME:     0.24 SEC

 Node minimum:     1548720.  Node maximum:     1570662. integrals

 OPERATOR DM      FOR CENTER  0  COORDINATES:    0.000000    0.000000    0.000000

 EXTRA SYMMETRY OF AOS IN SYMMETRY 1:   1 1 1 1 1 1 1 1 1 1   1 1 1 1 1 1 1 1 1 1   1 1 2 1 2 1 2 1 2 1   2 1 2 1 2 1 2 1 2 1
                                        2 1 2 1 2 1 3 2 1 3   2 1 3 2 1 1 1 1 1 1   1 1 1 1 2 1 2 1 2 1   2 1 2
 EXTRA SYMMETRY OF AOS IN SYMMETRY 2:   1 1 1 1 1 1 1 1 1 1   1 1 1 1 1 1 1 1 1 2   1 2 1 2 1 2 1 2 1 2   1 2 1 1 1 1 1 1 1 1
                                        2 1 2
 EXTRA SYMMETRY OF AOS IN SYMMETRY 3:   1 1 1 1 1 1 1 1 1 1   1 1 1 1 1 1 1 1 1 2   1 2 1 2 1 2 1 2 1 2   1 2 1 1 1 1 1 1 1 1
                                        2 1 2
 EXTRA SYMMETRY OF AOS IN SYMMETRY 4:   1 1 1 1 1 1 1 1 1 1   1 1 1 2 1 2 1 2 1 1   1 1 1

 Eigenvalues of metric

         1 0.104E-03 0.244E-03 0.356E-03 0.673E-03 0.154E-02 0.158E-02 0.341E-02 0.456E-02
         2 0.640E-03 0.156E-02 0.197E-02 0.100E-01 0.243E-01 0.378E-01 0.465E-01 0.492E-01
         3 0.640E-03 0.156E-02 0.197E-02 0.100E-01 0.243E-01 0.378E-01 0.465E-01 0.492E-01
         4 0.158E-02 0.224E-01 0.858E-01 0.102E+00 0.126E+00 0.148E+00 0.198E+00 0.315E+00


 **********************************************************************************************************************************
 DATASETS  * FILE   NREC   LENGTH (MB)   RECORD NAMES
              1      22       20.91       500      610      700      900      950      970     1000      129      960     1700   
                                          VAR    BASINP    GEOM    SYMINP    ZMAT    AOBASIS   BASIS     P2S    ABASIS    OPER   
                                         1101     1401     1411     1412     1650     1100     1400     1410     1200     1210   
                                          SR      EKINR    POTR     PVPR    MOLCAS      S      EKIN      POT      H0       H01  
                                         1080     1600   
                                         AOSYM     SMH  

 PROGRAMS   *        TOTAL       INT
 CPU TIMES  *         7.58      7.19
 REAL TIME  *         8.92 SEC
 DISK USED  *       432.01 MB      
 GA USED    *         0.00 MB       (max)       0.00 MB       (current)
 **********************************************************************************************************************************

 Density functional group PBE0=PBEX+PBEC
 Functional: PBEX(Automatically generated (new) PBEX)                          Gradient terms: 1
 Functional: PBEC(Automatically generated (new) PBEC)                          Gradient terms: 1
 Use grid at  1800.2
 

 Exact exchange will be calculated, factor:  0.2500

 Functional: PBEX                      Factor:  0.7500
 Functional: PBEC                      Factor:  1.0000
 
 Generated new metagrid on record  1800.2 with target accuracy 1.0D-06 and 5159 points in CPU time    0.0
 Computed new grid on record 1800.1 in CPU time    0.0
  152282 words reserved for DFT integration

 PROGRAM * RKS-SCF (Restricted open shell Kohn-Sham)     Authors: W. Meyer, H.-J. Werner, P.J. Knowles, 1993

 NUMBER OF ELECTRONS:      28+   26-    SPACE SYMMETRY=2    SPIN SYMMETRY: Triplet 
 CONVERGENCE THRESHOLDS:    1.00E-05 (Density)    1.08E-06 (Energy)
 MAX. NUMBER OF ITERATIONS:       60
 INTERPOLATION TYPE:            DIIS
 INTERPOLATION STEPS:              2 (START)      1 (STEP)
 LEVEL SHIFTS:                 -0.60 (CLOSED) -0.30 (OPEN) 

 Number of closed-shell orbitals:   26 (  13   5   6   2 )
 Number of open-shell orbitals:      2 (   1   1   0   0 )


 Use fine grid record 1800.2 for energy threshold  1.0D-06
 Orbital guess generated from atomic densities. Full valence occupancy:   15   6   6   2

 Molecular orbital dump at record        2100.2

 ITERATION    DDIFF          GRAD             ENERGY        2-EL.EN.            DIPOLE MOMENTS         DIIS   ORB.
    1      0.000D+00      0.000D+00     -5099.64575258   3787.885858    0.00000    0.00000   -9.57248    0    start
    2      0.000D+00      0.772D-01     -5092.32893531   4832.104451    0.00000    0.00000   18.01551    1    diag,B
    3      0.636D+00      0.193D+00     -5112.88752530   4614.345876    0.00000    0.00000    5.53875    2    diag,B
    4      0.528D-01      0.105D+00     -5115.87072095   4538.835397    0.00000    0.00000    4.91838    3    diag,B
    5      0.159D-01      0.756D-01     -5118.74708461   4465.935556    0.00000    0.00000    1.01525    4    diag,B
    6      0.206D-01      0.449D-01     -5119.72904884   4403.846252    0.00000    0.00000    0.33897    5    diag,B
    7      0.123D-01      0.226D-01     -5120.19102436   4343.669769    0.00000    0.00000   -1.31458    6    fixocc
    8      0.121D-01      0.298D-02     -5120.21257522   4332.226659    0.00000    0.00000   -1.57992    7    diag,B
    9      0.427D-02      0.105D-02     -5120.21644003   4330.129836    0.00000    0.00000   -1.68393    8    diag,B
   10      0.202D-02      0.950D-03     -5120.21924926   4329.792547    0.00000    0.00000   -1.64662    9    orth
   11      0.139D-02      0.512D-03     -5120.22078390   4329.768022    0.00000    0.00000   -1.63092    9    diag,B
   12      0.107D-02      0.231D-03     -5120.22154593   4329.550924    0.00000    0.00000   -1.61009    9    diag,B
   13      0.925D-03      0.923D-04     -5120.22174068   4329.504215    0.00000    0.00000   -1.59652    9    diag,B
   14      0.488D-03      0.366D-04     -5120.22177849   4329.444608    0.00000    0.00000   -1.59292    9    diag,B
   15      0.206D-03      0.215D-04     -5120.22179147   4329.444910    0.00000    0.00000   -1.59002    9    diag,B
   16      0.134D-03      0.128D-04     -5120.22179556   4329.442831    0.00000    0.00000   -1.58879    9    diag,B
   17      0.810D-04      0.578D-05     -5120.22179635   4329.441897    0.00000    0.00000   -1.58784    9    diag,B
   18      0.404D-04      0.344D-05     -5120.22179651   4329.443844    0.00000    0.00000   -1.58817    9    diag,B
   19      0.184D-04      0.165D-05     -5120.22179653   4329.443520    0.00000    0.00000   -1.58793    9    diag,B
   20      0.500D-05      0.103D-05     -5120.22179654   4329.441986    0.00000    0.00000   -1.58806    0    orth

 Final alpha occupancy:  14   6   6   2
 Final beta  occupancy:  13   5   6   2

 !RKS STATE 1.2 Energy              -5120.221796538483
 Nuclear energy                       109.09647822
 One-electron energy                -7278.27657953
 Two-electron energy                 2164.72099299
 Density functional                  -115.76268822     PBEX=-150.78883592 PBEC=  -2.67106128
 Virial quotient                       -0.88774226
 !RKS STATE 1.2 Dipole moment           0.00000000     0.00000000    -1.58805632
 Dipole moment /Debye                   0.00000000     0.00000000    -4.03617219

 Orbital energies:

         1.1          2.1          3.1          4.1          5.1          6.1          7.1          8.1          9.1         10.1
   -889.970894  -130.846588  -117.314502   -24.040924   -19.563385   -19.228496   -12.416256   -12.404572    -3.455250    -2.170227

        11.1         12.1         13.1         14.1         15.1         16.1
     -0.913742    -0.393526    -0.302631    -0.255084    -0.091652     0.015635

         1.2          2.2          3.2          4.2          5.2          6.2          7.2          8.2
   -117.309211   -19.551508   -12.414677    -2.145952    -0.359959    -0.306238    -0.005894     0.040990

         1.3          2.3          3.3          4.3          5.3          6.3          7.3          8.3
   -117.307264   -19.546775   -12.411707    -2.140490    -0.370914    -0.242947    -0.003130     0.042320

         1.4          2.4          3.4          4.4
    -12.404833    -0.302672     0.069753     0.254068

 HOMO      6.3    -0.242947 =      -6.6109eV
 LUMO     15.1    -0.091652 =      -2.4940eV
 LUMO-HOMO         0.151295 =       4.1169eV


 **********************************************************************************************************************************
 DATASETS  * FILE   NREC   LENGTH (MB)   RECORD NAMES
              1      23       20.91       500      610      700      900      950      970     1000      129      960     1700   
                                          VAR    BASINP    GEOM    SYMINP    ZMAT    AOBASIS   BASIS     P2S    ABASIS    OPER   
                                         1101     1401     1411     1412     1650     1100     1400     1410     1200     1210   
                                          SR      EKINR    POTR     PVPR    MOLCAS      S      EKIN      POT      H0       H01  
                                         1080     1600     1800   
                                         AOSYM     SMH     GRID   

              2       5        3.08       700     1000      520     1800     2100   
                                         GEOM     BASIS   MCVARS    GRID      RKS  

 PROGRAMS   *        TOTAL       RKS       INT
 CPU TIMES  *        10.03      2.45      7.19
 REAL TIME  *        11.66 SEC
 DISK USED  *         1.02 GB      
 SF USED    *         0.04 MB      
 GA USED    *         0.23 MB       (max)       0.23 MB       (current)
 **********************************************************************************************************************************


 PROGRAM * RHF-SCF (OPEN SHELL)       Authors: W. Meyer, H.-J. Werner


 NUMBER OF ELECTRONS:      28+   26-    SPACE SYMMETRY=2    SPIN SYMMETRY: Triplet 
 CONVERGENCE THRESHOLDS:    1.00E-05 (Density)    1.08E-07 (Energy)
 MAX. NUMBER OF ITERATIONS:       60
 INTERPOLATION TYPE:            DIIS
 INTERPOLATION STEPS:              2 (START)      1 (STEP)
 LEVEL SHIFTS:                 -0.60 (CLOSED) -0.30 (OPEN) 

 Number of closed-shell orbitals:   26 (  13   5   6   2 )
 Number of open-shell orbitals:      2 (   1   1   0   0 )


 Molecular orbitals read from record     2100.2  Type=RKS/CANONICAL (state 1.2)

 Molecular orbital dump at record        2101.2

 ITERATION    DDIFF          GRAD             ENERGY        2-EL.EN.            DIPOLE MOMENTS         DIIS   ORB.
    1      0.000D+00      0.000D+00     -5117.66080526   4103.038592    0.00000    0.00000   -1.58806    0    start
    2      0.000D+00      0.117D-01     -5117.68767276   4103.917166    0.00000    0.00000   -1.69202    1    diag,B
    3      0.743D-02      0.142D-02     -5117.69660956   4104.705699    0.00000    0.00000   -1.76088    2    diag,B
    4      0.144D-02      0.847D-03     -5117.70402565   4105.107488    0.00000    0.00000   -1.80554    3    diag,B
    5      0.131D-02      0.648D-03     -5117.71114876   4105.228806    0.00000    0.00000   -1.88318    4    diag,B
    6      0.178D-02      0.420D-03     -5117.71336253   4105.544184    0.00000    0.00000   -1.91164    5    diag,B
    7      0.950D-03      0.252D-03     -5117.71419330   4105.206015    0.00000    0.00000   -1.94740    6    diag,B
    8      0.685D-03      0.143D-03     -5117.71437559   4105.288029    0.00000    0.00000   -1.95682    7    orth
    9      0.248D-03      0.818D-04     -5117.71448002   4105.218403    0.00000    0.00000   -1.97068    8    diag,B
   10      0.250D-03      0.456D-04     -5117.71450999   4105.230734    0.00000    0.00000   -1.97688    9    diag,B
   11      0.142D-03      0.227D-04     -5117.71451876   4105.222112    0.00000    0.00000   -1.98053    9    diag,B
   12      0.833D-04      0.131D-04     -5117.71452164   4105.233383    0.00000    0.00000   -1.98109    9    diag,B
   13      0.377D-04      0.935D-05     -5117.71452377   4105.236667    0.00000    0.00000   -1.98176    9    diag,B
   14      0.339D-04      0.648D-05     -5117.71452522   4105.243560    0.00000    0.00000   -1.98214    9    diag,B
   15      0.306D-04      0.470D-05     -5117.71452607   4105.246837    0.00000    0.00000   -1.98233    9    diag,B
   16      0.243D-04      0.364D-05     -5117.71452666   4105.249069    0.00000    0.00000   -1.98225    9    diag,B
   17      0.211D-04      0.267D-05     -5117.71452703   4105.249920    0.00000    0.00000   -1.98220    9    diag,B
   18      0.194D-04      0.188D-05     -5117.71452725   4105.249559    0.00000    0.00000   -1.98204    9    orth
   19      0.202D-04      0.949D-06     -5117.71452728   4105.249434    0.00000    0.00000   -1.98198    9    diag,B
   20      0.596D-05      0.558D-06     -5117.71452728   4105.249038    0.00000    0.00000   -1.98200    0    orth

 Final alpha occupancy:  14   6   6   2
 Final beta  occupancy:  13   5   6   2

 !RHF STATE 1.2 Energy              -5117.714527282338
 Nuclear energy                       109.09647822
 One-electron energy                -7279.43552455
 Two-electron energy                 2052.62451905
 Virial quotient                       -0.88702814
 !RHF STATE 1.2 Dipole moment           0.00000000     0.00000000    -1.98199619
 Dipole moment /Debye                   0.00000000     0.00000000    -5.03740187

 Orbital energies:

         1.1          2.1          3.1          4.1          5.1          6.1          7.1          8.1          9.1         10.1
   -899.570605  -134.529904  -120.423180   -25.684060   -20.928058   -20.527791   -13.340774   -13.337899    -3.989787    -2.549550

        11.1         12.1         13.1         14.1         15.1         16.1
     -1.169839    -0.503293    -0.448152    -0.396043    -0.006791     0.033813

         1.2          2.2          3.2          4.2          5.2          6.2          7.2          8.2
   -120.419493   -20.913567   -13.349813    -2.539392    -0.487054    -0.518735     0.023146     0.080469

         1.3          2.3          3.3          4.3          5.3          6.3          7.3          8.3
   -120.419279   -20.913000   -13.350428    -2.539048    -0.531909    -0.380971     0.024127     0.082122

         1.4          2.4          3.4          4.4
    -13.340559    -0.448351     0.096001     0.325316

 HOMO      6.3    -0.380971 =     -10.3667eV
 LUMO     15.1    -0.006791 =      -0.1848eV
 LUMO-HOMO         0.374179 =      10.1819eV


 **********************************************************************************************************************************
 DATASETS  * FILE   NREC   LENGTH (MB)   RECORD NAMES
              1      23       20.91       500      610      700      900      950      970     1000      129      960     1700   
                                          VAR    BASINP    GEOM    SYMINP    ZMAT    AOBASIS   BASIS     P2S    ABASIS    OPER   
                                         1101     1401     1411     1412     1650     1100     1400     1410     1200     1210   
                                          SR      EKINR    POTR     PVPR    MOLCAS      S      EKIN      POT      H0       H01  
                                         1080     1600     1800   
                                         AOSYM     SMH     GRID   

              2       6        5.96       700     1000      520     1800     2100     2101   
                                         GEOM     BASIS   MCVARS    GRID      RKS      RHF  

 PROGRAMS   *        TOTAL       RHF       RKS       INT
 CPU TIMES  *        12.16      2.12      2.45      7.19
 REAL TIME  *        13.96 SEC
 DISK USED  *         1.08 GB      
 SF USED    *         0.04 MB      
 GA USED    *         0.23 MB       (max)       0.23 MB       (current)
 **********************************************************************************************************************************
 SETTING BASIS          =    USERDEF


 Recomputing integrals since basis changed


 Using spherical harmonics



 PROGRAM * SEWARD (Integral evaluation for generally contracted gaussian basis sets)     Author: Roland Lindh, 1990

 Geometry written to block  1 of record 700


 Point group  C2v 



 ATOMIC COORDINATES

 NR  ATOM    CHARGE       X              Y              Z

   1  PD     46.00    0.000000000    0.000000000    0.000000000
   2  O       8.00    0.000000000    0.000000000    3.373161132

 Bond lengths in Bohr (Angstrom)

 1-2  3.373161132
     ( 1.785000000)

 NUCLEAR CHARGE:                   54
 NUMBER OF PRIMITIVE AOS:         642
 NUMBER OF SYMMETRY AOS:          471
 NUMBER OF CONTRACTIONS:          471   ( 186A1  + 112B1  + 112B2  +  61A2  )
 NUMBER OF CORE ORBITALS:          19   (  10A1  +   4B1  +   4B2  +   1A2  )
 NUMBER OF VALENCE ORBITALS:       10   (   5A1  +   2B1  +   2B2  +   1A2  )


 NUCLEAR REPULSION ENERGY  109.09647822

 One-electron integrals computed with SEWARD

 10nd-order Douglas-Kroll-Hess method activated. McWeeny DKH parametrization is used.

 Computing Douglas-Kroll / X2C integrals

 AO integral compression algorithm  1   Integral accuracy      1.0D-12

     3578.528 MB (compressed) written to integral file ( 25.4%)

     Node minimum: 102.236 MB, node maximum: 240.910 MB


 NUMBER OF SORTED TWO-ELECTRON INTEGRALS:   68336447.     BUFFER LENGTH:  32768
 NUMBER OF SEGMENTS:   3  SEGMENT LENGTH:   31987523      RECORD LENGTH: 524288

 Memory used in sort:      32.54 MW

 SORT1 READ  1760380706. AND WROTE    28018112. INTEGRALS IN     82 RECORDS. CPU TIME:    38.15 SEC, REAL TIME:    47.59 SEC
 SORT2 READ   647857919. AND WROTE  1570932477. INTEGRALS IN  14007 RECORDS. CPU TIME:     1.64 SEC, REAL TIME:     3.52 SEC

 Node minimum:    68250355.  Node maximum:    68491598. integrals

 OPERATOR DM      FOR CENTER  0  COORDINATES:    0.000000    0.000000    0.000000

 EXTRA SYMMETRY OF AOS IN SYMMETRY 1:   1 1 1 1 1 1 1 1 1 1   1 1 1 1 1 1 1 1 1 1   1 1 1 1 1 1 1 1 1 1   1 1 1 1 1 1 1 1 1 1
                                        1 1 1 1 1 1 1 1 1 1   1 1 1 2 1 2 1 2 1 2   1 2 1 2 1 2 1 2 1 2   1 2 1 2 1 2 1 2 1 2
                                        1 2 1 2 1 2 1 2 1 2   1 2 1 2 1 2 1 3 2 1   3 2 1 3 2 1 3 2 2 3   1 2 3 1 2 3 1 4 3 2
                                        1 4 3 2 1 1 1 1 1 1   1 1 1 1 1 1 1 1 1 1   1 1 1 1 1 1 1 1 1 1   1 1 1 1 2 1 2 1 2 1
                                        2 1 2 1 2 1 2 1 2 1   2 1 3 2 1 3 2 1 3 2   2 3 1 2 3 1
 EXTRA SYMMETRY OF AOS IN SYMMETRY 2:   1 1 1 1 1 1 1 1 1 1   1 1 1 1 1 1 1 1 1 1   1 1 1 1 1 1 1 1 1 1   1 1 1 1 1 1 1 1 1 1
                                        1 2 1 2 1 2 1 2 1 2   1 2 1 2 1 2 1 2 1 2   3 1 2 3 1 2 3 3 2 1   3 2 1 1 1 1 1 1 1 1
                                        1 1 1 1 1 1 1 1 1 1   1 1 1 2 1 2 1 2 1 2   1 2 1 2 1 2 1 2 3 1   2 3
 EXTRA SYMMETRY OF AOS IN SYMMETRY 3:   1 1 1 1 1 1 1 1 1 1   1 1 1 1 1 1 1 1 1 1   1 1 1 1 1 1 1 1 1 1   1 1 1 1 1 1 1 1 1 1
                                        1 2 1 2 1 2 1 2 1 2   1 2 1 2 1 2 1 2 1 2   3 1 2 3 1 2 3 3 2 1   3 2 1 1 1 1 1 1 1 1
                                        1 1 1 1 1 1 1 1 1 1   1 1 1 2 1 2 1 2 1 2   1 2 1 2 1 2 1 2 3 1   2 3
 EXTRA SYMMETRY OF AOS IN SYMMETRY 4:   1 1 1 1 1 1 1 1 1 1   1 1 1 1 1 1 1 1 1 1   1 1 1 2 1 2 1 2 1 2   2 1 2 1 2 1 1 3 2 1
                                        3 2 1 1 1 1 1 1 1 1   1 1 2 1 2 1 2 2 1 2   1

 Eigenvalues of metric

         1 0.255E-07 0.830E-07 0.517E-06 0.823E-06 0.835E-06 0.175E-05 0.583E-05 0.707E-05
         2 0.284E-07 0.760E-06 0.963E-06 0.878E-05 0.169E-04 0.604E-04 0.252E-03 0.449E-03
         3 0.284E-07 0.760E-06 0.963E-06 0.878E-05 0.169E-04 0.604E-04 0.252E-03 0.449E-03
         4 0.947E-05 0.305E-03 0.301E-02 0.103E-01 0.108E-01 0.219E-01 0.288E-01 0.419E-01


 **********************************************************************************************************************************
 DATASETS  * FILE   NREC   LENGTH (MB)   RECORD NAMES
              1      22       24.20       500      610      700      900      950      970     1001      129      960     1700   
                                          VAR    BASINP    GEOM    SYMINP    ZMAT    AOBASIS   BASIS     P2S    ABASIS    OPER   
                                         1101     1401     1411     1412     1650     1100     1400     1410     1200     1210   
                                          SR      EKINR    POTR     PVPR    MOLCAS      S      EKIN      POT      H0       H01  
                                         1080     1600   
                                         AOSYM     SMH  

              2       7        6.16       700     1000      520     1800     2100     2101     1001   
                                         GEOM     BASIS   MCVARS    GRID      RKS      RHF     BASIS   

 PROGRAMS   *        TOTAL       INT       RHF       RKS       INT
 CPU TIMES  *       106.28     94.11      2.12      2.45      7.19
 REAL TIME  *       120.17 SEC
 DISK USED  *        11.99 GB      
 SF USED    *         0.04 MB      
 GA USED    *         0.23 MB       (max)       0.00 MB       (current)
 **********************************************************************************************************************************


 PROGRAM * RHF-SCF (OPEN SHELL)       Authors: W. Meyer, H.-J. Werner


 NUMBER OF ELECTRONS:      28+   26-    SPACE SYMMETRY=2    SPIN SYMMETRY: Triplet 
 CONVERGENCE THRESHOLDS:    1.00E-05 (Density)    1.08E-07 (Energy)
 MAX. NUMBER OF ITERATIONS:       60
 INTERPOLATION TYPE:            DIIS
 INTERPOLATION STEPS:              2 (START)      1 (STEP)
 LEVEL SHIFTS:                 -0.60 (CLOSED) -0.30 (OPEN) 

 Number of closed-shell orbitals:   26 (  13   5   6   2 )
 Number of open-shell orbitals:      2 (   1   1   0   0 )


 Molecular orbitals read from record     2101.2  Type=RHF/CANONICAL (state 1.2)
 
 Present basis size:     186 112 112  61
 Previous basis size:     73  43  43  23
 Previous occupation:     14   6   6   2
 Previous closed-shells:  13   5   6   2
 Previous core-orbitals:  10   4   4   1
 Present occupation:      14   6   6   2
 Present closed-shells:   13   5   6   2
 Present core-orbitals:   10   4   4   1
 Wavefunction symmetry:    2   Triplet 

 Orbital overlap <old|new>:  < 1.1| 1.1> = 1.000000   < 2.1| 2.1> = 1.000000   < 3.1| 3.1> = 1.000000   < 4.1| 4.1> = 1.000000
                             < 5.1| 5.1> = 1.000000   < 6.1| 6.1> = 0.999164   < 7.1| 7.1> = 1.000000   < 8.1| 8.1> = 1.000000
                             < 9.1| 9.1> = 1.000000   <10.1|10.1> = 1.000000   < 1.2| 1.2> = 1.000000   < 2.2| 2.2> = 1.000000
                             < 3.2| 3.2> = 1.000000   < 4.2| 4.2> = 1.000000   < 1.3| 1.3> = 1.000000   < 2.3| 2.3> = 1.000000
                             < 3.3| 3.3> = 1.000000   < 4.3| 4.3> = 1.000000   < 1.4| 1.4> = 1.000000   <11.1|11.1> = 0.999957
                             <12.1|12.1> = 0.999996   <13.1|13.1> = 1.000000   < 5.2| 5.2> = 0.999999   < 5.3| 5.3> = 0.999998
                             < 6.3| 6.3> = 0.999998   < 2.4| 2.4> = 1.000000   <14.1|14.1> = 0.999999   < 6.2| 6.2> = 0.999996

 Molecular orbital dump at record        2102.2

 ITERATION    DDIFF          GRAD             ENERGY        2-EL.EN.            DIPOLE MOMENTS         DIIS   ORB.
    1      0.000D+00      0.000D+00     -5115.66888758   4105.187349    0.00000    0.00000   -1.98195    0    start
    2      0.000D+00      0.549D-01     -5115.75749161   4104.648480    0.00000    0.00000   -1.98256    1    diag,B
    3      0.117D+02      0.881D-03     -5115.75813350   4104.603248    0.00000    0.00000   -2.00571    2    diag,B
    4      0.490D+00      0.170D-03     -5115.75823270   4104.750690    0.00000    0.00000   -2.00536    3    diag,B
    5      0.334D-01      0.641D-04     -5115.75825639   4104.634702    0.00000    0.00000   -2.01085    4    diag,B
    6      0.539D-02      0.335D-04     -5115.75826277   4104.700713    0.00000    0.00000   -2.01262    5    diag,B
    7      0.337D-02      0.117D-04     -5115.75826433   4104.693175    0.00000    0.00000   -2.01396    6    diag,B
    8      0.222D-02      0.568D-05     -5115.75826513   4104.694834    0.00000    0.00000   -2.01545    7    orth
    9      0.175D-02      0.286D-05     -5115.75826539   4104.697090    0.00000    0.00000   -2.01631    8    diag,B
   10      0.468D-03      0.148D-05     -5115.75826551   4104.698319    0.00000    0.00000   -2.01678    9    diag,B
   11      0.233D-03      0.917D-06     -5115.75826555   4104.698852    0.00000    0.00000   -2.01700    9    diag,B
   12      0.237D-03      0.542D-06     -5115.75826558   4104.700035    0.00000    0.00000   -2.01711    9    diag,B
   13      0.149D-03      0.284D-06     -5115.75826558   4104.700218    0.00000    0.00000   -2.01715    9    diag,B
   14      0.725D-04      0.156D-06     -5115.75826559   4104.700561    0.00000    0.00000   -2.01715    9    diag,B
   15      0.440D-04      0.100D-06     -5115.75826559   4104.700657    0.00000    0.00000   -2.01716    9    diag,B
   16      0.656D-04      0.738D-07     -5115.75826559   4104.700687    0.00000    0.00000   -2.01716    9    diag,B
   17      0.666D-04      0.636D-07     -5115.75826560   4104.700728    0.00000    0.00000   -2.01716    9    diag,B
   18      0.522D-04      0.568D-07     -5115.75826559   4104.700749    0.00000    0.00000   -2.01716    9    orth
   19      0.639D-04      0.479D-07     -5115.75826559   4104.700772    0.00000    0.00000   -2.01716    9    diag,B
   20      0.230D-04      0.322D-07     -5115.75826557   4104.700773    0.00000    0.00000   -2.01715    9    diag,B
   21      0.686D-04      0.190D-07     -5115.75826559   4104.700772    0.00000    0.00000   -2.01715    9    diag,B
   22      0.469D-04      0.225D-07     -5115.75826558   4104.700776    0.00000    0.00000   -2.01715    9    diag,B
   23      0.246D-04      0.815D-08     -5115.75826558   4104.700768    0.00000    0.00000   -2.01715    9    diag,B
   24      0.148D-04      0.887D-08     -5115.75826559   4104.700769    0.00000    0.00000   -2.01715    9    diag,B
   25      0.742D-05      0.212D-07     -5115.75826559   4104.700765    0.00000    0.00000   -2.01715    0    orth

 Final alpha occupancy:  14   6   6   2
 Final beta  occupancy:  13   5   6   2

 !RHF STATE 1.2 Energy              -5115.758265585864
 Nuclear energy                       109.09647822
 One-electron energy                -7277.20512647
 Two-electron energy                 2052.35038266
 Virial quotient                       -0.88732335
 !RHF STATE 1.2 Dipole moment           0.00000000     0.00000000    -2.01715008
 Dipole moment /Debye                   0.00000000     0.00000000    -5.12674831

 Orbital energies:

         1.1          2.1          3.1          4.1          5.1          6.1          7.1          8.1          9.1         10.1
   -899.565413  -134.530933  -120.423599   -25.685520   -20.929337   -19.697752   -13.342371   -13.339292    -3.991186    -2.550694

        11.1         12.1         13.1         14.1         15.1         16.1
     -1.122255    -0.507370    -0.449554    -0.399266    -0.007277     0.031288

         1.2          2.2          3.2          4.2          5.2          6.2          7.2          8.2
   -120.420001   -20.914989   -13.351258    -2.540815    -0.488513    -0.525247     0.022626     0.079163

         1.3          2.3          3.3          4.3          5.3          6.3          7.3          8.3
   -120.419792   -20.914421   -13.351879    -2.540482    -0.535160    -0.385421     0.023546     0.080616

         1.4          2.4          3.4          4.4
    -13.342179    -0.449736     0.094951     0.316207

 HOMO      6.3    -0.385421 =     -10.4878eV
 LUMO     15.1    -0.007277 =      -0.1980eV
 LUMO-HOMO         0.378144 =      10.2898eV


 **********************************************************************************************************************************
 DATASETS  * FILE   NREC   LENGTH (MB)   RECORD NAMES
              1      22       24.20       500      610      700      900      950      970     1001      129      960     1700   
                                          VAR    BASINP    GEOM    SYMINP    ZMAT    AOBASIS   BASIS     P2S    ABASIS    OPER   
                                         1101     1401     1411     1412     1650     1100     1400     1410     1200     1210   
                                          SR      EKINR    POTR     PVPR    MOLCAS      S      EKIN      POT      H0       H01  
                                         1080     1600   
                                         AOSYM     SMH  

              2       8       10.45       700     1000      520     1800     2100     2101     1001     2102   
                                         GEOM     BASIS   MCVARS    GRID      RKS      RHF     BASIS     RHF  

 PROGRAMS   *        TOTAL       RHF       INT       RHF       RKS       INT
 CPU TIMES  *       116.04      9.76     94.11      2.12      2.45      7.19
 REAL TIME  *       130.73 SEC
 DISK USED  *        12.35 GB      
 SF USED    *         0.26 MB      
 GA USED    *         0.23 MB       (max)       0.00 MB       (current)
 **********************************************************************************************************************************
 SETTING SCF            =     -5115.75826559  AU                              
 SETTING _CC_NORM_MAX   =         2.00000000                                  


 PROGRAM * CCSD (Restricted open-shell coupled cluster)     Authors: C. Hampel, H.-J. Werner, 1991, M. Deegan, P.J. Knowles, 1992


 Convergence thresholds:  THRVAR = 1.00D-08  THRDEN = 1.08D-06

 CCSD(T)     terms to be evaluated (factor= 1.000)


 Number of closed-shell orbitals:  26 (  13   5   6   2 )
 Number of active  orbitals:        2 (   1   1   0   0 )
 Number of external orbitals:     443 ( 172 106 106  59 )

 For full I/O caching in triples, increase memory by 456.44 Mwords to 968.72 Mwords.

 Number of N-1 electron functions:              54
 Number of N-2 electron functions:            1431
 Number of singly external CSFs:              7356
 Number of doubly external CSFs:          54592887
 Total number of CSFs:                    54600243

 Molecular orbitals read from record     2102.2  Type=RHF/CANONICAL (state 1.2)

 Integral transformation finished. Total CPU:  69.44 sec, npass=  1  Memory used: 103.89 MW

 Starting RMP2 calculation

 Wavefunction is spin-projected

