
 Primary working directories    : /global/cscratch1/sd/bkincaid
 Secondary working directories  : /global/cscratch1/sd/bkincaid
 Wavefunction directory         : /global/homes/b/bkincaid/wfu/
 Main file repository           : /global/cscratch1/sd/bkincaid/

 SHA1      : 19cd028119e0e09f93f0674bd8af7968d9b3eff6
 NAME      : 2015.1.36
 ARCHNAME  : linux/x86_64
 FC        : /opt/cray/pe/craype/2.5.14/bin/ftn
 BLASLIB   : -L/opt/intel/compilers_and_libraries_2018.1.163/linux/mkl/lib/intel64 -Wl,-_start-group -lmkl_intel_ilp64 -lmkl_intel_thread -lmkl_core -Wl,-_end-group -liomp5
 id        : lbl

 Nodes     nprocs
 nid00894    23
 Number of processes for MPI-2 version of Molpro:   nprocs(total)=   24   nprocs(compute)=   23   nprocs(helper)=    1

 Using customized tuning parameters: mindgm=7; mindgv=16; mindgc=1; mindgr=1; noblas=0; minvec=7
 default implementation of scratch files=sf  

 ***,Calculation for Ag atom, singlet and triplet
 memory,512,m
 geometry={
 1
 Pd
 Pd  0.0 0.0 0.0
 }
 
 basis={
 Including file /global/u1/b/bkincaid/molpro/Pd/atoms/ecps/bk16.8/basis/bk16.8
 Including file /global/u1/b/bkincaid/molpro/Pd/atoms/ecps/bk16.8/basis/aug-cc-pwCVTZ.basis
 }
 
 Including file /global/u1/b/bkincaid/molpro/Pd/atoms/ecps/bk16.8/basis/states.proc
 
 do i=1,13
     if (i.eq.1) then
         Idten
     else if (i.eq.2) then
         EAs2d9
     else if (i.eq.3) then
         Is1d9
     else if (i.eq.4) then
         Is2d8
     else if (i.eq.5) then
         IId9
     else if (i.eq.6) then
         IIs1d8
     else if (i.eq.7) then
         IIId8
     else if (i.eq.8) then
         IVd7
     else if (i.eq.9) then
         Vd6
     else if (i.eq.10) then
         VId5
     else if (i.eq.11) then
         XIKr
     else if (i.eq.12) then
         XIVp3
     else if (i.eq.13) then
         XVIIs2
     endif
     scf(i)=energy
     _CC_NORM_MAX=2.0
    {rccsd(t),maxit=100;core}
     ccsd(i)=energy
 enddo
 
 table,scf,ccsd
 type,csv
 save

 Variables initialized (889), CPU time= 0.01 sec
 Commands  initialized (702), CPU time= 0.02 sec, 572 directives.
 Default parameters read. Elapsed time= 0.18 sec

 Checking input...
 Passed
1


                                         ***  PROGRAM SYSTEM MOLPRO  ***
                                       Copyright, TTI GmbH Stuttgart, 2015
                                    Version 2015.1 linked Dec 29 2018 15:55:43


 **********************************************************************************************************************************
 LABEL *   Calculation for Ag atom, singlet and triplet                                  
  64 bit mpp version                                                                     DATE: 22-Apr-21          TIME: 11:45:54  
 **********************************************************************************************************************************

 SHA1:             19cd028119e0e09f93f0674bd8af7968d9b3eff6
 **********************************************************************************************************************************

Geometry recognized as XYZ


 Variable memory set to  512000000 words,  buffer space   230000 words

 SETTING BASIS          =    USERDEF

 DO I                   =         1.00000000   

 Running procedure=IDTEN


 Recomputing integrals since basis changed


 Using spherical harmonics



 PROGRAM * SEWARD (Integral evaluation for generally contracted gaussian basis sets)     Author: Roland Lindh, 1990

 Geometry written to block  1 of record 700

 Orientation using atomic masses  
 Molecule type: Atom
 Symmetry elements: X,Y,Z
 Rotational constants:       0.0000000      0.0000000      0.0000000 GHz  (calculated with average atomic masses)

 Point group  D2h 



 ATOMIC COORDINATES

 NR  ATOM    CHARGE       X              Y              Z

   1  PD     18.00    0.000000000    0.000000000    0.000000000

 NUCLEAR CHARGE:                   18
 NUMBER OF PRIMITIVE AOS:         289
 NUMBER OF SYMMETRY AOS:          242
 NUMBER OF CONTRACTIONS:          242   (  73Ag  +  32B3u +  32B2u +  23B1g +  32B1u +  23B2g +  23B3g +   4Au  )
 NUMBER OF CORE ORBITALS:           4   (   1Ag  +   1B3u +   1B2u +   0B1g +   1B1u +   0B2g +   0B3g +   0Au  )
 NUMBER OF VALENCE ORBITALS:        6   (   3Ag  +   0B3u +   0B2u +   1B1g +   0B1u +   1B2g +   1B3g +   0Au  )


 NUCLEAR REPULSION ENERGY    0.00000000

 EXTRA SYMMETRY OF AOS IN SYMMETRY 1:   1 1 1 1 1 1 1 1 1 1   1 1 1 1 1 1 1 1 1 1   1 1 1 1 1 1 1 1 1 1   2 3 2 3 2 3 2 3 2 3
                                        2 3 2 3 2 3 2 3 2 3   2 3 2 3 2 3 2 3 2 3   2 3 2 3 4 5 6 4 5 6   4 5 6
 EXTRA SYMMETRY OF AOS IN SYMMETRY 2:   1 1 1 1 1 1 1 1 1 1   1 1 1 1 1 1 1 1 1 1   1 1 1 1 2 3 2 3 2 3   2 3
 EXTRA SYMMETRY OF AOS IN SYMMETRY 3:   1 1 1 1 1 1 1 1 1 1   1 1 1 1 1 1 1 1 1 1   1 1 1 1 2 3 2 3 2 3   2 3
 EXTRA SYMMETRY OF AOS IN SYMMETRY 4:   1 1 1 1 1 1 1 1 1 1   1 1 1 1 1 1 1 2 3 2   3 2 3
 EXTRA SYMMETRY OF AOS IN SYMMETRY 5:   1 1 1 1 1 1 1 1 1 1   1 1 1 1 1 1 1 1 1 1   1 1 1 1 2 3 2 3 2 3   2 3
 EXTRA SYMMETRY OF AOS IN SYMMETRY 6:   1 1 1 1 1 1 1 1 1 1   1 1 1 1 1 1 1 2 3 2   3 2 3
 EXTRA SYMMETRY OF AOS IN SYMMETRY 7:   1 1 1 1 1 1 1 1 1 1   1 1 1 1 1 1 1 2 3 2   3 2 3

 Eigenvalues of metric

         1 0.198E-05 0.951E-05 0.951E-05 0.291E-04 0.121E-03 0.307E-03 0.307E-03 0.363E-03
         2 0.982E-06 0.471E-03 0.163E-02 0.406E-02 0.938E-02 0.172E-01 0.270E-01 0.454E-01
         3 0.982E-06 0.471E-03 0.163E-02 0.406E-02 0.938E-02 0.172E-01 0.270E-01 0.454E-01
         4 0.951E-05 0.307E-03 0.302E-02 0.107E-01 0.287E-01 0.531E-01 0.105E+00 0.148E+00
         5 0.982E-06 0.471E-03 0.163E-02 0.406E-02 0.938E-02 0.172E-01 0.270E-01 0.454E-01
         6 0.951E-05 0.307E-03 0.302E-02 0.107E-01 0.287E-01 0.531E-01 0.105E+00 0.148E+00
         7 0.951E-05 0.307E-03 0.302E-02 0.107E-01 0.287E-01 0.531E-01 0.105E+00 0.148E+00
         8 0.941E-01 0.387E+00 0.119E+01 0.233E+01


 Contracted 2-electron integrals neglected if value below      1.0D-13
 AO integral compression algorithm  1   Integral accuracy      1.0D-13

     414.450 MB (compressed) written to integral file ( 45.9%)

     Node minimum: 3.670 MB, node maximum: 55.050 MB


 NUMBER OF SORTED TWO-ELECTRON INTEGRALS:    2444547.     BUFFER LENGTH:  32768
 NUMBER OF SEGMENTS:   1  SEGMENT LENGTH:    2444547      RECORD LENGTH: 524288

 Memory used in sort:       3.00 MW

 SORT1 READ   112766326. AND WROTE     1563133. INTEGRALS IN      5 RECORDS. CPU TIME:     2.71 SEC, REAL TIME:     2.76 SEC
 SORT2 READ    36622834. AND WROTE    56960207. INTEGRALS IN    414 RECORDS. CPU TIME:     0.24 SEC, REAL TIME:     0.50 SEC

 Node minimum:     2444547.  Node maximum:     2491187. integrals

 OPERATOR DM      FOR CENTER  0  COORDINATES:    0.000000    0.000000    0.000000


 **********************************************************************************************************************************
 DATASETS  * FILE   NREC   LENGTH (MB)   RECORD NAMES
              1      19       20.37       500      610      700      900      950      970     1000      129      960     1100   
                                          VAR    BASINP    GEOM    SYMINP    ZMAT    AOBASIS   BASIS     P2S    ABASIS      S 
                                         1400     1410     1420     1200     1210     1080     1600     1650     1700   
                                           T        V       ECP      H0       H01     AOSYM     SMH    MOLCAS    OPER   

 PROGRAMS   *        TOTAL       INT
 CPU TIMES  *        27.74     26.98
 REAL TIME  *        29.65 SEC
 DISK USED  *       866.53 MB      
 GA USED    *         0.00 MB       (max)       0.00 MB       (current)
 **********************************************************************************************************************************


 PROGRAM * RHF-SCF (CLOSED SHELL)       Authors: W. Meyer, H.-J. Werner


 NUMBER OF ELECTRONS:       9+    9-    SPACE SYMMETRY=1    SPIN SYMMETRY: Singlet 
 CONVERGENCE THRESHOLDS:    1.00E-05 (Density)    1.00E-07 (Energy)
 MAX. NUMBER OF ITERATIONS:       60
 INTERPOLATION TYPE:            DIIS
 INTERPOLATION STEPS:              2 (START)      1 (STEP)
 LEVEL SHIFTS:                  0.00 (CLOSED)  0.00 (OPEN) 

 Number of closed-shell orbitals:    9 (   3   1   1   1   1   1   1   0 )


 
 Extra symmetries of mos in symmetry 1:   1   3   2
 Orbital guess generated from atomic densities. Full valence occupancy:    4   1   1   1   1   1   1   0


 Molecular orbital dump at record        4202.2

 ITERATION    DDIFF          GRAD             ENERGY        2-EL.EN.            DIPOLE MOMENTS         DIIS   ORB.
    1      0.000D+00      0.000D+00      -126.76124513    208.303483    0.00000    0.00000    0.00000    0    start
    2      0.000D+00      0.151D-01      -126.76230897    197.589975    0.00000    0.00000    0.00000    1    diag
    3      0.547D-02      0.165D-01      -126.81091003    202.750060    0.00000    0.00000    0.00000    2    diag
    4      0.236D-02      0.490D-03      -126.81094394    202.833614    0.00000    0.00000    0.00000    3    diag
    5      0.100D-03      0.726D-04      -126.81094489    202.852487    0.00000    0.00000    0.00000    4    diag
    6      0.345D-04      0.415D-05      -126.81094490    202.852364    0.00000    0.00000    0.00000    5    diag
    7      0.447D-05      0.589D-06      -126.81094490    202.852593    0.00000    0.00000    0.00000    0    orth

 Final occupancy:   3   1   1   1   1   1   1   0

 !RHF STATE 1.1 Energy               -126.810944902938
 Nuclear energy                         0.00000000
 One-electron energy                 -228.23724152
 Two-electron energy                  101.42629661
 Virial quotient                       -2.57903036
 !RHF STATE 1.1 Dipole moment           0.00000000     0.00000000     0.00000000
 Dipole moment /Debye                   0.00000000     0.00000000     0.00000000

 ELECTRON ORBITALS
 =================


   Orb  Occ    Energy  Couls-En    Coefficients

                                   1 1s      1 1s      1 1s      1 1s      1 1s      1 1s      1 1s      1 1s      1 1s      1 1s   
                                   1 1s      1 1s      1 1s      1 1s      1 1s      1 1s      1 1s      1 1s      1 1s      1 1s   
                                   1 1s      1 1s      1 1s      1 1s      1 1s      1 1s      1 1s      1 1s      1 1s      1 1s   
                                   1 3d0     1 3d2+    1 3d0     1 3d2+    1 3d0     1 3d2+    1 3d0     1 3d2+    1 3d0     1 3d2+ 
                                   1 3d0     1 3d2+    1 3d0     1 3d2+    1 3d0     1 3d2+    1 3d0     1 3d2+    1 3d0     1 3d2+ 
                                   1 3d0     1 3d2+    1 3d0     1 3d2+    1 3d0     1 3d2+    1 3d0     1 3d2+    1 3d0     1 3d2+ 
                                   1 3d0     1 3d2+    1 3d0     1 3d2+    1 5g0     1 5g4+    1 5g2+    1 5g0     1 5g4+    1 5g2+ 
                                   1 5g0     1 5g4+    1 5g2+ 

   1.1   2    -3.8546  -20.1442 -0.000000  0.000000 -0.000000  0.000000 -0.000000  0.000000 -0.000001  0.000002 -0.000007  0.000021
                                -0.000055  0.000143 -0.000364  0.000916 -0.002283  0.005568 -0.011416 -0.011630  0.278611 -0.783545
                                -0.207214  0.929177  0.541383  0.036023 -0.016319  0.007880  0.151933 -0.100198 -0.003278  0.000809
                                -0.000000  0.000000  0.000000 -0.000000 -0.000000  0.000000  0.000000 -0.000000 -0.000000  0.000000
                                 0.000000 -0.000000 -0.000000  0.000000  0.000000 -0.000000 -0.000000  0.000000 -0.000000  0.000000
                                -0.000000  0.000000 -0.000000 -0.000000 -0.000000  0.000000  0.000000 -0.000000  0.000000 -0.000000
                                 0.000000 -0.000000 -0.000000  0.000000 -0.000000  0.000000  0.000000 -0.000000  0.000000  0.000000
                                -0.000000  0.000000  0.000000

   2.1   2    -0.3275  -11.1719 -0.000000 -0.000000  0.000000 -0.000000  0.000000 -0.000000  0.000000 -0.000000  0.000000 -0.000000
                                 0.000000 -0.000000  0.000000 -0.000000  0.000000 -0.000000  0.000000  0.000000 -0.000000  0.000000
                                 0.000000 -0.000000 -0.000000  0.000000  0.000000  0.000000 -0.000000  0.000000 -0.000000  0.000000
                                 0.000000  0.000000 -0.000000 -0.000001  0.000001  0.000003 -0.000006 -0.000013  0.000040  0.000090
                                 0.000436  0.000996  0.003884  0.008881 -0.009058 -0.020711  0.018380  0.042026  0.090271  0.206401
                                 0.141030  0.322461  0.130704  0.298849  0.086389  0.197525  0.030539  0.069828  0.009256  0.021163
                                 0.006496  0.014852  0.001089  0.002491  0.000000  0.000000  0.000000 -0.000000 -0.000000 -0.000000
                                -0.000000  0.000000  0.000000

   3.1   2    -0.3275  -11.1719  0.000000  0.000000 -0.000000  0.000000  0.000000 -0.000000  0.000000 -0.000000  0.000000 -0.000000
                                 0.000000 -0.000000  0.000000 -0.000000  0.000000 -0.000000  0.000000 -0.000000 -0.000000 -0.000000
                                -0.000000  0.000000  0.000000 -0.000000  0.000000 -0.000000  0.000000 -0.000000  0.000000 -0.000000
                                 0.000000 -0.000000 -0.000001  0.000000  0.000003 -0.000001 -0.000013  0.000006  0.000090 -0.000040
                                 0.000996 -0.000436  0.008881 -0.003884 -0.020711  0.009058  0.042026 -0.018380  0.206402 -0.090271
                                 0.322461 -0.141030  0.298849 -0.130704  0.197525 -0.086389  0.069827 -0.030539  0.021163 -0.009256
                                 0.014852 -0.006496  0.002491 -0.001089  0.000000  0.000000 -0.000000 -0.000000  0.000000  0.000000
                                 0.000000 -0.000000 -0.000000

   4.1   0     0.0042   -2.1025  0.000000 -0.000000  0.000000 -0.000000  0.000000 -0.000000  0.000000 -0.000000  0.000000 -0.000000
                                 0.000000 -0.000000  0.000001 -0.000004  0.000011 -0.000035 -0.000015  0.002582 -0.024407  0.086073
                                 0.100162 -0.214645 -0.130362  0.078427 -0.115875  0.440743 -0.093063  0.164620 -0.616459  1.288491
                                 0.000000 -0.000000 -0.000000  0.000000  0.000000 -0.000000 -0.000000  0.000000  0.000000 -0.000000
                                -0.000000  0.000000  0.000000 -0.000000 -0.000000  0.000000  0.000000 -0.000000  0.000000  0.000000
                                 0.000000  0.000000 -0.000000 -0.000000 -0.000000  0.000000  0.000000 -0.000000 -0.000000  0.000000
                                -0.000000 -0.000000 -0.000000  0.000000 -0.000000  0.000000 -0.000000 -0.000000 -0.000000  0.000000
                                 0.000000  0.000000 -0.000000

   5.1   0     0.0238   -2.5604  0.000000 -0.000000  0.000000 -0.000000  0.000000 -0.000000  0.000000 -0.000001  0.000002 -0.000006
                                 0.000017 -0.000044  0.000113 -0.000283  0.000700 -0.001712  0.003967 -0.005799 -0.010762  0.002773
                                -0.226930  0.263307  0.080733 -0.207677  0.682380 -1.239017  0.210795 -0.424098  2.985871 -1.947579
                                 0.000000 -0.000000 -0.000000  0.000000  0.000000 -0.000000 -0.000000  0.000000  0.000000 -0.000000
                                -0.000000  0.000000  0.000000 -0.000000 -0.000000  0.000000  0.000000 -0.000000  0.000000 -0.000000
                                 0.000000  0.000000 -0.000000 -0.000000  0.000000  0.000000 -0.000000 -0.000000 -0.000000  0.000000
                                -0.000000 -0.000000 -0.000000 -0.000000  0.000000 -0.000000 -0.000000 -0.000000  0.000000  0.000000
                                 0.000000 -0.000000 -0.000000

                                   1 2px     1 2px     1 2px     1 2px     1 2px     1 2px     1 2px     1 2px     1 2px     1 2px  
                                   1 2px     1 2px     1 2px     1 2px     1 2px     1 2px     1 2px     1 2px     1 2px     1 2px  
                                   1 2px     1 2px     1 2px     1 2px     1 4f1+    1 4f3+    1 4f1+    1 4f3+    1 4f1+    1 4f3+ 
                                   1 4f1+    1 4f3+ 

   1.2   2    -2.4001  -16.9357  0.000000 -0.000000  0.000000 -0.000000  0.000001 -0.000006  0.000022 -0.000071  0.000214 -0.000619
                                 0.001925 -0.008131  0.045930 -0.115777 -0.334462  0.343250  0.293833  0.044175 -0.005343  0.003123
                                 0.192780  0.533492 -0.001453  0.000466  0.000000  0.000000  0.000000  0.000000  0.000000  0.000000
                                -0.000000 -0.000000

   2.2   0     0.0111   -1.1505 -0.000000  0.000000 -0.000000  0.000000 -0.000000  0.000001 -0.000003  0.000011 -0.000032  0.000087
                                -0.000223  0.000584 -0.001744  0.005563 -0.104571 -0.018513 -0.017546  0.030602 -0.068939  0.208867
                                 0.111379  0.008216 -0.565405  1.337096  0.000000  0.000000  0.000000  0.000000  0.000000  0.000000
                                 0.000000  0.000000

   3.2   0     0.0407   -1.8447  0.000000 -0.000000  0.000000 -0.000000  0.000001 -0.000002  0.000009 -0.000028  0.000080 -0.000214
                                 0.000533 -0.001228  0.002438 -0.009112  0.315617  0.031802  0.031835 -0.075009  0.240100 -0.622912
                                -0.327720 -0.056069  2.092013 -1.174843  0.000000  0.000000  0.000000  0.000000  0.000000  0.000000
                                 0.000000  0.000000

                                   1 2py     1 2py     1 2py     1 2py     1 2py     1 2py     1 2py     1 2py     1 2py     1 2py  
                                   1 2py     1 2py     1 2py     1 2py     1 2py     1 2py     1 2py     1 2py     1 2py     1 2py  
                                   1 2py     1 2py     1 2py     1 2py     1 4f1-    1 4f3-    1 4f1-    1 4f3-    1 4f1-    1 4f3- 
                                   1 4f1-    1 4f3- 

   1.3   2    -2.4001  -16.9357  0.000000 -0.000000  0.000000 -0.000000  0.000001 -0.000006  0.000022 -0.000071  0.000214 -0.000619
                                 0.001925 -0.008131  0.045930 -0.115777 -0.334462  0.343250  0.293833  0.044175 -0.005343  0.003123
                                 0.192780  0.533492 -0.001453  0.000466  0.000000 -0.000000  0.000000 -0.000000 -0.000000 -0.000000
                                 0.000000  0.000000

   2.3   0     0.0111   -1.1505 -0.000000  0.000000 -0.000000  0.000000 -0.000000  0.000001 -0.000003  0.000011 -0.000032  0.000087
                                -0.000223  0.000584 -0.001744  0.005563 -0.104571 -0.018513 -0.017546  0.030602 -0.068939  0.208867
                                 0.111379  0.008216 -0.565405  1.337096 -0.000000  0.000000 -0.000000  0.000000 -0.000000  0.000000
                                -0.000000 -0.000000

   3.3   0     0.0407   -1.8447  0.000000 -0.000000  0.000000 -0.000000  0.000001 -0.000002  0.000009 -0.000028  0.000080 -0.000214
                                 0.000533 -0.001228  0.002438 -0.009112  0.315617  0.031802  0.031835 -0.075009  0.240100 -0.622912
                                -0.327720 -0.056069  2.092013 -1.174843 -0.000000  0.000000 -0.000000 -0.000000 -0.000000  0.000000
                                -0.000000 -0.000000

                                   1 3d2-    1 3d2-    1 3d2-    1 3d2-    1 3d2-    1 3d2-    1 3d2-    1 3d2-    1 3d2-    1 3d2- 
                                   1 3d2-    1 3d2-    1 3d2-    1 3d2-    1 3d2-    1 3d2-    1 3d2-    1 5g2-    1 5g4-    1 5g2- 
                                   1 5g4-    1 5g2-    1 5g4- 

   1.4   2    -0.3275  -11.1719  0.000000 -0.000001  0.000003 -0.000014  0.000099  0.001087  0.009693 -0.022606  0.045869  0.225279
                                 0.351953  0.326182  0.215590  0.076214  0.023098  0.016211  0.002719  0.000000 -0.000000  0.000000
                                 0.000000 -0.000000 -0.000000

   2.4   0     0.1009   -2.2244  0.000001 -0.000006  0.000032 -0.000130  0.000430 -0.001396  0.002887 -0.009882  0.056852  0.535142
                                 0.448647 -0.190147  0.186322 -0.476666 -0.399243 -0.606130  1.256114  0.000000  0.000000  0.000000
                                 0.000000  0.000000  0.000000

   3.4   0     0.3431   -3.3265 -0.000003  0.000020 -0.000104  0.000420 -0.001419  0.003815 -0.014620  0.044229 -0.208608 -1.854430
                                -1.670323  0.455243 -0.824512  1.895502  1.271280  1.963846 -0.890468  0.000000  0.000000  0.000000
                                 0.000000  0.000000  0.000000

                                   1 2pz     1 2pz     1 2pz     1 2pz     1 2pz     1 2pz     1 2pz     1 2pz     1 2pz     1 2pz  
                                   1 2pz     1 2pz     1 2pz     1 2pz     1 2pz     1 2pz     1 2pz     1 2pz     1 2pz     1 2pz  
                                   1 2pz     1 2pz     1 2pz     1 2pz     1 4f0     1 4f2+    1 4f0     1 4f2+    1 4f0     1 4f2+ 
                                   1 4f0     1 4f2+ 

   1.5   2    -2.4001  -16.9357  0.000000 -0.000000  0.000000 -0.000000  0.000001 -0.000006  0.000022 -0.000071  0.000214 -0.000619
                                 0.001925 -0.008131  0.045930 -0.115777 -0.334462  0.343250  0.293833  0.044175 -0.005343  0.003123
                                 0.192780  0.533492 -0.001453  0.000466 -0.000000  0.000000 -0.000000 -0.000000 -0.000000 -0.000000
                                 0.000000  0.000000

   2.5   0     0.0111   -1.1505 -0.000000  0.000000 -0.000000  0.000000 -0.000000  0.000001 -0.000003  0.000011 -0.000032  0.000087
                                -0.000223  0.000584 -0.001744  0.005563 -0.104571 -0.018513 -0.017546  0.030602 -0.068939  0.208867
                                 0.111379  0.008216 -0.565405  1.337096  0.000000  0.000000  0.000000  0.000000  0.000000 -0.000000
                                -0.000000  0.000000

   3.5   0     0.0407   -1.8447  0.000000 -0.000000  0.000000 -0.000000  0.000001 -0.000002  0.000009 -0.000028  0.000080 -0.000214
                                 0.000533 -0.001228  0.002438 -0.009112  0.315617  0.031802  0.031835 -0.075009  0.240100 -0.622912
                                -0.327720 -0.056069  2.092013 -1.174843  0.000000 -0.000000  0.000000  0.000000  0.000000 -0.000000
                                -0.000000  0.000000

                                   1 3d1+    1 3d1+    1 3d1+    1 3d1+    1 3d1+    1 3d1+    1 3d1+    1 3d1+    1 3d1+    1 3d1+ 
                                   1 3d1+    1 3d1+    1 3d1+    1 3d1+    1 3d1+    1 3d1+    1 3d1+    1 5g1+    1 5g3+    1 5g1+ 
                                   1 5g3+    1 5g1+    1 5g3+ 

   1.6   2    -0.3275  -11.1719  0.000000 -0.000001  0.000003 -0.000014  0.000099  0.001087  0.009693 -0.022606  0.045869  0.225279
                                 0.351953  0.326182  0.215590  0.076214  0.023098  0.016211  0.002719  0.000000  0.000000  0.000000
                                 0.000000 -0.000000 -0.000000

   2.6   0     0.1009   -2.2244  0.000001 -0.000006  0.000032 -0.000130  0.000430 -0.001396  0.002887 -0.009882  0.056852  0.535142
                                 0.448647 -0.190147  0.186322 -0.476666 -0.399243 -0.606130  1.256114  0.000000  0.000000  0.000000
                                 0.000000  0.000000  0.000000

   3.6   0     0.3431   -3.3265 -0.000003  0.000020 -0.000104  0.000420 -0.001419  0.003815 -0.014620  0.044229 -0.208608 -1.854430
                                -1.670323  0.455243 -0.824512  1.895502  1.271280  1.963846 -0.890468  0.000000  0.000000  0.000000
                                 0.000000  0.000000  0.000000

                                   1 3d1-    1 3d1-    1 3d1-    1 3d1-    1 3d1-    1 3d1-    1 3d1-    1 3d1-    1 3d1-    1 3d1- 
                                   1 3d1-    1 3d1-    1 3d1-    1 3d1-    1 3d1-    1 3d1-    1 3d1-    1 5g1-    1 5g3-    1 5g1- 
                                   1 5g3-    1 5g1-    1 5g3- 

   1.7   2    -0.3275  -11.1719  0.000000 -0.000001  0.000003 -0.000014  0.000099  0.001087  0.009693 -0.022606  0.045869  0.225279
                                 0.351953  0.326182  0.215590  0.076214  0.023098  0.016211  0.002719  0.000000 -0.000000  0.000000
                                -0.000000 -0.000000 -0.000000

   2.7   0     0.1009   -2.2244  0.000001 -0.000006  0.000032 -0.000130  0.000430 -0.001396  0.002887 -0.009882  0.056852  0.535142
                                 0.448647 -0.190147  0.186322 -0.476666 -0.399243 -0.606130  1.256114  0.000000  0.000000  0.000000
                                 0.000000 -0.000000  0.000000

   3.7   0     0.3431   -3.3265 -0.000003  0.000020 -0.000104  0.000420 -0.001419  0.003815 -0.014620  0.044229 -0.208608 -1.854430
                                -1.670323  0.455243 -0.824512  1.895502  1.271280  1.963846 -0.890468 -0.000000 -0.000000  0.000000
                                 0.000000 -0.000000 -0.000000

                                   1 4f2-    1 4f2-    1 4f2-    1 4f2- 

   1.8   0     0.8906   -4.2661 -0.007142  0.132563 -0.233370  1.118198

   2.8   0     2.0989   -5.3353  0.216477 -0.064632  1.282312 -0.767398

 HOMO      1.6    -0.327462 =      -8.9107eV
 LUMO      4.1     0.004199 =       0.1143eV
 LUMO-HOMO         0.331661 =       9.0250eV


 **********************************************************************************************************************************
 DATASETS  * FILE   NREC   LENGTH (MB)   RECORD NAMES
              1      19       20.40       500      610      700      900      950      970     1000      129      960     1100   
                                          VAR    BASINP    GEOM    SYMINP    ZMAT    AOBASIS   BASIS     P2S    ABASIS      S 
                                         1400     1410     1420     1200     1210     1080     1600     1650     1700   
                                           T        V       ECP      H0       H01     AOSYM     SMH    MOLCAS    OPER   

              2       5        5.58       200      700     1000      520     4202   
                                        OPTIONS   GEOM     BASIS   MCVARS     RHF  

 PROGRAMS   *        TOTAL       RHF       INT
 CPU TIMES  *        28.25      0.50     26.98
 REAL TIME  *        30.38 SEC
 DISK USED  *         1.48 GB      
 SF USED    *         0.04 MB      
 GA USED    *         0.00 MB       (max)       0.00 MB       (current)
 **********************************************************************************************************************************
 SETTING SCF(1)         =      -126.81094490  AU                              
 SETTING _CC_NORM_MAX   =         2.00000000                                  


 PROGRAM * CCSD (Restricted open-shell coupled cluster)     Authors: C. Hampel, H.-J. Werner, 1991, M. Deegan, P.J. Knowles, 1992


 Convergence thresholds:  THRVAR = 1.00D-08  THRDEN = 1.00D-06

 CCSD(T)     terms to be evaluated (factor= 1.000)


 Number of closed-shell orbitals:   9 (   3   1   1   1   1   1   1   0 )
 Number of external orbitals:     233 (  70  31  31  22  31  22  22   4 )

 Memory could be reduced to 29.42 Mwords without degradation in triples

 Number of N-1 electron functions:              18
 Number of N-2 electron functions:             153
 Number of singly external CSFs:               738
 Number of doubly external CSFs:            813477
 Total number of CSFs:                      814215

 Molecular orbitals read from record     4202.2  Type=RHF/CANONICAL (state 1.1)

 Integral transformation finished. Total CPU:   0.69 sec, npass=  1  Memory used:   4.84 MW

 Starting RMP2 calculation

 Wavefunction is spin-projected

 ITER.      SQ.NORM     CORR.ENERGY   TOTAL ENERGY   ENERGY CHANGE        DEN1      VAR(S)    VAR(P)  DIIS     TIME
   1      1.14284767    -0.77112445  -127.58206935    -0.77112445    -0.00135913  0.21D-11  0.52D-03  1  1     0.96
   2      1.14404849    -0.77255751  -127.58350241    -0.00143306    -0.00000356  0.79D-13  0.24D-05  2  2     1.18
   3      1.14411675    -0.77259790  -127.58354280    -0.00004039    -0.00000001  0.21D-14  0.11D-07  3  3     1.42
   4      1.14411858    -0.77259822  -127.58354313    -0.00000032    -0.00000000  0.45D-16  0.55D-10  4  4     1.87

 Norm of t1 vector:      0.00000910      S-energy:    -0.00000000      T1 diagnostic:  0.00000152
 Norm of t2 vector:      0.37962952      P-energy:    -0.77259822
                                         Alpha-Beta:  -0.53320405
                                         Alpha-Alpha: -0.11969709
                                         Beta-Beta:   -0.11969709

 Spin contamination <S**2-Sz**2-Sz>     0.00000000
  Reference energy                   -126.810944902939
  RHF-RMP2 correlation energy          -0.772598223707
 !RHF-RMP2 energy                    -127.583543126645
 (NB above energy spin projected)

 Starting RCCSD calculation

 ITER.      SQ.NORM     CORR.ENERGY   TOTAL ENERGY   ENERGY CHANGE        DEN1      VAR(S)    VAR(P)  DIIS     TIME
   1      1.11287145    -0.71174033  -127.52268523    -0.71174033    -0.01748228  0.26D-02  0.34D-02  1  1     2.53
   2      1.12055937    -0.72654969  -127.53749459    -0.01480936    -0.00089128  0.42D-04  0.32D-03  2  2     3.27
   3      1.12144474    -0.72655006  -127.53749497    -0.00000037    -0.00009003  0.65D-04  0.17D-04  3  3     3.87
   4      1.12210064    -0.72682726  -127.53777217    -0.00027720    -0.00000938  0.42D-05  0.31D-05  4  4     4.47
   5      1.12248936    -0.72692947  -127.53787437    -0.00010221    -0.00000092  0.84D-06  0.22D-06  5  5     5.10
   6      1.12258142    -0.72693900  -127.53788390    -0.00000952    -0.00000012  0.53D-07  0.39D-07  6  6     5.79
   7      1.12260911    -0.72693972  -127.53788463    -0.00000073    -0.00000002  0.29D-07  0.24D-08  6  1     6.33
   8      1.12261550    -0.72694102  -127.53788592    -0.00000129    -0.00000000  0.27D-08  0.25D-09  6  2     7.03
   9      1.12261684    -0.72694025  -127.53788516     0.00000076    -0.00000000  0.32D-09  0.86D-10  6  3     7.70

 Norm of t1 vector:      0.05376947      S-energy:    -0.00000018      T1 diagnostic:  0.00896158
                                                                       D1 diagnostic:  0.01674594
 Norm of t2 vector:      0.34601399      P-energy:    -0.72694007
                                         Alpha-Beta:  -0.52152913
                                         Alpha-Alpha: -0.10270547
                                         Beta-Beta:   -0.10270547

 Spin contamination <S**2-Sz**2-Sz>     0.00000000

 Memory could be reduced to 29.91 Mwords without degradation in triples
 

  Correlated core orbitals:             1.1       1.2       1.3       1.5
  Orbital energies:                    -3.8546   -2.4001   -2.4001   -2.4001
 
  RCCSD core-core energy               -0.112669057322
  RCCSD core-valence energy            -0.262821242706
  RCCSD valence correlation energy     -0.351449953512
 

 RESULTS
 =======

  Reference energy                   -126.810944902939
  RCCSD singles energy                 -0.000000182935
  RCCSD pair energy                    -0.726940070605
  RCCSD correlation energy             -0.726940253541
  Triples (T) contribution             -0.029556275211
  Total correlation energy             -0.756496528751
 
  RHF-RCCSD energy                   -127.537885156479
  RHF-RCCSD[T] energy                -127.568528748437
  RHF-RCCSD-T energy                 -127.567289397384
 !RHF-RCCSD(T) energy                -127.567441431690

 Program statistics:

 Available memory in ccsd:               511999162
 Min. memory needed in ccsd:               2450153
 Max. memory used in ccsd:                 3434108
 Max. memory used in cckext:               2685931 ( 9 integral passes)
 Max. memory used in cckint:               4839137 ( 1 integral passes)



 **********************************************************************************************************************************
 DATASETS  * FILE   NREC   LENGTH (MB)   RECORD NAMES
              1      19       20.40       500      610      700      900      950      970     1000      129      960     1100   
                                          VAR    BASINP    GEOM    SYMINP    ZMAT    AOBASIS   BASIS     P2S    ABASIS      S 
                                         1400     1410     1420     1200     1210     1080     1600     1650     1700   
                                           T        V       ECP      H0       H01     AOSYM     SMH    MOLCAS    OPER   

              2       5        5.58       200      700     1000      520     4202   
                                        OPTIONS   GEOM     BASIS   MCVARS     RHF  

 PROGRAMS   *        TOTAL  RCCSD(T)       RHF       INT
 CPU TIMES  *        43.39     14.97      0.50     26.98
 REAL TIME  *        59.57 SEC
 DISK USED  *         3.80 GB      
 SF USED    *       440.31 MB      
 GA USED    *         0.00 MB       (max)       0.00 MB       (current)
 **********************************************************************************************************************************
 SETTING CCSD(1)        =      -127.56744143  AU                              

 DO I                   =         2.00000000   

 Running procedure=EAS2D9


 PROGRAM * RHF-SCF (OPEN SHELL)       Authors: W. Meyer, H.-J. Werner


 NUMBER OF ELECTRONS:      10+    9-    SPACE SYMMETRY=1    SPIN SYMMETRY: Doublet 
 CONVERGENCE THRESHOLDS:    1.00E-05 (Density)    1.00E-07 (Energy)
 MAX. NUMBER OF ITERATIONS:       60
 INTERPOLATION TYPE:            DIIS
 INTERPOLATION STEPS:              2 (START)      1 (STEP)
 LEVEL SHIFTS:                 -0.60 (CLOSED) -0.30 (OPEN) 

 Number of closed-shell orbitals:    9 (   3   1   1   1   1   1   1   0 )
 Number of open-shell orbitals:      1 (   1   0   0   0   0   0   0   0 )


 
 Extra symmetries of mos in symmetry 1:   1   1   3   2
 Orbital guess generated from atomic densities. Full valence occupancy:    4   1   1   1   1   1   1   0


 Molecular orbital dump at record        4202.2

 ITERATION    DDIFF          GRAD             ENERGY        2-EL.EN.            DIPOLE MOMENTS         DIIS   ORB.
    1      0.000D+00      0.000D+00      -126.79033449    208.038952    0.00000    0.00000    0.00000    0    start
    2      0.000D+00      0.453D-02      -126.79856841    207.037144    0.00000    0.00000    0.00000    1    diag,B
    3      0.230D-02      0.149D-02      -126.80158574    206.828767    0.00000    0.00000    0.00000    2    diag,B
    4      0.185D-02      0.992D-03      -126.80365486    206.450366    0.00000    0.00000    0.00000    3    diag,B
    5      0.148D-02      0.751D-03      -126.80604186    206.006233    0.00000    0.00000    0.00000    4    diag,B
    6      0.229D-02      0.487D-03      -126.80741761    205.609439    0.00000    0.00000    0.00000    5    diag,B
    7      0.266D-02      0.307D-03      -126.80812327    205.359614    0.00000    0.00000    0.00000    6    fixocc
    8      0.385D-02      0.175D-03      -126.80836028    205.226704    0.00000    0.00000    0.00000    7    diag,B
    9      0.259D-02      0.114D-03      -126.80846206    205.167490    0.00000    0.00000    0.00000    8    diag,B
   10      0.104D-02      0.870D-04      -126.80855206    205.100754    0.00000    0.00000    0.00000    9    orth
   11      0.124D-02      0.610D-04      -126.80860335    205.073392    0.00000    0.00000    0.00000    9    diag,B
   12      0.190D-02      0.342D-04      -126.80861862    205.029946    0.00000    0.00000    0.00000    9    diag,B
   13      0.123D-02      0.130D-04      -126.80861933    205.036239    0.00000    0.00000    0.00000    9    diag,B
   14      0.276D-03      0.572D-05      -126.80861947    205.032965    0.00000    0.00000    0.00000    9    diag,B
   15      0.876D-04      0.312D-05      -126.80861952    205.032372    0.00000    0.00000    0.00000    9    diag,B
   16      0.218D-04      0.247D-05      -126.80861955    205.032765    0.00000    0.00000    0.00000    9    diag,B
   17      0.502D-05      0.238D-05      -126.80861961    205.032693    0.00000    0.00000    0.00000    0    orth

 Final alpha occupancy:   4   1   1   1   1   1   1   0
 Final beta  occupancy:   3   1   1   1   1   1   1   0

 !RHF STATE 1.1 Energy               -126.808619606628
 Nuclear energy                         0.00000000
 One-electron energy                 -229.32496634
 Two-electron energy                  102.51634673
 Virial quotient                       -2.61377482
 !RHF STATE 1.1 Dipole moment           0.00000000     0.00000000     0.00000000
 Dipole moment /Debye                   0.00000000     0.00000000     0.00000000

 ELECTRON ORBITALS
 =================


   Orb  Occ    Energy  Couls-En    Coefficients

                                   1 1s      1 1s      1 1s      1 1s      1 1s      1 1s      1 1s      1 1s      1 1s      1 1s   
                                   1 1s      1 1s      1 1s      1 1s      1 1s      1 1s      1 1s      1 1s      1 1s      1 1s   
                                   1 1s      1 1s      1 1s      1 1s      1 1s      1 1s      1 1s      1 1s      1 1s      1 1s   
                                   1 3d0     1 3d2+    1 3d0     1 3d2+    1 3d0     1 3d2+    1 3d0     1 3d2+    1 3d0     1 3d2+ 
                                   1 3d0     1 3d2+    1 3d0     1 3d2+    1 3d0     1 3d2+    1 3d0     1 3d2+    1 3d0     1 3d2+ 
                                   1 3d0     1 3d2+    1 3d0     1 3d2+    1 3d0     1 3d2+    1 3d0     1 3d2+    1 3d0     1 3d2+ 
                                   1 3d0     1 3d2+    1 3d0     1 3d2+    1 5g0     1 5g4+    1 5g2+    1 5g0     1 5g4+    1 5g2+ 
                                   1 5g0     1 5g4+    1 5g2+ 

   1.1   2    -3.8183  -20.1269 -0.000000  0.000000 -0.000000  0.000000 -0.000000  0.000000 -0.000001  0.000003 -0.000008  0.000021
                                -0.000056  0.000145 -0.000371  0.000934 -0.002327  0.005676 -0.011668 -0.011211  0.278868 -0.782498
                                -0.193112  0.910206  0.522496  0.030301 -0.013988  0.006715  0.138044 -0.062282 -0.002749  0.000700
                                 0.000000  0.000000 -0.000000 -0.000000  0.000000  0.000000 -0.000001 -0.000000  0.000003  0.000000
                                -0.000009  0.000000  0.000037  0.000011 -0.000101 -0.000027 -0.000239  0.000018  0.000712  0.000243
                                -0.000562  0.000239 -0.001997  0.000086 -0.001182  0.000031 -0.000208  0.000010  0.000425  0.000056
                                 0.000928  0.000095 -0.000010 -0.000000 -0.000229 -0.000000  0.000013 -0.000468 -0.000001  0.000026
                                -0.000719 -0.000001  0.000038

   2.1   2    -0.0224   -4.7079  0.000000 -0.000000  0.000000 -0.000000  0.000000 -0.000000  0.000000 -0.000000  0.000001 -0.000004
                                 0.000011 -0.000029  0.000073 -0.000185  0.000463 -0.001148  0.002470  0.001596 -0.056724  0.179214
                                 0.064754 -0.279235 -0.230317  0.099590  0.314940  0.350257 -0.060335  0.070555  0.298272  0.132187
                                -0.000000 -0.000000  0.000000  0.000000 -0.000000 -0.000000  0.000000  0.000000 -0.000001 -0.000000
                                -0.000009 -0.000002 -0.000077 -0.000019  0.000183  0.000045 -0.000269 -0.000085 -0.001505 -0.000423
                                -0.002319 -0.000659 -0.000488 -0.000458  0.004194  0.000129  0.004977  0.000361 -0.000635 -0.000089
                                -0.000889 -0.000103  0.004234  0.000354 -0.000117 -0.000000  0.000004 -0.000266 -0.000001  0.000010
                                 0.000184  0.000000 -0.000011

   3.1   2    -0.2561  -11.3227  0.000000 -0.000000  0.000000 -0.000000  0.000000 -0.000000  0.000000 -0.000000  0.000000 -0.000000
                                 0.000000 -0.000000  0.000001 -0.000002  0.000005 -0.000012  0.000026 -0.000010 -0.000340  0.000970
                                -0.000526 -0.000452 -0.000087  0.001290  0.000428  0.000224  0.000411 -0.001391 -0.000057  0.000017
                                 0.000000  0.000000 -0.000000 -0.000001  0.000000  0.000003 -0.000001 -0.000013  0.000004  0.000098
                                 0.000048  0.001145  0.000423  0.010018 -0.000986 -0.023350  0.002008  0.047529  0.009745  0.230765
                                 0.015337  0.363090  0.013993  0.330865  0.008004  0.188858  0.002240  0.052671  0.001114  0.026348
                                 0.000857  0.020280  0.000116  0.002699  0.000044  0.000090  0.000948  0.000084  0.000134  0.001111
                                 0.000108  0.000232  0.002517

   4.1   +    -0.3383  -11.5453  0.000000 -0.000000  0.000000 -0.000000  0.000000 -0.000000  0.000000 -0.000000  0.000000 -0.000000
                                 0.000001 -0.000003  0.000008 -0.000021  0.000052 -0.000129  0.000303 -0.000402 -0.001493  0.003719
                                -0.015763  0.012199  0.013138  0.021607 -0.002400 -0.003317  0.012662 -0.032568 -0.006642 -0.002118
                                 0.000000 -0.000000 -0.000001  0.000000  0.000003 -0.000000 -0.000014  0.000001  0.000101 -0.000004
                                 0.001154 -0.000049  0.010208 -0.000433 -0.023778  0.001008  0.047715 -0.002022  0.236839 -0.010041
                                 0.374666 -0.015854  0.333241 -0.014061  0.169805 -0.007172  0.036066 -0.001542  0.025944 -0.001098
                                 0.020309 -0.000862  0.000752 -0.000043  0.002276 -0.000008  0.000062  0.003838 -0.000013  0.000099
                                 0.005440 -0.000018  0.000134

   5.1   0     0.0767   -1.1589 -0.000000  0.000000 -0.000000  0.000000 -0.000000  0.000000 -0.000000  0.000001 -0.000003  0.000007
                                -0.000020  0.000051 -0.000130  0.000326 -0.000806  0.001960 -0.004659  0.009839 -0.016211  0.098004
                                 0.382141 -0.556663 -0.242072  0.299682 -0.894743  1.695659 -0.355380  0.685221 -3.023323  2.420440
                                 0.000000 -0.000000 -0.000000  0.000000  0.000000 -0.000000 -0.000000  0.000000  0.000000  0.000000
                                 0.000007  0.000000  0.000058  0.000003 -0.000134 -0.000006  0.000225  0.000008  0.001021  0.000029
                                 0.001718  0.000056  0.001221  0.000032 -0.000532 -0.000075 -0.000989 -0.000087  0.000472  0.000036
                                 0.000662  0.000053 -0.000574 -0.000044  0.000050  0.000000 -0.000002  0.000063  0.000000 -0.000001
                                -0.000351 -0.000001  0.000020

   6.1   0     0.1609   -2.1760  0.000000 -0.000000  0.000000 -0.000000  0.000000 -0.000000  0.000000 -0.000002  0.000005 -0.000013
                                 0.000035 -0.000090  0.000228 -0.000568  0.001395 -0.003373  0.008292 -0.024780  0.098587 -0.421785
                                -0.969888  1.617494  0.828027 -0.865956  1.965109 -4.718129  0.900727 -1.700377  4.826712 -1.496090
                                 0.000000  0.000000 -0.000000 -0.000000  0.000000  0.000000 -0.000001 -0.000000  0.000003  0.000000
                                 0.000010  0.000000  0.000159  0.000008 -0.000389 -0.000020  0.000904  0.000052  0.005960  0.000383
                                 0.007051  0.000395  0.001822 -0.000022 -0.001035 -0.000153 -0.003440 -0.000310 -0.001331 -0.000134
                                -0.002174 -0.000209  0.000793  0.000108  0.000130  0.000000 -0.000004  0.000158  0.000000 -0.000004
                                -0.000962 -0.000002  0.000055

                                   1 2px     1 2px     1 2px     1 2px     1 2px     1 2px     1 2px     1 2px     1 2px     1 2px  
                                   1 2px     1 2px     1 2px     1 2px     1 2px     1 2px     1 2px     1 2px     1 2px     1 2px  
                                   1 2px     1 2px     1 2px     1 2px     1 4f1+    1 4f3+    1 4f1+    1 4f3+    1 4f1+    1 4f3+ 
                                   1 4f1+    1 4f3+ 

   1.2   2    -2.3494  -16.9110  0.000000 -0.000000  0.000000 -0.000000  0.000001 -0.000006  0.000021 -0.000070  0.000210 -0.000609
                                 0.001902 -0.008097  0.046021 -0.115954 -0.352578  0.343686  0.286665  0.038500 -0.004061  0.002865
                                 0.210895  0.542134 -0.001190  0.000397  0.002998  0.000092  0.003750  0.000137  0.003238  0.000019
                                 0.000297 -0.000028

   2.2   0     0.0691   -0.9294 -0.000000  0.000000 -0.000000  0.000000 -0.000001  0.000002 -0.000009  0.000028 -0.000081  0.000216
                                -0.000550  0.001385 -0.003726  0.012323 -0.279417 -0.041373 -0.039241  0.073017 -0.177672  0.485898
                                 0.294760  0.032078 -1.203085  1.636721 -0.000004 -0.000001  0.000000 -0.000000 -0.000007 -0.000000
                                 0.000056  0.000007

   3.2   0     0.1302   -1.6878  0.000000 -0.000000  0.000000 -0.000000  0.000001 -0.000004  0.000016 -0.000052  0.000153 -0.000408
                                 0.001028 -0.002487  0.005921 -0.020514  0.562419  0.070003  0.067871 -0.137539  0.415467 -1.025119
                                -0.588667 -0.082660  2.227123 -0.890873 -0.000050 -0.000008  0.000034  0.000001 -0.000116 -0.000011
                                 0.000716  0.000094

                                   1 2py     1 2py     1 2py     1 2py     1 2py     1 2py     1 2py     1 2py     1 2py     1 2py  
                                   1 2py     1 2py     1 2py     1 2py     1 2py     1 2py     1 2py     1 2py     1 2py     1 2py  
                                   1 2py     1 2py     1 2py     1 2py     1 4f1-    1 4f3-    1 4f1-    1 4f3-    1 4f1-    1 4f3- 
                                   1 4f1-    1 4f3- 

   1.3   2    -2.3488  -16.9096  0.000000 -0.000000  0.000000 -0.000000  0.000001 -0.000006  0.000021 -0.000070  0.000210 -0.000609
                                 0.001903 -0.008098  0.046021 -0.115974 -0.352132  0.343689  0.286864  0.038734 -0.004063  0.002881
                                 0.210509  0.541807 -0.001196  0.000399  0.002859  0.000101  0.003605  0.000147  0.002971  0.000033
                                 0.000230 -0.000025

   2.3   0     0.0691   -0.9293 -0.000000  0.000000 -0.000000  0.000000 -0.000001  0.000002 -0.000009  0.000028 -0.000081  0.000216
                                -0.000550  0.001385 -0.003726  0.012324 -0.279490 -0.041375 -0.039240  0.073006 -0.177717  0.485902
                                 0.294834  0.032096 -1.203265  1.636802 -0.000005 -0.000001 -0.000000 -0.000000 -0.000007 -0.000000
                                 0.000061  0.000007

   3.3   0     0.1302   -1.6859  0.000000 -0.000000  0.000000 -0.000000  0.000001 -0.000004  0.000016 -0.000052  0.000153 -0.000409
                                 0.001030 -0.002493  0.005941 -0.020575  0.563121  0.070199  0.068038 -0.137932  0.415571 -1.027247
                                -0.589441 -0.082593  2.228826 -0.891263 -0.000057 -0.000008  0.000031  0.000001 -0.000120 -0.000011
                                 0.000781  0.000092

                                   1 3d2-    1 3d2-    1 3d2-    1 3d2-    1 3d2-    1 3d2-    1 3d2-    1 3d2-    1 3d2-    1 3d2- 
                                   1 3d2-    1 3d2-    1 3d2-    1 3d2-    1 3d2-    1 3d2-    1 3d2-    1 5g2-    1 5g4-    1 5g2- 
                                   1 5g4-    1 5g2-    1 5g4- 

   1.4   2    -0.2562  -11.3229  0.000000 -0.000001  0.000003 -0.000013  0.000098  0.001146  0.010027 -0.023371  0.047572  0.230976
                                 0.363424  0.331164  0.189011  0.052701  0.026373  0.020300  0.002699  0.000945  0.000090  0.001109
                                 0.000134  0.002511  0.000232

   2.4   0     0.2164   -2.0517  0.000001 -0.000008  0.000041 -0.000167  0.000555 -0.001742  0.004120 -0.013645  0.074835  0.694750
                                 0.588220 -0.227559  0.248268 -0.562028 -0.510201 -0.774304  1.293521 -0.000019 -0.000008 -0.000049
                                -0.000022 -0.000024 -0.000006

   3.4   0     0.4795   -3.1844 -0.000003  0.000020 -0.000107  0.000432 -0.001459  0.003957 -0.014803  0.044965 -0.213749 -1.903031
                                -1.706885  0.474292 -0.797584  1.867690  1.309573  2.019097 -0.839444 -0.000053 -0.000026 -0.000246
                                -0.000100  0.000091  0.000028

                                   1 2pz     1 2pz     1 2pz     1 2pz     1 2pz     1 2pz     1 2pz     1 2pz     1 2pz     1 2pz  
                                   1 2pz     1 2pz     1 2pz     1 2pz     1 2pz     1 2pz     1 2pz     1 2pz     1 2pz     1 2pz  
                                   1 2pz     1 2pz     1 2pz     1 2pz     1 4f0     1 4f2+    1 4f0     1 4f2+    1 4f0     1 4f2+ 
                                   1 4f0     1 4f2+ 

   1.5   2    -2.3542  -16.9243  0.000000 -0.000000  0.000000 -0.000000  0.000001 -0.000006  0.000021 -0.000069  0.000209 -0.000607
                                 0.001898 -0.008090  0.046017 -0.115758 -0.356911  0.343679  0.284772  0.036248 -0.004053  0.002713
                                 0.214635  0.545314 -0.001130  0.000376 -0.001096  0.000228 -0.000873  0.000288 -0.003171  0.000243
                                -0.001018  0.000021

   2.5   0     0.0691   -0.9299 -0.000000  0.000000 -0.000000  0.000000 -0.000001  0.000002 -0.000009  0.000028 -0.000080  0.000216
                                -0.000549  0.001383 -0.003724  0.012313 -0.278696 -0.041359 -0.039248  0.073145 -0.177223  0.485878
                                 0.294036  0.031896 -1.201357  1.635946 -0.000012 -0.000000 -0.000009  0.000000  0.000002 -0.000001
                                 0.000121  0.000005

   3.5   0     0.1295   -1.7077  0.000000 -0.000000  0.000000 -0.000000  0.000001 -0.000004  0.000016 -0.000051  0.000150 -0.000401
                                 0.001008 -0.002431  0.005714 -0.019901  0.555614  0.068019  0.066179 -0.133348  0.414627 -1.003852
                                -0.581133 -0.083453  2.209814 -0.886831 -0.000148 -0.000005 -0.000030  0.000003 -0.000074 -0.000010
                                 0.001587  0.000063

                                   1 3d1+    1 3d1+    1 3d1+    1 3d1+    1 3d1+    1 3d1+    1 3d1+    1 3d1+    1 3d1+    1 3d1+ 
                                   1 3d1+    1 3d1+    1 3d1+    1 3d1+    1 3d1+    1 3d1+    1 3d1+    1 5g1+    1 5g3+    1 5g1+ 
                                   1 5g3+    1 5g1+    1 5g3+ 

   1.6   2    -0.2873  -11.4093  0.000000 -0.000001  0.000003 -0.000013  0.000099  0.001153  0.010107 -0.023570  0.047753  0.232793
                                 0.366905  0.332284  0.182350  0.046009  0.026841  0.020926  0.001736  0.000966  0.000075  0.001440
                                 0.000099  0.002406  0.000193

   2.6   0     0.2158   -2.0524  0.000001 -0.000008  0.000041 -0.000166  0.000552 -0.001727  0.004128 -0.013639  0.074552  0.691450
                                 0.585994 -0.225132  0.248118 -0.556822 -0.507145 -0.769796  1.291178 -0.000077 -0.000003 -0.000222
                                -0.000010 -0.000048 -0.000002

   3.6   0     0.4763   -3.1753 -0.000003  0.000020 -0.000105  0.000427 -0.001443  0.003919 -0.014607  0.044401 -0.211282 -1.881958
                                -1.687450  0.470627 -0.784314  1.862447  1.295699  1.997569 -0.841101 -0.000260 -0.000011 -0.001047
                                -0.000046  0.000360  0.000018

                                   1 3d1-    1 3d1-    1 3d1-    1 3d1-    1 3d1-    1 3d1-    1 3d1-    1 3d1-    1 3d1-    1 3d1- 
                                   1 3d1-    1 3d1-    1 3d1-    1 3d1-    1 3d1-    1 3d1-    1 3d1-    1 5g1-    1 5g3-    1 5g1- 
                                   1 5g3-    1 5g1-    1 5g3- 

   1.7   2    -0.2844  -11.4014  0.000000 -0.000001  0.000003 -0.000013  0.000099  0.001152  0.010100 -0.023552  0.047737  0.232625
                                 0.366583  0.332191  0.182969  0.046599  0.026801  0.020872  0.001810  0.001006  0.000075  0.001508
                                 0.000099  0.002507  0.000195

   2.7   0     0.2158   -2.0523  0.000001 -0.000008  0.000041 -0.000166  0.000552 -0.001729  0.004127 -0.013640  0.074580  0.691768
                                 0.586214 -0.225350  0.248140 -0.557309 -0.507431 -0.770218  1.291399 -0.000083 -0.000003 -0.000238
                                -0.000009 -0.000053 -0.000002

   3.7   0     0.4766   -3.1760 -0.000003  0.000020 -0.000106  0.000428 -0.001444  0.003923 -0.014625  0.044452 -0.211510 -1.883911
                                -1.689250  0.470976 -0.785538  1.862939  1.296991  1.999574 -0.840944 -0.000280 -0.000011 -0.001119
                                -0.000045  0.000377  0.000017

                                   1 4f2-    1 4f2-    1 4f2-    1 4f2- 

   1.8   0     1.0328   -4.1776 -0.002987  0.131542 -0.209458  1.103658

   2.8   0     2.1816   -5.2713  0.218589 -0.047300  1.264981 -0.780009

 HOMO      1.4    -0.256152 =      -6.9702eV
 LUMO      2.5     0.069065 =       1.8794eV
 LUMO-HOMO         0.325217 =       8.8496eV


 **********************************************************************************************************************************
 DATASETS  * FILE   NREC   LENGTH (MB)   RECORD NAMES
              1      19       20.40       500      610      700      900      950      970     1000      129      960     1100   
                                          VAR    BASINP    GEOM    SYMINP    ZMAT    AOBASIS   BASIS     P2S    ABASIS      S 
                                         1400     1410     1420     1200     1210     1080     1600     1650     1700   
                                           T        V       ECP      H0       H01     AOSYM     SMH    MOLCAS    OPER   

              2       5        5.66       200      700     1000      520     4202   
                                        OPTIONS   GEOM     BASIS   MCVARS     RHF  

 PROGRAMS   *        TOTAL       RHF  RCCSD(T)       RHF       INT
 CPU TIMES  *        44.26      0.82     14.97      0.50     26.98
 REAL TIME  *        60.73 SEC
 DISK USED  *         3.80 GB      
 SF USED    *       440.31 MB      
 GA USED    *         0.00 MB       (max)       0.00 MB       (current)
 **********************************************************************************************************************************


 PROGRAM * POP (Mulliken population analysis)

 
 Density matrix read from record         4202.2  Type=RHF/CHARGE (state 1.1)
 
 Population analysis by basis function type

 Unique atom        s        p        d        f        g    Total    Charge
   1  PD      3.99999  5.99968  8.99978  0.00032  0.00023 19.00000  - 1.00000


 **********************************************************************************************************************************
 DATASETS  * FILE   NREC   LENGTH (MB)   RECORD NAMES
              1      19       20.40       500      610      700      900      950      970     1000      129      960     1100   
                                          VAR    BASINP    GEOM    SYMINP    ZMAT    AOBASIS   BASIS     P2S    ABASIS      S 
                                         1400     1410     1420     1200     1210     1080     1600     1650     1700   
                                           T        V       ECP      H0       H01     AOSYM     SMH    MOLCAS    OPER   

              2       5        5.66       200      700     1000      520     4202   
                                        OPTIONS   GEOM     BASIS   MCVARS     RHF  

 PROGRAMS   *        TOTAL       POP       RHF  RCCSD(T)       RHF       INT
 CPU TIMES  *        44.27      0.01      0.82     14.97      0.50     26.98
 REAL TIME  *        60.74 SEC
 DISK USED  *         3.80 GB      
 SF USED    *       440.31 MB      
 GA USED    *         0.00 MB       (max)       0.00 MB       (current)
 **********************************************************************************************************************************


 PROGRAM * MULTI (Direct Multiconfiguration SCF)       Authors: P.J. Knowles, H.-J. Werner (1984)     S.T. Elbert (1988)


 Number of closed-shell orbitals:   5 (   2   1   1   0   1   0   0   0 )
 Number of active  orbitals:        5 (   2   0   0   1   0   1   1   0 )
 Number of external orbitals:     232 (  69  31  31  22  31  22  22   4 )

 State symmetry 1

 Number of electrons:     9    Spin symmetry=Doublet   Space symmetry=1
 Number of states:        2
 Number of CSFs:          2   (2 determinants, 5 intermediate states)

 State symmetry 2

 Number of electrons:     9    Spin symmetry=Doublet   Space symmetry=4
 Number of states:        1
 Number of CSFs:          1   (1 determinants, 5 intermediate states)

 State symmetry 3

 Number of electrons:     9    Spin symmetry=Doublet   Space symmetry=6
 Number of states:        1
 Number of CSFs:          1   (1 determinants, 5 intermediate states)

 State symmetry 4

 Number of electrons:     9    Spin symmetry=Doublet   Space symmetry=7
 Number of states:        1
 Number of CSFs:          1   (1 determinants, 5 intermediate states)

 Molecular orbitals read from record     4202.2  Type=RHF/CANONICAL (state 1.1)
 *** IN SYMMETRY 1 ORBITAL  1 SYMMETRY CONTAMINATION OF 0.292D-02 HAS BEEN REMOVED
 *** IN SYMMETRY 1 ORBITAL  2 SYMMETRY CONTAMINATION OF 0.107D-01 HAS BEEN REMOVED
 *** IN SYMMETRY 1 ORBITAL  3 SYMMETRY CONTAMINATION OF 0.487D-01 HAS BEEN REMOVED
 *** IN SYMMETRY 1 ORBITAL  4 SYMMETRY CONTAMINATION OF 0.132D+00 HAS BEEN REMOVED

 EXTRA SYMMETRY OF MOS IN SYMMETRY 1:   1 1 3 2 1 1 2 3 1 2   3 1 2 3 1 2 3 4 6 5   2 3 1 4 6 5 2 3 1 1   6 5 2 3 1 2 3 2 3 1
                                        2 3 1 2 3 1 1 2 3 1   2 3 1 1 2 3 1 2 3 1   1 2 3 1 1 1 1 1 1 1   1 1 4
 *** IN SYMMETRY 2 ORBITAL  1 SYMMETRY CONTAMINATION OF 0.537D-02 HAS BEEN REMOVED
 EXTRA SYMMETRY OF MOS IN SYMMETRY 2:   1 1 1 1 1 1 2 3 2 3   1 2 3 1 2 3 1 1 1 1   1 1 1 1 1 1 1 1 1 1   1 1
 *** IN SYMMETRY 3 ORBITAL  1 SYMMETRY CONTAMINATION OF 0.507D-02 HAS BEEN REMOVED
 EXTRA SYMMETRY OF MOS IN SYMMETRY 3:   1 1 1 1 1 1 2 3 2 3   1 2 3 1 2 3 1 1 1 1   1 1 1 1 1 1 1 1 1 1   1 1
 *** IN SYMMETRY 4 ORBITAL  1 SYMMETRY CONTAMINATION OF 0.385D-02 HAS BEEN REMOVED
 EXTRA SYMMETRY OF MOS IN SYMMETRY 4:   1 1 1 1 1 2 3 1 2 3   1 2 3 1 1 1 1 1 1 1   1 1 1
 *** IN SYMMETRY 5 ORBITAL  1 SYMMETRY CONTAMINATION OF 0.352D-02 HAS BEEN REMOVED
 EXTRA SYMMETRY OF MOS IN SYMMETRY 5:   1 1 1 1 1 1 2 3 2 3   1 2 3 1 2 3 1 1 1 1   1 1 1 1 1 1 1 1 1 1   1 1
 *** IN SYMMETRY 6 ORBITAL  1 SYMMETRY CONTAMINATION OF 0.399D-02 HAS BEEN REMOVED
 EXTRA SYMMETRY OF MOS IN SYMMETRY 6:   1 1 1 1 1 2 3 1 2 3   1 2 3 1 1 1 1 1 1 1   1 1 1
 *** IN SYMMETRY 7 ORBITAL  1 SYMMETRY CONTAMINATION OF 0.415D-02 HAS BEEN REMOVED
 EXTRA SYMMETRY OF MOS IN SYMMETRY 7:   1 1 1 1 1 2 3 1 2 3   1 2 3 1 1 1 1 1 1 1   1 1 1

 Wavefunction dump at record             5202.2

 Convergence thresholds  0.10E-01 (gradient)  0.10E-05 (energy)  0.10E-02 (step length)

 Weight factors for state symmetry  1:    0.20000   0.20000
 Weight factors for state symmetry  2:    0.20000
 Weight factors for state symmetry  3:    0.20000
 Weight factors for state symmetry  4:    0.20000

 Number of orbital rotations:      439   (     4 Core/Active    231 Core/Virtual   0 Active/Active    204 Active/Virtual)
 Total number of variables:        446


 ITER. MIC  NCI  NEG     ENERGY(VAR)     ENERGY(PROJ)   ENERGY CHANGE     GRAD(0)  GRAD(ORB)   GRAD(CI)     STEP       TIME

   1   48   16    0    -126.80406045    -126.80504870   -0.00098825    7.21842647 0.00000002 0.00000000  0.28D-01      0.21
   2   26   20    0    -126.80449139    -126.80504311   -0.00055172   *********** 0.00000002 0.00000000  0.96D-03      0.40
   3   48   28    0    -126.80504311    -126.80504311   -0.00000000    0.00000012 0.00000000 0.00000000  0.42D-06      0.60

 ** WVFN ****  CONVERGENCE REACHED, FINAL GRADIENT:  0.93D-11



 Results for state 1.1
 =====================

 !MCSCF STATE 1.1 Energy             -126.805043111944
 Nuclear energy                         0.00000000
 Kinetic energy                        48.51160666
 One electron energy                 -229.32767898
 Two electron energy                  102.52263586
 Virial ratio                           3.61391143

 !MCSCF STATE 1.1 Dipole moment         0.00000000     0.00000000     0.00000000
 Dipole moment /Debye                   0.00000000     0.00000000     0.00000000

 Results for state 2.1
 =====================

 !MCSCF STATE 2.1 Energy             -126.805043111944
 Nuclear energy                         0.00000000
 Kinetic energy                        48.51160666
 One electron energy                 -229.32767898
 Two electron energy                  102.52263586
 Virial ratio                           3.61391143

 !MCSCF STATE 2.1 Dipole moment         0.00000000     0.00000000     0.00000000
 Dipole moment /Debye                   0.00000000     0.00000000     0.00000000



 Results for state 1.4
 =====================

 !MCSCF STATE 1.4 Energy             -126.805043111944
 Nuclear energy                         0.00000000
 Kinetic energy                        48.51160666
 One electron energy                 -229.32767898
 Two electron energy                  102.52263586
 Virial ratio                           3.61391143

 !MCSCF STATE 1.4 Dipole moment         0.00000000     0.00000000     0.00000000
 Dipole moment /Debye                   0.00000000     0.00000000     0.00000000



 Results for state 1.6
 =====================

 !MCSCF STATE 1.6 Energy             -126.805043111944
 Nuclear energy                         0.00000000
 Kinetic energy                        48.51160666
 One electron energy                 -229.32767898
 Two electron energy                  102.52263586
 Virial ratio                           3.61391143

 !MCSCF STATE 1.6 Dipole moment         0.00000000     0.00000000     0.00000000
 Dipole moment /Debye                   0.00000000     0.00000000     0.00000000



 Results for state 1.7
 =====================

 !MCSCF STATE 1.7 Energy             -126.805043111944
 Nuclear energy                         0.00000000
 Kinetic energy                        48.51160666
 One electron energy                 -229.32767898
 Two electron energy                  102.52263586
 Virial ratio                           3.61391143

 !MCSCF STATE 1.7 Dipole moment         0.00000000     0.00000000     0.00000000
 Dipole moment /Debye                   0.00000000     0.00000000     0.00000000

 State-averaged charge density matrix saved on record  5202.2 (density set 1)


 NATURAL ORBITALS (state averaged)
 =================================

   Orb     Occ        Energy       Coefficients

                                   1 1s      1 1s      1 1s      1 1s      1 1s      1 1s      1 1s      1 1s      1 1s      1 1s   
                                   1 1s      1 1s      1 1s      1 1s      1 1s      1 1s      1 1s      1 1s      1 1s      1 1s   
                                   1 1s      1 1s      1 1s      1 1s      1 1s      1 1s      1 1s      1 1s      1 1s      1 1s   
                                   1 3d0     1 3d2+    1 3d0     1 3d2+    1 3d0     1 3d2+    1 3d0     1 3d2+    1 3d0     1 3d2+ 
                                   1 3d0     1 3d2+    1 3d0     1 3d2+    1 3d0     1 3d2+    1 3d0     1 3d2+    1 3d0     1 3d2+ 
                                   1 3d0     1 3d2+    1 3d0     1 3d2+    1 3d0     1 3d2+    1 3d0     1 3d2+    1 3d0     1 3d2+ 
                                   1 3d0     1 3d2+    1 3d0     1 3d2+    1 5g0     1 5g4+    1 5g2+    1 5g0     1 5g4+    1 5g2+ 
                                   1 5g0     1 5g4+    1 5g2+ 

   1.1  2.00000    -3.818317    -0.000000  0.000000 -0.000000  0.000000 -0.000000  0.000000 -0.000001  0.000003 -0.000008  0.000021
                                -0.000056  0.000145 -0.000371  0.000934 -0.002327  0.005675 -0.011667 -0.011214  0.278862 -0.782490
                                -0.193197  0.910337  0.522571  0.030437 -0.014001  0.006700  0.138122 -0.062540 -0.002786  0.000688
                                 0.000000  0.000000  0.000000  0.000000  0.000000  0.000000  0.000000  0.000000  0.000000  0.000000
                                 0.000000  0.000000  0.000000  0.000000  0.000000  0.000000  0.000000  0.000000  0.000000  0.000000
                                 0.000000  0.000000  0.000000  0.000000  0.000000  0.000000  0.000000  0.000000  0.000000  0.000000
                                 0.000000  0.000000  0.000000  0.000000  0.000000  0.000000  0.000000  0.000000  0.000000  0.000000
                                 0.000000  0.000000  0.000000

   2.1  2.00000    -0.022309     0.000000 -0.000000  0.000000 -0.000000  0.000000 -0.000000  0.000000 -0.000000  0.000001 -0.000004
                                 0.000011 -0.000029  0.000073 -0.000185  0.000463 -0.001149  0.002470  0.001596 -0.056725  0.179216
                                 0.064733 -0.279229 -0.230230  0.099534  0.314729  0.350312 -0.060322  0.070528  0.298291  0.132461
                                 0.000000  0.000000  0.000000  0.000000  0.000000  0.000000  0.000000  0.000000  0.000000  0.000000
                                 0.000000  0.000000  0.000000  0.000000  0.000000  0.000000  0.000000  0.000000  0.000000  0.000000
                                 0.000000  0.000000  0.000000  0.000000  0.000000  0.000000  0.000000  0.000000  0.000000  0.000000
                                 0.000000  0.000000  0.000000  0.000000  0.000000  0.000000  0.000000  0.000000  0.000000  0.000000
                                 0.000000  0.000000  0.000000

   3.1  1.80000    -0.216678     0.000000  0.000000  0.000000  0.000000  0.000000  0.000000  0.000000  0.000000  0.000000  0.000000
                                 0.000000  0.000000  0.000000  0.000000  0.000000  0.000000  0.000000  0.000000  0.000000  0.000000
                                 0.000000  0.000000  0.000000  0.000000  0.000000  0.000000  0.000000  0.000000  0.000000  0.000000
                                 0.000000  0.000000 -0.000001  0.000000  0.000003  0.000000 -0.000013  0.000000  0.000099  0.000000
                                 0.001150  0.000000  0.010082  0.000000 -0.023503  0.000000  0.047675  0.000000  0.232360  0.000000
                                 0.366083  0.000000  0.331962  0.000000  0.184265  0.000000  0.047936  0.000000  0.026571  0.000000
                                 0.020628  0.000000  0.001995  0.000000  0.000000  0.000000  0.000000  0.000000  0.000000  0.000000
                                 0.000000  0.000000  0.000000

   4.1  1.80000    -0.216678     0.000000  0.000000  0.000000  0.000000  0.000000  0.000000  0.000000  0.000000  0.000000  0.000000
                                 0.000000  0.000000  0.000000  0.000000  0.000000  0.000000  0.000000  0.000000  0.000000  0.000000
                                 0.000000  0.000000  0.000000  0.000000  0.000000  0.000000  0.000000  0.000000  0.000000  0.000000
                                 0.000000  0.000000  0.000000 -0.000001  0.000000  0.000003  0.000000 -0.000013  0.000000  0.000099
                                 0.000000  0.001150  0.000000  0.010082  0.000000 -0.023503  0.000000  0.047675  0.000000  0.232360
                                 0.000000  0.366083  0.000000  0.331962  0.000000  0.184265  0.000000  0.047936  0.000000  0.026571
                                 0.000000  0.020628  0.000000  0.001995  0.000000  0.000000  0.000000  0.000000  0.000000  0.000000
                                 0.000000  0.000000  0.000000

                                   1 2px     1 2px     1 2px     1 2px     1 2px     1 2px     1 2px     1 2px     1 2px     1 2px  
                                   1 2px     1 2px     1 2px     1 2px     1 2px     1 2px     1 2px     1 2px     1 2px     1 2px  
                                   1 2px     1 2px     1 2px     1 2px     1 4f1+    1 4f3+    1 4f1+    1 4f3+    1 4f1+    1 4f3+ 
                                   1 4f1+    1 4f3+ 

   1.2  2.00000    -2.350613     0.000000 -0.000000  0.000000 -0.000000  0.000001 -0.000006  0.000021 -0.000070  0.000210 -0.000608
                                 0.001901 -0.008096  0.046022 -0.115903 -0.353835  0.343714  0.286106  0.037834 -0.004063  0.002820
                                 0.211966  0.543089 -0.001172  0.000391  0.000000  0.000000  0.000000  0.000000  0.000000  0.000000
                                 0.000000  0.000000

                                   1 2py     1 2py     1 2py     1 2py     1 2py     1 2py     1 2py     1 2py     1 2py     1 2py  
                                   1 2py     1 2py     1 2py     1 2py     1 2py     1 2py     1 2py     1 2py     1 2py     1 2py  
                                   1 2py     1 2py     1 2py     1 2py     1 4f1-    1 4f3-    1 4f1-    1 4f3-    1 4f1-    1 4f3- 
                                   1 4f1-    1 4f3- 

   1.3  2.00000    -2.350613     0.000000 -0.000000  0.000000 -0.000000  0.000001 -0.000006  0.000021 -0.000070  0.000210 -0.000608
                                 0.001901 -0.008096  0.046022 -0.115903 -0.353835  0.343714  0.286106  0.037834 -0.004063  0.002820
                                 0.211966  0.543089 -0.001172  0.000391  0.000000  0.000000  0.000000  0.000000  0.000000  0.000000
                                 0.000000  0.000000

                                   1 3d2-    1 3d2-    1 3d2-    1 3d2-    1 3d2-    1 3d2-    1 3d2-    1 3d2-    1 3d2-    1 3d2- 
                                   1 3d2-    1 3d2-    1 3d2-    1 3d2-    1 3d2-    1 3d2-    1 3d2-    1 5g2-    1 5g4-    1 5g2- 
                                   1 5g4-    1 5g2-    1 5g4- 

   1.4  1.80000    -0.216678     0.000000 -0.000001  0.000003 -0.000013  0.000099  0.001150  0.010082 -0.023503  0.047675  0.232360
                                 0.366083  0.331962  0.184265  0.047936  0.026571  0.020628  0.001995  0.000000  0.000000  0.000000
                                 0.000000  0.000000  0.000000

                                   1 2pz     1 2pz     1 2pz     1 2pz     1 2pz     1 2pz     1 2pz     1 2pz     1 2pz     1 2pz  
                                   1 2pz     1 2pz     1 2pz     1 2pz     1 2pz     1 2pz     1 2pz     1 2pz     1 2pz     1 2pz  
                                   1 2pz     1 2pz     1 2pz     1 2pz     1 4f0     1 4f2+    1 4f0     1 4f2+    1 4f0     1 4f2+ 
                                   1 4f0     1 4f2+ 

   1.5  2.00000    -2.350613     0.000000 -0.000000  0.000000 -0.000000  0.000001 -0.000006  0.000021 -0.000070  0.000210 -0.000608
                                 0.001901 -0.008096  0.046022 -0.115903 -0.353835  0.343714  0.286106  0.037834 -0.004063  0.002820
                                 0.211966  0.543089 -0.001172  0.000391  0.000000  0.000000  0.000000  0.000000  0.000000  0.000000
                                 0.000000  0.000000

                                   1 3d1+    1 3d1+    1 3d1+    1 3d1+    1 3d1+    1 3d1+    1 3d1+    1 3d1+    1 3d1+    1 3d1+ 
                                   1 3d1+    1 3d1+    1 3d1+    1 3d1+    1 3d1+    1 3d1+    1 3d1+    1 5g1+    1 5g3+    1 5g1+ 
                                   1 5g3+    1 5g1+    1 5g3+ 

   1.6  1.80000    -0.216678     0.000000 -0.000001  0.000003 -0.000013  0.000099  0.001150  0.010082 -0.023503  0.047675  0.232360
                                 0.366083  0.331962  0.184265  0.047936  0.026571  0.020628  0.001995  0.000000  0.000000  0.000000
                                 0.000000  0.000000  0.000000

                                   1 3d1-    1 3d1-    1 3d1-    1 3d1-    1 3d1-    1 3d1-    1 3d1-    1 3d1-    1 3d1-    1 3d1- 
                                   1 3d1-    1 3d1-    1 3d1-    1 3d1-    1 3d1-    1 3d1-    1 3d1-    1 5g1-    1 5g3-    1 5g1- 
                                   1 5g3-    1 5g1-    1 5g3- 

   1.7  1.80000    -0.216678     0.000000 -0.000001  0.000003 -0.000013  0.000099  0.001150  0.010082 -0.023503  0.047675  0.232360
                                 0.366083  0.331962  0.184265  0.047936  0.026571  0.020628  0.001995  0.000000  0.000000  0.000000
                                 0.000000  0.000000  0.000000

 Total charge:  -1.000000000000
 

 EXTRA SYMMETRY OF MOS IN SYMMETRY 1:   1 1 2 3 1 1 3 2 1 3   2 1 3 2 1 2 3 6 5 4   3 2 1 6 4 5 3 2 1 4   6 5 3 2 1 3 2 3 2 1
                                        2 3 1 2 3 1 1 3 2 1   2 3 1 1 2 3 1 2 3 1   1 2 3 1 1 1 1 1 1 1   1 1 1
 EXTRA SYMMETRY OF MOS IN SYMMETRY 2:   1 1 1 1 1 1 3 2 2 3   1 3 2 1 3 2 1 1 1 1   1 1 1 1 1 1 1 1 1 1   1 1
 EXTRA SYMMETRY OF MOS IN SYMMETRY 3:   1 1 1 1 1 1 3 2 3 2   1 3 2 1 2 3 1 1 1 1   1 1 1 1 1 1 1 1 1 1   1 1
 EXTRA SYMMETRY OF MOS IN SYMMETRY 4:   1 1 1 1 1 3 2 1 3 2   1 2 3 1 1 1 1 1 1 1   1 1 1
 EXTRA SYMMETRY OF MOS IN SYMMETRY 5:   1 1 1 1 1 1 2 3 3 2   1 3 2 1 3 2 1 1 1 1   1 1 1 1 1 1 1 1 1 1   1 1
 EXTRA SYMMETRY OF MOS IN SYMMETRY 6:   1 1 1 1 1 2 3 1 2 3   1 3 2 1 1 1 1 1 1 1   1 1 1
 EXTRA SYMMETRY OF MOS IN SYMMETRY 7:   1 1 1 1 1 3 2 1 2 3   1 3 2 1 1 1 1 1 1 1   1 1 1

 Natural orbital dump (state averaged) at molpro section  5202.2    (Orbital set 2)


 CI vector for state symmetry 1
 ==============================

 a2 2 2 2          0.0000000   1.0000000
 2a 2 2 2          1.0000000   0.0000000

 TOTAL ENERGIES                      -126.80504311  -126.80504311

 CI vector for state symmetry 2
 ==============================

 22 a 2 2          1.0000000

 TOTAL ENERGIES                      -126.80504311

 CI vector for state symmetry 3
 ==============================

 22 2 a 2          1.0000000

 TOTAL ENERGIES                      -126.80504311

 CI vector for state symmetry 4
 ==============================

 22 2 2 a          1.0000000

 TOTAL ENERGIES                      -126.80504311



 **********************************************************************************************************************************
 DATASETS  * FILE   NREC   LENGTH (MB)   RECORD NAMES
              1      20       25.81       500      610      700      900      950      970     1000      129      960     1100   
                                          VAR    BASINP    GEOM    SYMINP    ZMAT    AOBASIS   BASIS     P2S    ABASIS      S 
                                         1400     1410     1420     1200     1210     1080     1600     1650     1700     1380   
                                           T        V       ECP      H0       H01     AOSYM     SMH    MOLCAS    OPER     JKOP   

              2       6        8.52       200      700     1000      520     4202     5202   
                                        OPTIONS   GEOM     BASIS   MCVARS     RHF     MCSCF   

 PROGRAMS   *        TOTAL     MULTI       POP       RHF  RCCSD(T)       RHF       INT
 CPU TIMES  *        45.06      0.79      0.01      0.82     14.97      0.50     26.98
 REAL TIME  *        62.29 SEC
 DISK USED  *         3.80 GB      
 SF USED    *       440.31 MB      
 GA USED    *         0.00 MB       (max)       0.00 MB       (current)
 **********************************************************************************************************************************


 PROGRAM * RHF-SCF (OPEN SHELL)       Authors: W. Meyer, H.-J. Werner


 NUMBER OF ELECTRONS:      10+    9-    SPACE SYMMETRY=1    SPIN SYMMETRY: Doublet 
 CONVERGENCE THRESHOLDS:    1.00E-05 (Density)    1.00E-07 (Energy)
 MAX. NUMBER OF ITERATIONS:        0
 INTERPOLATION TYPE:            DIIS
 INTERPOLATION STEPS:              2 (START)      1 (STEP)
 LEVEL SHIFTS:                 -0.60 (CLOSED) -0.30 (OPEN) 

 Number of closed-shell orbitals:    9 (   3   1   1   1   1   1   1   0 )
 Number of open-shell orbitals:      1 (   1   0   0   0   0   0   0   0 )


 Molecular orbitals read from record     5202.2  Type=MCSCF/NATURAL (state averaged)

 Molecular orbital dump at record        2102.2

 ITERATION    DDIFF          GRAD             ENERGY        2-EL.EN.            DIPOLE MOMENTS         DIIS   ORB.
    1      0.000D+00      0.000D+00      -126.80504311    205.045272    0.00000    0.00000    0.00000    0    start

 Final alpha occupancy:   4   1   1   1   1   1   1   0
 Final beta  occupancy:   3   1   1   1   1   1   1   0

 !RHF STATE 1.1 Energy               -126.805043111944
 Nuclear energy                         0.00000000
 One-electron energy                 -229.32767898
 Two-electron energy                  102.52263586
 Virial quotient                       -2.61391143
 !RHF STATE 1.1 Dipole moment           0.00000000     0.00000000     0.00000000
 Dipole moment /Debye                   0.00000000     0.00000000     0.00000000

 Orbital energies:

         1.1          2.1          3.1          4.1          5.1          6.1
     -3.818317    -0.022309    -0.216678    -0.216678     0.076792     0.161635

         1.2          2.2          3.2
     -2.350613     0.069091     0.130030

         1.3          2.3          3.3
     -2.350613     0.069091     0.130030

         1.4          2.4          3.4
     -0.216678     0.216101     0.478825

         1.5          2.5          3.5
     -2.350613     0.069091     0.130030

         1.6          2.6          3.6
     -0.216678     0.216101     0.478825

         1.7          2.7          3.7
     -0.216678     0.216101     0.478825

         1.8          2.8
      1.034610     2.190116

 HOMO      4.1    -0.216678 =      -5.8961eV
 LUMO      2.2     0.069091 =       1.8801eV
 LUMO-HOMO         0.285769 =       7.7762eV


 **********************************************************************************************************************************
 DATASETS  * FILE   NREC   LENGTH (MB)   RECORD NAMES
              1      20       25.81       500      610      700      900      950      970     1000      129      960     1100   
                                          VAR    BASINP    GEOM    SYMINP    ZMAT    AOBASIS   BASIS     P2S    ABASIS      S 
                                         1400     1410     1420     1200     1210     1080     1600     1650     1700     1380   
                                           T        V       ECP      H0       H01     AOSYM     SMH    MOLCAS    OPER     JKOP   

              2       7       11.55       200      700     1000      520     4202     5202     2102   
                                        OPTIONS   GEOM     BASIS   MCVARS     RHF     MCSCF     RHF  

 PROGRAMS   *        TOTAL       RHF     MULTI       POP       RHF  RCCSD(T)       RHF       INT
 CPU TIMES  *        45.10      0.04      0.79      0.01      0.82     14.97      0.50     26.98
 REAL TIME  *        62.38 SEC
 DISK USED  *         3.80 GB      
 SF USED    *       440.31 MB      
 GA USED    *         0.00 MB       (max)       0.00 MB       (current)
 **********************************************************************************************************************************
 SETTING SCF(2)         =      -126.80504311  AU                              
 SETTING _CC_NORM_MAX   =         2.00000000                                  


[...]

              2      17       37.89       200      700     1000      520     4202     5202     2102     2105     5202(1)  2107   
                                        OPTIONS   GEOM     BASIS   MCVARS     RHF     MCSCF     RHF      RHF     MCSCF     RHF  
                                         2109     2111     2113     2115     2117     2119     2120   
                                          RHF      RHF      RHF      RHF      RHF      RHF      RHF  

 PROGRAMS   *        TOTAL       RHF  RCCSD(T)       RHF  RCCSD(T)       RHF  RCCSD(T)       RHF     MULTI       POP       RHF
 CPU TIMES  *       208.27      0.51      2.56      0.53      7.02      0.79      8.74      0.08      0.73      0.01      0.73
 REAL TIME  *       338.22 SEC
 DISK USED  *         4.37 GB      
 SF USED    *       496.45 MB      
 GA USED    *         0.00 MB       (max)       0.00 MB       (current)
 **********************************************************************************************************************************
 SETTING SCF(12)        =       -69.67192198  AU                              
 SETTING _CC_NORM_MAX   =         2.00000000                                  


 PROGRAM * CCSD (Restricted open-shell coupled cluster)     Authors: C. Hampel, H.-J. Werner, 1991, M. Deegan, P.J. Knowles, 1992


 Convergence thresholds:  THRVAR = 1.00D-08  THRDEN = 1.00D-06

 CCSD(T)     terms to be evaluated (factor= 1.000)


 Number of closed-shell orbitals:   1 (   1   0   0   0   0   0   0   0 )
 Number of active  orbitals:        3 (   0   1   1   0   1   0   0   0 )
 Number of external orbitals:     238 (  72  31  31  23  31  23  23   4 )

 Memory could be reduced to 19.53 Mwords without degradation in triples

 Number of N-1 electron functions:               5
 Number of N-2 electron functions:              10
 Number of singly external CSFs:               240
 Number of doubly external CSFs:             54682
 Total number of CSFs:                       54922

 Molecular orbitals read from record     2120.2  Type=RHF/CANONICAL (state 1.8)

 Integral transformation finished. Total CPU:   0.38 sec, npass=  1  Memory used:   2.49 MW

 Starting RMP2 calculation

 Wavefunction is spin-projected

 ITER.      SQ.NORM     CORR.ENERGY   TOTAL ENERGY   ENERGY CHANGE        DEN1      VAR(S)    VAR(P)  DIIS     TIME
   1      1.02057893    -0.14531172   -69.81723370    -0.14531172    -0.00011955  0.96D-08  0.19D-04  1  1     0.40
   2      1.02062478    -0.14543610   -69.81735808    -0.00012438    -0.00000001  0.28D-11  0.16D-08  2  2     0.41
   3      1.02062499    -0.14543650   -69.81735848    -0.00000040    -0.00000000  0.26D-15  0.17D-12  3  3     0.41

 Norm of t1 vector:      0.00756475      S-energy:    -0.00046188      T1 diagnostic:  0.00011265
 Norm of t2 vector:      0.14341466      P-energy:    -0.14497462
                                         Alpha-Beta:  -0.10984328
                                         Alpha-Alpha: -0.03513134
                                         Beta-Beta:    0.00000000

 Spin contamination <S**2-Sz**2-Sz>     0.00000000
  Reference energy                    -69.671921980057
  RHF-RMP2 correlation energy          -0.145436500190
 !RHF-RMP2 energy                     -69.817358480247
 (NB above energy spin projected)

 Starting RCCSD calculation

 ITER.      SQ.NORM     CORR.ENERGY   TOTAL ENERGY   ENERGY CHANGE        DEN1      VAR(S)    VAR(P)  DIIS     TIME
   1      1.02505541    -0.15787908   -69.82980106    -0.15787908    -0.00273140  0.10D-04  0.41D-03  1  1     0.53
   2      1.02632872    -0.16078185   -69.83270383    -0.00290277    -0.00003020  0.18D-07  0.40D-05  2  2     0.60
   3      1.02642717    -0.16092217   -69.83284415    -0.00014032    -0.00000041  0.64D-09  0.52D-07  3  3     0.66
   4      1.02643697    -0.16093677   -69.83285875    -0.00001460    -0.00000000  0.27D-10  0.23D-09  4  4     0.72
   5      1.02643709    -0.16093668   -69.83285866     0.00000010    -0.00000000  0.88D-13  0.13D-11  5  5     0.93

 Norm of t1 vector:      0.00810517      S-energy:    -0.00043926      T1 diagnostic:  0.00116255
                                                                       D1 diagnostic:  0.00163103
 Norm of t2 vector:      0.16239274      P-energy:    -0.16049741
                                         Alpha-Beta:  -0.12449155
                                         Alpha-Alpha: -0.03600587
                                         Beta-Beta:    0.00000000

 Spin contamination <S**2-Sz**2-Sz>     0.00000000

 Memory could be reduced to 19.88 Mwords without degradation in triples
 

  Correlated core orbitals:             1.1       1.2       1.3       1.5
  Orbital energies:                   -13.3641  -11.6094  -11.6094  -11.6094
 
  RCCSD core-core energy               -0.160936675388
 

 RESULTS
 =======

  Reference energy                    -69.671921980057
  RCCSD singles energy                 -0.000439261269
  RCCSD pair energy                    -0.160497414118
  RCCSD correlation energy             -0.160936675388
  Triples (T) contribution             -0.003067000112
  Total correlation energy             -0.164003675500
 
  RHF-RCCSD energy                    -69.832858655445
  RHF-RCCSD[T] energy                 -69.835924461597
  RHF-RCCSD-T energy                  -69.835923644954
 !RHF-RCCSD(T) energy                 -69.835925655557

 Program statistics:

 Available memory in ccsd:               511999732
 Min. memory needed in ccsd:                440371
 Max. memory used in ccsd:                  489107
 Max. memory used in cckext:                507829 ( 5 integral passes)
 Max. memory used in cckint:               2485465 ( 1 integral passes)



 **********************************************************************************************************************************
 DATASETS  * FILE   NREC   LENGTH (MB)   RECORD NAMES
              1      20       25.81       500      610      700      900      950      970     1000      129      960     1100   
                                          VAR    BASINP    GEOM    SYMINP    ZMAT    AOBASIS   BASIS     P2S    ABASIS      S 
                                         1400     1410     1420     1200     1210     1080     1600     1650     1700     1380   
                                           T        V       ECP      H0       H01     AOSYM     SMH    MOLCAS    OPER     JKOP   

              2      17       37.89       200      700     1000      520     4202     5202     2102     2105     5202(1)  2107   
                                        OPTIONS   GEOM     BASIS   MCVARS     RHF     MCSCF     RHF      RHF     MCSCF     RHF  
                                         2109     2111     2113     2115     2117     2119     2120   
                                          RHF      RHF      RHF      RHF      RHF      RHF      RHF  

 PROGRAMS   *        TOTAL  RCCSD(T)       RHF  RCCSD(T)       RHF  RCCSD(T)       RHF  RCCSD(T)       RHF     MULTI       POP
 CPU TIMES  *       210.03      1.76      0.51      2.56      0.53      7.02      0.79      8.74      0.08      0.73      0.01
 REAL TIME  *       341.23 SEC
 DISK USED  *         4.37 GB      
 SF USED    *       496.45 MB      
 GA USED    *         0.00 MB       (max)       0.00 MB       (current)
 **********************************************************************************************************************************
 SETTING CCSD(12)       =       -69.83592566  AU                              

 DO I                   =        13.00000000   

 Running procedure=XVIIS2


 PROGRAM * RHF-SCF (CLOSED SHELL)       Authors: W. Meyer, H.-J. Werner


 NUMBER OF ELECTRONS:       1+    1-    SPACE SYMMETRY=1    SPIN SYMMETRY: Singlet 
 CONVERGENCE THRESHOLDS:    1.00E-05 (Density)    1.00E-07 (Energy)
 MAX. NUMBER OF ITERATIONS:       60
 INTERPOLATION TYPE:            DIIS
 INTERPOLATION STEPS:              2 (START)      1 (STEP)
 LEVEL SHIFTS:                  0.00 (CLOSED)  0.00 (OPEN) 



 Orbital guess generated from atomic densities. Full valence occupancy:    4   1   1   1   1   1   1   0


 Molecular orbital dump at record        2121.2

 Initial occupancy:   1   0   0   0   0   0   0   0

 ITERATION    DDIFF          GRAD             ENERGY        2-EL.EN.            DIPOLE MOMENTS         DIIS   ORB.
    1      0.000D+00      0.000D+00       -31.69381778      1.870105    0.00000    0.00000    0.00000    0    start
    2      0.000D+00      0.167D+00       -32.28390728      2.091105    0.00000    0.00000    0.00000    1    diag
    3      0.376D-01      0.125D-01       -32.28709981      2.107067    0.00000    0.00000    0.00000    2    diag
    4      0.490D-02      0.741D-04       -32.28709990      2.107142    0.00000    0.00000    0.00000    3    diag
    5      0.122D-03      0.177D-05       -32.28709990      2.107140    0.00000    0.00000    0.00000    4    diag
    6      0.760D-06      0.351D-07       -32.28709990      2.107140    0.00000    0.00000    0.00000    0    orth

 Final occupancy:   1   0   0   0   0   0   0   0

 !RHF STATE 1.1 Energy                -32.287099897786
 Nuclear energy                         0.00000000
 One-electron energy                  -33.34066968
 Two-electron energy                    1.05356978
 Virial quotient                       -5.95013833
 !RHF STATE 1.1 Dipole moment           0.00000000     0.00000000     0.00000000
 Dipole moment /Debye                   0.00000000     0.00000000     0.00000000

 Orbital energies:

         1.1          2.1          3.1
    -15.616765   -10.955320   -10.955320

         1.2          2.2
    -13.323271    -8.318625

         1.3          2.3
    -13.323271    -8.318625

         1.4          2.4
    -10.955320    -6.489511

         1.5          2.5
    -13.323271    -8.318625

         1.6          2.6
    -10.955320    -6.489511

         1.7          2.7
    -10.955320    -6.489511

         1.8          2.8
     -8.318625    -5.254172

 HOMO      1.1   -15.616765 =    -424.9538eV
 LUMO      1.2   -13.323271 =    -362.5446eV
 LUMO-HOMO         2.293495 =      62.4092eV


 **********************************************************************************************************************************
 DATASETS  * FILE   NREC   LENGTH (MB)   RECORD NAMES
              1      20       25.81       500      610      700      900      950      970     1000      129      960     1100   
                                          VAR    BASINP    GEOM    SYMINP    ZMAT    AOBASIS   BASIS     P2S    ABASIS      S 
                                         1400     1410     1420     1200     1210     1080     1600     1650     1700     1380   
                                           T        V       ECP      H0       H01     AOSYM     SMH    MOLCAS    OPER     JKOP   

              2      18       40.71       200      700     1000      520     4202     5202     2102     2105     5202(1)  2107   
                                        OPTIONS   GEOM     BASIS   MCVARS     RHF     MCSCF     RHF      RHF     MCSCF     RHF  
                                         2109     2111     2113     2115     2117     2119     2120     2121   
                                          RHF      RHF      RHF      RHF      RHF      RHF      RHF      RHF  

 PROGRAMS   *        TOTAL       RHF  RCCSD(T)       RHF  RCCSD(T)       RHF  RCCSD(T)       RHF  RCCSD(T)       RHF     MULTI
 CPU TIMES  *       210.48      0.45      1.76      0.51      2.56      0.53      7.02      0.79      8.74      0.08      0.73
 REAL TIME  *       341.75 SEC
 DISK USED  *         4.37 GB      
 SF USED    *       496.45 MB      
 GA USED    *         0.00 MB       (max)       0.00 MB       (current)
 **********************************************************************************************************************************
 SETTING SCF(13)        =       -32.28709990  AU                              
 SETTING _CC_NORM_MAX   =         2.00000000                                  


 PROGRAM * CCSD (Restricted open-shell coupled cluster)     Authors: C. Hampel, H.-J. Werner, 1991, M. Deegan, P.J. Knowles, 1992


 Convergence thresholds:  THRVAR = 1.00D-08  THRDEN = 1.00D-06

 CCSD(T)     terms to be evaluated (factor= 1.000)


 Number of closed-shell orbitals:   1 (   1   0   0   0   0   0   0   0 )
 Number of external orbitals:     241 (  72  32  32  23  32  23  23   4 )

 Memory could be reduced to 14.26 Mwords without degradation in triples

 Number of N-1 electron functions:               2
 Number of N-2 electron functions:               1
 Number of singly external CSFs:               144
 Number of doubly external CSFs:              9859
 Total number of CSFs:                       10003

 Molecular orbitals read from record     2121.2  Type=RHF/CANONICAL (state 1.1)

 Integral transformation finished. Total CPU:   0.09 sec, npass=  1  Memory used:   1.01 MW

 Starting RMP2 calculation

 Wavefunction is spin-projected

 ITER.      SQ.NORM     CORR.ENERGY   TOTAL ENERGY   ENERGY CHANGE        DEN1      VAR(S)    VAR(P)  DIIS     TIME
   1      1.01087466    -0.05955449   -32.34665439    -0.05955449    -0.00007829  0.42D-19  0.16D-04  1  1     0.12
   2      1.01090901    -0.05963593   -32.34673583    -0.00008144    -0.00000000  0.18D-22  0.32D-09  2  2     0.12
   3      1.01090910    -0.05963608   -32.34673598    -0.00000015    -0.00000000  0.29D-27  0.46D-14  3  3     0.12

 Norm of t1 vector:      0.00000001      S-energy:    -0.00000000      T1 diagnostic:  0.00000001
 Norm of t2 vector:      0.10444665      P-energy:    -0.05963608
                                         Alpha-Beta:  -0.05963608
                                         Alpha-Alpha:  0.00000000
                                         Beta-Beta:    0.00000000

 Spin contamination <S**2-Sz**2-Sz>     0.00000000
  Reference energy                    -32.287099897786
  RHF-RMP2 correlation energy          -0.059636078098
 !RHF-RMP2 energy                     -32.346735975884
 (NB above energy spin projected)

 Starting RCCSD calculation

 ITER.      SQ.NORM     CORR.ENERGY   TOTAL ENERGY   ENERGY CHANGE        DEN1      VAR(S)    VAR(P)  DIIS     TIME
   1      1.01483754    -0.06669160   -32.35379150    -0.06669160    -0.00288211  0.30D-05  0.56D-03  1  1     0.13
   2      1.01721797    -0.07050459   -32.35760449    -0.00381299    -0.00002865  0.29D-07  0.37D-05  2  2     0.15
   3      1.01740034    -0.07074737   -32.35784727    -0.00024278    -0.00000018  0.48D-10  0.18D-07  3  3     0.18
   4      1.01739959    -0.07074421   -32.35784411     0.00000316    -0.00000000  0.22D-12  0.71D-10  4  4     0.20
   5      1.01739996    -0.07074476   -32.35784466    -0.00000055    -0.00000000  0.74D-14  0.97D-13  5  5     0.21

 Norm of t1 vector:      0.00222363      S-energy:    -0.00000000      T1 diagnostic:  0.00111182
                                                                       D1 diagnostic:  0.00157235
 Norm of t2 vector:      0.13189015      P-energy:    -0.07074476
                                         Alpha-Beta:  -0.07074476
                                         Alpha-Alpha:  0.00000000
                                         Beta-Beta:    0.00000000

 Doubles amplitudes (print threshold =  0.500E-01):

         I         J         SYM. A    SYM. B    A         B      T(IJ, AB) [Alpha-Beta]

         1         1         2         2         1         1     -0.07397489
         1         1         3         3         1         1     -0.07397489
         1         1         5         5         1         1     -0.07397489

 Spin contamination <S**2-Sz**2-Sz>     0.00000000

 Memory could be reduced to 13.99 Mwords without degradation in triples
 

  Correlated core orbitals:             1.1
  Orbital energies:                   -15.6168
 
  RCCSD core-core energy               -0.070744759804
 

 RESULTS
 =======

  Reference energy                    -32.287099897786
  RCCSD singles energy                 -0.000000000166
  RCCSD pair energy                    -0.070744759637
  RCCSD correlation energy             -0.070744759804
  Triples (T) contribution              0.000000000000
  Total correlation energy             -0.070744759804
 
  RHF-RCCSD energy                    -32.357844657590
  RHF-RCCSD[T] energy                 -32.357844657590
  RHF-RCCSD-T energy                  -32.357844657590
 !RHF-RCCSD(T) energy                 -32.357844657590

 Program statistics:

 Available memory in ccsd:               511999882
 Min. memory needed in ccsd:                281125
 Max. memory used in ccsd:                  281125
 Max. memory used in cckext:                369777 ( 5 integral passes)
 Max. memory used in cckint:               1009422 ( 1 integral passes)



 **********************************************************************************************************************************
 DATASETS  * FILE   NREC   LENGTH (MB)   RECORD NAMES
              1      20       25.81       500      610      700      900      950      970     1000      129      960     1100   
                                          VAR    BASINP    GEOM    SYMINP    ZMAT    AOBASIS   BASIS     P2S    ABASIS      S 
                                         1400     1410     1420     1200     1210     1080     1600     1650     1700     1380   
                                           T        V       ECP      H0       H01     AOSYM     SMH    MOLCAS    OPER     JKOP   

              2      18       40.71       200      700     1000      520     4202     5202     2102     2105     5202(1)  2107   
                                        OPTIONS   GEOM     BASIS   MCVARS     RHF     MCSCF     RHF      RHF     MCSCF     RHF  
                                         2109     2111     2113     2115     2117     2119     2120     2121   
                                          RHF      RHF      RHF      RHF      RHF      RHF      RHF      RHF  

 PROGRAMS   *        TOTAL  RCCSD(T)       RHF  RCCSD(T)       RHF  RCCSD(T)       RHF  RCCSD(T)       RHF  RCCSD(T)       RHF
 CPU TIMES  *       210.92      0.44      0.45      1.76      0.51      2.56      0.53      7.02      0.79      8.74      0.08
 REAL TIME  *       342.38 SEC
 DISK USED  *         4.37 GB      
 SF USED    *       496.45 MB      
 GA USED    *         0.00 MB       (max)       0.00 MB       (current)
 **********************************************************************************************************************************
 SETTING CCSD(13)       =       -32.35784466  AU                              
 Output type csv         
                                                                                                                                                                                                                                                                

        SCF,CCSD
   -126.81094490,   -127.56744143
   -126.80504311,   -127.57762768
   -126.80533281,   -127.53447092
   -126.72632828,   -127.45021518
   -126.57440232,   -127.26104690
   -126.48305339,   -127.14736387
   -125.93120633,   -126.55178962
   -124.78441669,   -125.34970836
   -123.08465640,   -123.60159774
   -120.83760872,   -121.29925145
    -98.47346581,    -98.79556374
    -69.67192198,    -69.83592566
    -32.28709990,    -32.35784466
                                                  

 RCCSD(T)/USERDEF energy=    -32.357844657590

        RCCSD(T)        RHF-SCF         RCCSD(T)        RHF-SCF         RCCSD(T)        RHF-SCF         RCCSD(T)        RHF-SCF 
    -32.35784466    -32.28709990    -69.83592566    -69.67192198    -98.79556374    -98.47346581   -121.29925145   -120.83760872
 **********************************************************************************************************************************
 Molpro calculation terminated
 Variable memory released
