
 Primary working directories    : /global/cscratch1/sd/bkincaid
 Secondary working directories  : /global/cscratch1/sd/bkincaid
 Wavefunction directory         : /global/homes/b/bkincaid/wfu/
 Main file repository           : /global/cscratch1/sd/bkincaid/

 SHA1      : 19cd028119e0e09f93f0674bd8af7968d9b3eff6
 NAME      : 2015.1.36
 ARCHNAME  : linux/x86_64
 FC        : /opt/cray/pe/craype/2.5.14/bin/ftn
 BLASLIB   : -L/opt/intel/compilers_and_libraries_2018.1.163/linux/mkl/lib/intel64 -Wl,-_start-group -lmkl_intel_ilp64 -lmkl_intel_thread -lmkl_core -Wl,-_end-group -liomp5
 id        : lbl

 Nodes     nprocs
 nid01146    11
 Number of processes for MPI-2 version of Molpro:   nprocs(total)=   12   nprocs(compute)=   11   nprocs(helper)=    1

 Using customized tuning parameters: mindgm=7; mindgv=16; mindgc=1; mindgr=1; noblas=0; minvec=7
 default implementation of scratch files=sf  

 ***,Calculation for O groundstate
 memory,1024,m
 gthresh,twoint=1.0E-15
 gthresh,throvl=1.0E-15
                                                                                 !symmetry,nosym
 
                                                                                 !set,dkroll=1,dkho=10,dkhp=4
 
 basis={
 Including file /global/u1/b/bkincaid/molpro/Ir/molecules/tz/IrO/ecps/O/O-ccECP
 Including file /global/u1/b/bkincaid/molpro/Ir/molecules/tz/IrO/ecps/O/O-aug-cc-CVTZ.basis
 }
 
 geometry={
 1
 Oxygen
 O 0.0 0.0 0.0
 }
 
 ne=6
 
 {rhf
  start,atden
  print,orbitals=2
  wf,ne,7,2
  occ,1,1,1,0,1,0,0,0
  closed,1,1,0,0,0,0,0,0
  sym,1,1
  orbital,4202.2
 }
 
 
 scf=energy
 _CC_NORM_MAX=2.0
 {rccsd(t);maxit,100;core}
 ccsd=energy
 
 
 table,scf,ccsd
 save
 type,csv

 Variables initialized (889), CPU time= 0.01 sec
 Commands  initialized (702), CPU time= 0.01 sec, 572 directives.
 Default parameters read. Elapsed time= 0.18 sec

 Checking input...
 Passed
1


                                         ***  PROGRAM SYSTEM MOLPRO  ***
                                       Copyright, TTI GmbH Stuttgart, 2015
                                    Version 2015.1 linked Dec 29 2018 15:55:43


 **********************************************************************************************************************************
 LABEL *   Calculation for O groundstate                                                 
  64 bit mpp version                                                                     DATE: 10-Mar-21          TIME: 10:29:51  
 **********************************************************************************************************************************

 SHA1:             19cd028119e0e09f93f0674bd8af7968d9b3eff6
 **********************************************************************************************************************************

 THRESHOLDS:

 ZERO    =  1.00D-12  ONEINT  =  1.00D-12  TWOINT  =  1.00D-15  PREFAC  =  1.00D-14  LOCALI  =  1.00D-09  EORDER  =  1.00D-04
 ENERGY  =  0.00D+00  ETEST   =  0.00D+00  EDENS   =  0.00D+00  THRDEDEF=  1.00D-06  GRADIENT=  1.00D-02  STEP    =  1.00D-03
 ORBITAL =  1.00D-05  CIVEC   =  1.00D-05  COEFF   =  1.00D-04  PRINTCI =  5.00D-02  PUNCHCI =  9.90D+01  OPTGRAD =  3.00D-04
 OPTENERG=  1.00D-06  OPTSTEP =  3.00D-04  THRGRAD =  1.00D-10  COMPRESS=  1.00D-11  VARMIN  =  1.00D-07  VARMAX  =  1.00D-03
 THRDOUB =  0.00D+00  THRDIV  =  1.00D-05  THRRED  =  1.00D-07  THRPSP  =  1.00D+00  THRDC   =  1.00D-10  THRCS   =  1.00D-10
 THRNRM  =  1.00D-08  THREQ   =  0.00D+00  THRDE   =  1.00D+00  THRREF  =  1.00D-05  SPARFAC =  1.00D+00  THRDLP  =  1.00D-07
 THRDIA  =  1.00D-10  THRDLS  =  1.00D-07  THRGPS  =  0.00D+00  THRKEX  =  0.00D+00  THRDIS  =  2.00D-01  THRVAR  =  1.00D-10
 THRLOC  =  1.00D-06  THRGAP  =  1.00D-06  THRLOCT = -1.00D+00  THRGAPT = -1.00D+00  THRORB  =  1.00D-06  THRMLTP =  0.00D+00
 THRCPQCI=  1.00D-10  KEXTA   =  0.00D+00  THRCOARS=  0.00D+00  SYMTOL  =  1.00D-06  GRADTOL =  1.00D-06  THROVL  =  1.00D-08
 THRORTH =  1.00D-08  GRID    =  1.00D-06  GRIDMAX =  1.00D-03  DTMAX   =  0.00D+00  THROCCDE=  1.00D-01  THROCCDE=  1.00D-01



 THRESHOLDS:

 ZERO    =  1.00D-12  ONEINT  =  1.00D-12  TWOINT  =  1.00D-15  PREFAC  =  1.00D-14  LOCALI  =  1.00D-09  EORDER  =  1.00D-04
 ENERGY  =  0.00D+00  ETEST   =  0.00D+00  EDENS   =  0.00D+00  THRDEDEF=  1.00D-06  GRADIENT=  1.00D-02  STEP    =  1.00D-03
 ORBITAL =  1.00D-05  CIVEC   =  1.00D-05  COEFF   =  1.00D-04  PRINTCI =  5.00D-02  PUNCHCI =  9.90D+01  OPTGRAD =  3.00D-04
 OPTENERG=  1.00D-06  OPTSTEP =  3.00D-04  THRGRAD =  1.00D-10  COMPRESS=  1.00D-11  VARMIN  =  1.00D-07  VARMAX  =  1.00D-03
 THRDOUB =  0.00D+00  THRDIV  =  1.00D-05  THRRED  =  1.00D-07  THRPSP  =  1.00D+00  THRDC   =  1.00D-10  THRCS   =  1.00D-10
 THRNRM  =  1.00D-08  THREQ   =  0.00D+00  THRDE   =  1.00D+00  THRREF  =  1.00D-05  SPARFAC =  1.00D+00  THRDLP  =  1.00D-07
 THRDIA  =  1.00D-10  THRDLS  =  1.00D-07  THRGPS  =  0.00D+00  THRKEX  =  0.00D+00  THRDIS  =  2.00D-01  THRVAR  =  1.00D-10
 THRLOC  =  1.00D-06  THRGAP  =  1.00D-06  THRLOCT = -1.00D+00  THRGAPT = -1.00D+00  THRORB  =  1.00D-06  THRMLTP =  0.00D+00
 THRCPQCI=  1.00D-10  KEXTA   =  0.00D+00  THRCOARS=  0.00D+00  SYMTOL  =  1.00D-06  GRADTOL =  1.00D-06  THROVL  =  1.00D-15
 THRORTH =  1.00D-08  GRID    =  1.00D-06  GRIDMAX =  1.00D-03  DTMAX   =  0.00D+00  THROCCDE=  1.00D-01  THROCCDE=  1.00D-01



 Variable memory set to 1024000000 words,  buffer space   230000 words

 SETTING BASIS          =    USERDEF

Geometry recognized as XYZ

 SETTING NE             =         6.00000000                                  


 Recomputing integrals since basis changed


 Using spherical harmonics



 PROGRAM * SEWARD (Integral evaluation for generally contracted gaussian basis sets)     Author: Roland Lindh, 1990

 Geometry written to block  1 of record 700

 Orientation using atomic masses  
 Molecule type: Atom
 Symmetry elements: X,Y,Z
 Rotational constants:       0.0000000      0.0000000      0.0000000 GHz  (calculated with average atomic masses)

 Point group  D2h 



 ATOMIC COORDINATES

 NR  ATOM    CHARGE       X              Y              Z

   1  O       6.00    0.000000000    0.000000000    0.000000000

 NUCLEAR CHARGE:                    6
 NUMBER OF PRIMITIVE AOS:          81
 NUMBER OF SYMMETRY AOS:           71
 NUMBER OF CONTRACTIONS:           71   (  21Ag  +  12B3u +  12B2u +   4B1g +  12B1u +   4B2g +   4B3g +   2Au  )
 NUMBER OF CORE ORBITALS:           0   (   0Ag  +   0B3u +   0B2u +   0B1g +   0B1u +   0B2g +   0B3g +   0Au  )
 NUMBER OF VALENCE ORBITALS:        4   (   1Ag  +   1B3u +   1B2u +   0B1g +   1B1u +   0B2g +   0B3g +   0Au  )


 NUCLEAR REPULSION ENERGY    0.00000000

 EXTRA SYMMETRY OF AOS IN SYMMETRY 1:   1 1 1 1 1 1 1 1 1 1   1 1 1 2 3 2 3 2 3 2   3
 EXTRA SYMMETRY OF AOS IN SYMMETRY 2:   1 1 1 1 1 1 1 1 2 3   2 3
 EXTRA SYMMETRY OF AOS IN SYMMETRY 3:   1 1 1 1 1 1 1 1 2 3   2 3
 EXTRA SYMMETRY OF AOS IN SYMMETRY 5:   1 1 1 1 1 1 1 1 2 3   2 3

 Eigenvalues of metric

         1 0.267E-04 0.466E-03 0.119E-01 0.237E-01 0.730E-01 0.132E+00 0.255E+00 0.261E+00
         2 0.763E-02 0.514E-01 0.125E+00 0.335E+00 0.447E+00 0.447E+00 0.706E+00 0.127E+01
         3 0.763E-02 0.514E-01 0.125E+00 0.335E+00 0.447E+00 0.447E+00 0.706E+00 0.127E+01
         4 0.261E+00 0.743E+00 0.111E+01 0.188E+01
         5 0.763E-02 0.514E-01 0.125E+00 0.335E+00 0.447E+00 0.447E+00 0.706E+00 0.127E+01
         6 0.261E+00 0.743E+00 0.111E+01 0.188E+01
         7 0.261E+00 0.743E+00 0.111E+01 0.188E+01
         8 0.447E+00 0.155E+01


 Contracted 2-electron integrals neglected if value below      1.0D-15
 AO integral compression algorithm  1   Integral accuracy      1.0D-15

     7.078 MB (compressed) written to integral file (100.0%)

     Node minimum: 0.524 MB, node maximum: 0.786 MB


 NUMBER OF SORTED TWO-ELECTRON INTEGRALS:      41286.     BUFFER LENGTH:  32768
 NUMBER OF SEGMENTS:   1  SEGMENT LENGTH:      41286      RECORD LENGTH: 524288

 Memory used in sort:       0.60 MW

 SORT1 READ      904113. AND WROTE       32667. INTEGRALS IN      1 RECORDS. CPU TIME:     0.03 SEC, REAL TIME:     0.05 SEC
 SORT2 READ      364447. AND WROTE      465933. INTEGRALS IN     22 RECORDS. CPU TIME:     0.01 SEC, REAL TIME:     0.04 SEC

 Node minimum:       39357.  Node maximum:       49441. integrals

 OPERATOR DM      FOR CENTER  0  COORDINATES:    0.000000    0.000000    0.000000


 **********************************************************************************************************************************
 DATASETS  * FILE   NREC   LENGTH (MB)   RECORD NAMES
              1      19       19.91       500      610      700      900      950      970     1000      129      960     1100   
                                          VAR    BASINP    GEOM    SYMINP    ZMAT    AOBASIS   BASIS     P2S    ABASIS      S 
                                         1400     1410     1420     1200     1210     1080     1600     1650     1700   
                                           T        V       ECP      H0       H01     AOSYM     SMH    MOLCAS    OPER   

 PROGRAMS   *        TOTAL       INT
 CPU TIMES  *         0.71      0.36
 REAL TIME  *         1.85 SEC
 DISK USED  *        50.07 MB      
 GA USED    *         0.00 MB       (max)       0.00 MB       (current)
 **********************************************************************************************************************************


 PROGRAM * RHF-SCF (OPEN SHELL)       Authors: W. Meyer, H.-J. Werner


 NUMBER OF ELECTRONS:       4+    2-    SPACE SYMMETRY=7    SPIN SYMMETRY: Triplet 
 CONVERGENCE THRESHOLDS:    1.00E-05 (Density)    1.00E-07 (Energy)
 MAX. NUMBER OF ITERATIONS:       60
 INTERPOLATION TYPE:            DIIS
 INTERPOLATION STEPS:              2 (START)      1 (STEP)
 LEVEL SHIFTS:                 -0.60 (CLOSED) -0.30 (OPEN) 

 Number of closed-shell orbitals:    2 (   1   1   0   0   0   0   0   0 )
 Number of open-shell orbitals:      2 (   0   0   1   0   1   0   0   0 )


 
 Extra symmetries of mos in symmetry 1:   1
 Orbital guess generated from atomic densities. Full valence occupancy:    1   1   1   0   1   0   0   0


 Molecular orbital dump at record        4202.2

 ITERATION    DDIFF          GRAD             ENERGY        2-EL.EN.            DIPOLE MOMENTS         DIIS   ORB.
    1      0.000D+00      0.000D+00       -15.66056129     20.331092    0.00000    0.00000    0.00000    0    start
    2      0.000D+00      0.193D-01       -15.68552509     21.181803    0.00000    0.00000    0.00000    1    diag,B
    3      0.510D-02      0.458D-02       -15.68678007     21.213045    0.00000    0.00000    0.00000    2    diag,B
    4      0.118D-02      0.176D-02       -15.68715647     21.242667    0.00000    0.00000    0.00000    3    diag,B
    5      0.825D-03      0.454D-03       -15.68718827     21.247022    0.00000    0.00000    0.00000    4    diag,B
    6      0.363D-03      0.851D-04       -15.68718912     21.246401    0.00000    0.00000    0.00000    5    diag,B
    7      0.770D-04      0.177D-04       -15.68718916     21.246302    0.00000    0.00000    0.00000    6    fixocc
    8      0.172D-04      0.414D-05       -15.68718916     21.246248    0.00000    0.00000    0.00000    7    diag,B
    9      0.242D-05      0.152D-05       -15.68718916     21.246240    0.00000    0.00000    0.00000    0    orth

 Final alpha occupancy:   1   1   1   0   1   0   0   0
 Final beta  occupancy:   1   1   0   0   0   0   0   0

 !RHF STATE 1.7 Energy                -15.687189160822
 Nuclear energy                         0.00000000
 One-electron energy                  -26.31030895
 Two-electron energy                   10.62311979
 Virial quotient                       -1.32512636
 !RHF STATE 1.7 Dipole moment           0.00000000     0.00000000     0.00000000
 Dipole moment /Debye                   0.00000000     0.00000000     0.00000000

 ELECTRON ORBITALS
 =================


   Orb  Occ    Energy  Couls-En    Coefficients

                                   1 1s      1 1s      1 1s      1 1s      1 1s      1 1s      1 1s      1 1s      1 1s      1 1s   
                                   1 1s      1 1s      1 1s      1 3d0     1 3d2+    1 3d0     1 3d2+    1 3d0     1 3d2+    1 3d0  
                                   1 3d2+ 

   1.1   2    -1.2609   -6.0762 -0.000001  0.000006 -0.000047  0.000315 -0.003310 -0.048691 -0.166455  0.612954  0.164761  0.364818
                                -0.009315  0.048059  0.006186 -0.000377  0.000653 -0.000679  0.001176 -0.000104  0.000180 -0.001793
                                 0.003106

   2.1   0     0.1504   -1.3935  0.000002 -0.000018  0.000137 -0.000881  0.008235  0.173782  0.321337  0.131699 -0.197131 -1.037314
                                -0.290082 -0.119762  1.569493 -0.000831  0.001438 -0.002944  0.005099 -0.000032  0.000055  0.008665
                                -0.015008

   3.1   0     0.6224   -0.9384  0.000000 -0.000000  0.000000 -0.000000  0.000000  0.000000  0.000000  0.000000 -0.000000 -0.000000
                                -0.000000 -0.000000  0.000000  0.036093  0.020838 -0.087657 -0.050609  0.000071  0.000041  0.912161
                                 0.526636

                                   1 2px     1 2px     1 2px     1 2px     1 2px     1 2px     1 2px     1 2px     1 4f1+    1 4f3+ 
                                   1 4f1+    1 4f3+ 

   1.2   2    -0.5675   -4.6935  0.009094  0.094425  0.304629  0.479673  0.345579  0.005110 -0.002400  0.030116  0.001922 -0.002482
                                 0.001946 -0.002513

   2.2   0     0.1626   -1.0778  0.000042 -0.015101 -0.094226 -0.052070 -0.395490 -0.006443 -0.000222  1.181156 -0.001156  0.001493
                                 0.000510 -0.000659

   3.2   0     0.9052   -0.9704 -0.019749 -0.119457 -0.136128 -0.864697  1.587417  0.025838  0.006385 -0.643976 -0.003977  0.005135
                                 0.008425 -0.010876

                                   1 2py     1 2py     1 2py     1 2py     1 2py     1 2py     1 2py     1 2py     1 4f1-    1 4f3- 
                                   1 4f1-    1 4f3- 

   1.3   +    -0.7036   -4.9176  0.009281  0.097123  0.319894  0.506281  0.303669  0.005574 -0.002438  0.008087  0.001446 -0.005600
                                 0.001165 -0.004512

   2.3   0     0.1531   -1.0742  0.000149 -0.013054 -0.085685 -0.045294 -0.357640 -0.005991 -0.000237  1.171461 -0.000360  0.001394
                                 0.000249 -0.000965

   3.3   0     0.8620   -0.9539 -0.018768 -0.113825 -0.133758 -0.832257  1.599257  0.024455  0.006064 -0.660532 -0.001275  0.004939
                                 0.002824 -0.010939

                                   1 3d2-    1 3d2-    1 3d2-    1 3d2- 

   1.4   0     0.6384   -0.9150  0.041592 -0.110463  0.000022  1.058391

   2.4   0     2.0871    0.7334  0.004763  1.245945  0.007821 -0.685272

                                   1 2pz     1 2pz     1 2pz     1 2pz     1 2pz     1 2pz     1 2pz     1 2pz     1 4f0     1 4f2+ 
                                   1 4f0     1 4f2+ 

   1.5   +    -0.7036   -4.9176  0.009281  0.097123  0.319894  0.506281  0.303669  0.005574 -0.002438  0.008087  0.003542 -0.004573
                                 0.002854 -0.003684

   2.5   0     0.1531   -1.0742  0.000149 -0.013054 -0.085685 -0.045294 -0.357640 -0.005991 -0.000237  1.171461 -0.000881  0.001138
                                 0.000610 -0.000788

   3.5   0     0.8620   -0.9539 -0.018768 -0.113825 -0.133758 -0.832257  1.599257  0.024455  0.006064 -0.660532 -0.003124  0.004033
                                 0.006918 -0.008932

                                   1 3d1+    1 3d1+    1 3d1+    1 3d1+ 

   1.6   0     0.6384   -0.9150  0.041592 -0.110463  0.000022  1.058391

   2.6   0     2.0871    0.7334  0.004763  1.245945  0.007821 -0.685272

                                   1 3d1-    1 3d1-    1 3d1-    1 3d1- 

   1.7   0     0.6224   -0.9384  0.041677 -0.101217  0.000082  1.053272

   2.7   0     2.0405    0.6903  0.008261  1.244121  0.007791 -0.692162

                                   1 4f2-    1 4f2- 

   1.8   0     2.0178    1.2240 -0.127631  1.064866

   2.8   0     6.3813    8.5271  1.193107 -0.553040

 HOMO      1.2    -0.567547 =     -15.4437eV
 LUMO      2.1     0.150400 =       4.0926eV
 LUMO-HOMO         0.717946 =      19.5363eV


 **********************************************************************************************************************************
 DATASETS  * FILE   NREC   LENGTH (MB)   RECORD NAMES
              1      19       19.92       500      610      700      900      950      970     1000      129      960     1100   
                                          VAR    BASINP    GEOM    SYMINP    ZMAT    AOBASIS   BASIS     P2S    ABASIS      S 
                                         1400     1410     1420     1200     1210     1080     1600     1650     1700   
                                           T        V       ECP      H0       H01     AOSYM     SMH    MOLCAS    OPER   

              2       4        2.78       700     1000      520     4202   
                                         GEOM     BASIS   MCVARS     RHF  

 PROGRAMS   *        TOTAL       RHF       INT
 CPU TIMES  *         0.86      0.15      0.36
 REAL TIME  *         2.14 SEC
 DISK USED  *       301.60 MB      
 SF USED    *         0.00 MB      
 GA USED    *         0.00 MB       (max)       0.00 MB       (current)
 **********************************************************************************************************************************
 SETTING SCF            =       -15.68718916  AU                              
 SETTING _CC_NORM_MAX   =         2.00000000                                  


 PROGRAM * CCSD (Restricted open-shell coupled cluster)     Authors: C. Hampel, H.-J. Werner, 1991, M. Deegan, P.J. Knowles, 1992


 Convergence thresholds:  THRVAR = 1.00D-08  THRDEN = 1.00D-06

 CCSD(T)     terms to be evaluated (factor= 1.000)


 Number of closed-shell orbitals:   2 (   1   1   0   0   0   0   0   0 )
 Number of active  orbitals:        2 (   0   0   1   0   1   0   0   0 )
 Number of external orbitals:      67 (  20  11  11   4  11   4   4   2 )

 Memory could be reduced to 0.80 Mwords without degradation in triples

 Number of N-1 electron functions:               6
 Number of N-2 electron functions:              15
 Number of singly external CSFs:                86
 Number of doubly external CSFs:              7480
 Total number of CSFs:                        7566

 Molecular orbitals read from record     4202.2  Type=RHF/CANONICAL (state 1.7)

 Integral transformation finished. Total CPU:   0.03 sec, npass=  1  Memory used:   0.13 MW

 Starting RMP2 calculation

 Wavefunction is spin-projected

 ITER.      SQ.NORM     CORR.ENERGY   TOTAL ENERGY   ENERGY CHANGE        DEN1      VAR(S)    VAR(P)  DIIS     TIME
   1      1.03158078    -0.15793344   -15.84512261    -0.15793344    -0.00023769  0.13D-05  0.65D-04  1  1     0.04
   2      1.03174077    -0.15818487   -15.84537403    -0.00025142    -0.00000027  0.53D-08  0.86D-07  2  2     0.04
   3      1.03174438    -0.15818832   -15.84537748    -0.00000345    -0.00000000  0.12D-10  0.18D-09  3  3     0.04
   4      1.03174440    -0.15818831   -15.84537747     0.00000001    -0.00000000  0.17D-12  0.95D-12  4  4     0.04

 Norm of t1 vector:      0.03658129      S-energy:    -0.00424777      T1 diagnostic:  0.00055557
 Norm of t2 vector:      0.17437376      P-energy:    -0.15394054
                                         Alpha-Beta:  -0.11811903
                                         Alpha-Alpha: -0.03146590
                                         Beta-Beta:   -0.00435561

 Spin contamination <S**2-Sz**2-Sz>     0.00000000
  Reference energy                    -15.687189160822
  RHF-RMP2 correlation energy          -0.158188310805
 !RHF-RMP2 energy                     -15.845377471627
 (NB above energy spin projected)

 Starting RCCSD calculation

 ITER.      SQ.NORM     CORR.ENERGY   TOTAL ENERGY   ENERGY CHANGE        DEN1      VAR(S)    VAR(P)  DIIS     TIME
   1      1.03831781    -0.17027840   -15.85746756    -0.17027840    -0.00344054  0.27D-03  0.69D-03  1  1     0.04
   2      1.04153883    -0.17400867   -15.86119783    -0.00373027    -0.00016187  0.45D-04  0.33D-04  2  2     0.05
   3      1.04263490    -0.17461339   -15.86180255    -0.00060472    -0.00001253  0.59D-05  0.23D-05  3  3     0.05
   4      1.04294225    -0.17470703   -15.86189619    -0.00009364    -0.00000146  0.79D-06  0.29D-06  4  4     0.06
   5      1.04306237    -0.17473712   -15.86192629    -0.00003010    -0.00000006  0.26D-07  0.13D-07  5  5     0.06
   6      1.04307414    -0.17473730   -15.86192646    -0.00000017    -0.00000000  0.11D-08  0.56D-09  6  6     0.06

 Norm of t1 vector:      0.05635098      S-energy:    -0.00527023      T1 diagnostic:  0.00620242
                                                                       D1 diagnostic:  0.01196650
 Norm of t2 vector:      0.19974662      P-energy:    -0.16946707
                                         Alpha-Beta:  -0.13366541
                                         Alpha-Alpha: -0.03140286
                                         Beta-Beta:   -0.00439879

 Spin contamination <S**2-Sz**2-Sz>     0.00000000

 Memory could be reduced to 0.82 Mwords without degradation in triples
 

 RESULTS
 =======

  Reference energy                    -15.687189160822
  RCCSD singles energy                 -0.005270228538
  RCCSD pair energy                    -0.169467071091
  RCCSD correlation energy             -0.174737299629
  Triples (T) contribution             -0.003754474718
  Total correlation energy             -0.178491774347
 
  RHF-RCCSD energy                    -15.861926460451
  RHF-RCCSD[T] energy                 -15.865703099413
  RHF-RCCSD-T energy                  -15.865648432372
 !RHF-RCCSD(T) energy                 -15.865680935169

 Program statistics:

 Available memory in ccsd:              1023999732
 Min. memory needed in ccsd:                 46789
 Max. memory used in ccsd:                   53185
 Max. memory used in cckext:                 75703 ( 6 integral passes)
 Max. memory used in cckint:                130342 ( 1 integral passes)



 **********************************************************************************************************************************
 DATASETS  * FILE   NREC   LENGTH (MB)   RECORD NAMES
              1      19       19.92       500      610      700      900      950      970     1000      129      960     1100   
                                          VAR    BASINP    GEOM    SYMINP    ZMAT    AOBASIS   BASIS     P2S    ABASIS      S 
                                         1400     1410     1420     1200     1210     1080     1600     1650     1700   
                                           T        V       ECP      H0       H01     AOSYM     SMH    MOLCAS    OPER   

              2       4        2.78       700     1000      520     4202   
                                         GEOM     BASIS   MCVARS     RHF  

 PROGRAMS   *        TOTAL  RCCSD(T)       RHF       INT
 CPU TIMES  *         0.99      0.12      0.15      0.36
 REAL TIME  *         2.54 SEC
 DISK USED  *       310.43 MB      
 SF USED    *         5.53 MB      
 GA USED    *         0.00 MB       (max)       0.00 MB       (current)
 **********************************************************************************************************************************
 SETTING CCSD           =       -15.86568094  AU                              
 Output type csv         
                                                                                                                                                                                                                                                                

       SCF,CCSD
   -15.68718916,   -15.86568094
                                                  

 RCCSD(T)/USERDEF energy=    -15.865680935169

        RCCSD(T)        RHF-SCF 
    -15.86568094    -15.68718916
 **********************************************************************************************************************************
 Molpro calculation terminated
 Variable memory released
