
 Primary working directories    : /global/cscratch1/sd/bkincaid
 Secondary working directories  : /global/cscratch1/sd/bkincaid
 Wavefunction directory         : /global/homes/b/bkincaid/wfu/
 Main file repository           : /global/cscratch1/sd/bkincaid/

 SHA1      : 19cd028119e0e09f93f0674bd8af7968d9b3eff6
 NAME      : 2015.1.36
 ARCHNAME  : linux/x86_64
 FC        : /opt/cray/pe/craype/2.5.14/bin/ftn
 BLASLIB   : -L/opt/intel/compilers_and_libraries_2018.1.163/linux/mkl/lib/intel64 -Wl,-_start-group -lmkl_intel_ilp64 -lmkl_intel_thread -lmkl_core -Wl,-_end-group -liomp5
 id        : lbl

 Nodes     nprocs
 nid13019    11
 Number of processes for MPI-2 version of Molpro:   nprocs(total)=   12   nprocs(compute)=   11   nprocs(helper)=    1

 Using customized tuning parameters: mindgm=7; mindgv=16; mindgc=1; mindgr=1; noblas=0; minvec=7
 default implementation of scratch files=sf  

 ***,Calculation for Pt atom, singlet and triplet
 memory,1024,m
 gthresh,twoint=1.0E-15
 gthresh,throvl=1.0E-15
 
 geometry={
 1
 Pt
 pt  0.0 0.0 0.0
 }
 
 set,dkroll=1,dkho=10,dkhp=4
 
 Including file /global/u1/b/bkincaid/molpro/Pt/atoms/AE/dkh/basis/9/states.proc
 
 basis={
 Including file /global/u1/b/bkincaid/molpro/Pt/atoms/AE/dkh/basis/9/aug-cc-pwCVTZ.basis
 }
 
 Idten
 
 do i=9,9
     if (i.eq.1) then
         Idten
     else if (i.eq.2) then
         EAs2d9
     else if (i.eq.3) then
         Is1d9
     else if (i.eq.4) then
         Is2d8
     else if (i.eq.5) then
         IId9
     else if (i.eq.6) then
         IIs1d8
     else if (i.eq.7) then
         IIId8
     else if (i.eq.8) then
         IVd7
     else if (i.eq.9) then
         Vd6
     else if (i.eq.10) then
         VId5
     else if (i.eq.11) then
         XIKr
     else if (i.eq.12) then
         XIVp3
     else if (i.eq.13) then
         XVIIs2
     else if (i.eq.14) then
         IIId5s2f1
     else if (i.eq.15) then
         Vd5f1
     endif
     scf(i)=energy
     _CC_NORM_MAX=2.0
     {rccsd(t),maxit=100;core}
     ccsd(i)=energy
 enddo
 
 table,scf,ccsd
 type,csv
 save

 Variables initialized (889), CPU time= 0.01 sec
 Commands  initialized (702), CPU time= 0.01 sec, 572 directives.
 Default parameters read. Elapsed time= 0.38 sec

 Checking input...
 Passed
1


                                         ***  PROGRAM SYSTEM MOLPRO  ***
                                       Copyright, TTI GmbH Stuttgart, 2015
                                    Version 2015.1 linked Dec 29 2018 15:55:43


 **********************************************************************************************************************************
 LABEL *   Calculation for Pt atom, singlet and triplet                                  
  64 bit mpp version                                                                     DATE: 29-Jul-21          TIME: 17:53:17  
 **********************************************************************************************************************************

 SHA1:             19cd028119e0e09f93f0674bd8af7968d9b3eff6
 **********************************************************************************************************************************

 THRESHOLDS:

 ZERO    =  1.00D-12  ONEINT  =  1.00D-12  TWOINT  =  1.00D-15  PREFAC  =  1.00D-14  LOCALI  =  1.00D-09  EORDER  =  1.00D-04
 ENERGY  =  0.00D+00  ETEST   =  0.00D+00  EDENS   =  0.00D+00  THRDEDEF=  1.00D-06  GRADIENT=  1.00D-02  STEP    =  1.00D-03
 ORBITAL =  1.00D-05  CIVEC   =  1.00D-05  COEFF   =  1.00D-04  PRINTCI =  5.00D-02  PUNCHCI =  9.90D+01  OPTGRAD =  3.00D-04
 OPTENERG=  1.00D-06  OPTSTEP =  3.00D-04  THRGRAD =  1.00D-10  COMPRESS=  1.00D-11  VARMIN  =  1.00D-07  VARMAX  =  1.00D-03
 THRDOUB =  0.00D+00  THRDIV  =  1.00D-05  THRRED  =  1.00D-07  THRPSP  =  1.00D+00  THRDC   =  1.00D-10  THRCS   =  1.00D-10
 THRNRM  =  1.00D-08  THREQ   =  0.00D+00  THRDE   =  1.00D+00  THRREF  =  1.00D-05  SPARFAC =  1.00D+00  THRDLP  =  1.00D-07
 THRDIA  =  1.00D-10  THRDLS  =  1.00D-07  THRGPS  =  0.00D+00  THRKEX  =  0.00D+00  THRDIS  =  2.00D-01  THRVAR  =  1.00D-10
 THRLOC  =  1.00D-06  THRGAP  =  1.00D-06  THRLOCT = -1.00D+00  THRGAPT = -1.00D+00  THRORB  =  1.00D-06  THRMLTP =  0.00D+00
 THRCPQCI=  1.00D-10  KEXTA   =  0.00D+00  THRCOARS=  0.00D+00  SYMTOL  =  1.00D-06  GRADTOL =  1.00D-06  THROVL  =  1.00D-08
 THRORTH =  1.00D-08  GRID    =  1.00D-06  GRIDMAX =  1.00D-03  DTMAX   =  0.00D+00  THROCCDE=  1.00D-01  THROCCDE=  1.00D-01



 THRESHOLDS:

 ZERO    =  1.00D-12  ONEINT  =  1.00D-12  TWOINT  =  1.00D-15  PREFAC  =  1.00D-14  LOCALI  =  1.00D-09  EORDER  =  1.00D-04
 ENERGY  =  0.00D+00  ETEST   =  0.00D+00  EDENS   =  0.00D+00  THRDEDEF=  1.00D-06  GRADIENT=  1.00D-02  STEP    =  1.00D-03
 ORBITAL =  1.00D-05  CIVEC   =  1.00D-05  COEFF   =  1.00D-04  PRINTCI =  5.00D-02  PUNCHCI =  9.90D+01  OPTGRAD =  3.00D-04
 OPTENERG=  1.00D-06  OPTSTEP =  3.00D-04  THRGRAD =  1.00D-10  COMPRESS=  1.00D-11  VARMIN  =  1.00D-07  VARMAX  =  1.00D-03
 THRDOUB =  0.00D+00  THRDIV  =  1.00D-05  THRRED  =  1.00D-07  THRPSP  =  1.00D+00  THRDC   =  1.00D-10  THRCS   =  1.00D-10
 THRNRM  =  1.00D-08  THREQ   =  0.00D+00  THRDE   =  1.00D+00  THRREF  =  1.00D-05  SPARFAC =  1.00D+00  THRDLP  =  1.00D-07
 THRDIA  =  1.00D-10  THRDLS  =  1.00D-07  THRGPS  =  0.00D+00  THRKEX  =  0.00D+00  THRDIS  =  2.00D-01  THRVAR  =  1.00D-10
 THRLOC  =  1.00D-06  THRGAP  =  1.00D-06  THRLOCT = -1.00D+00  THRGAPT = -1.00D+00  THRORB  =  1.00D-06  THRMLTP =  0.00D+00
 THRCPQCI=  1.00D-10  KEXTA   =  0.00D+00  THRCOARS=  0.00D+00  SYMTOL  =  1.00D-06  GRADTOL =  1.00D-06  THROVL  =  1.00D-15
 THRORTH =  1.00D-08  GRID    =  1.00D-06  GRIDMAX =  1.00D-03  DTMAX   =  0.00D+00  THROCCDE=  1.00D-01  THROCCDE=  1.00D-01



Geometry recognized as XYZ

 SETTING DKROLL         =         1.00000000                                  
 SETTING DKHO           =        10.00000000                                  
 SETTING DKHP           =         4.00000000                                  

 Variable memory set to 1024000000 words,  buffer space   230000 words

 SETTING BASIS          =    USERDEF

 Running procedure=IDTEN


 Recomputing integrals since basis changed


 Using spherical harmonics



 PROGRAM * SEWARD (Integral evaluation for generally contracted gaussian basis sets)     Author: Roland Lindh, 1990

 Geometry written to block  1 of record 700

 Orientation using atomic masses  
 Molecule type: Atom
 Symmetry elements: X,Y,Z
 Rotational constants:       0.0000000      0.0000000      0.0000000 GHz  (calculated with average atomic masses)

 Point group  D2h 



 ATOMIC COORDINATES

 NR  ATOM    CHARGE       X              Y              Z

   1  PT     78.00    0.000000000    0.000000000    0.000000000

 NUCLEAR CHARGE:                   78
 NUMBER OF PRIMITIVE AOS:         434
 NUMBER OF SYMMETRY AOS:          347
 NUMBER OF CONTRACTIONS:          347   (  78Ag  +  60B3u +  60B2u +  24B1g +  60B1u +  24B2g +  24B3g +  17Au  )
 NUMBER OF CORE ORBITALS:          34   (   9Ag  +   6B3u +   6B2u +   2B1g +   6B1u +   2B2g +   2B3g +   1Au  )
 NUMBER OF VALENCE ORBITALS:        6   (   3Ag  +   0B3u +   0B2u +   1B1g +   0B1u +   1B2g +   1B3g +   0Au  )


 NUCLEAR REPULSION ENERGY    0.00000000

 One-electron integrals computed with SEWARD

 10nd-order Douglas-Kroll-Hess method activated. McWeeny DKH parametrization is used.

 Computing Douglas-Kroll / X2C integrals

 AO integral compression algorithm  1   Integral accuracy      1.0D-15

     1919.156 MB (compressed) written to integral file ( 47.7%)

     Node minimum: 81.265 MB, node maximum: 291.766 MB


 NUMBER OF SORTED TWO-ELECTRON INTEGRALS:   21372670.     BUFFER LENGTH:  32768
 NUMBER OF SEGMENTS:   1  SEGMENT LENGTH:   21372670      RECORD LENGTH: 524288

 Memory used in sort:      21.93 MW

 SORT1 READ   502828645. AND WROTE    14003921. INTEGRALS IN     41 RECORDS. CPU TIME:    12.91 SEC, REAL TIME:    13.44 SEC
 SORT2 READ   153399602. AND WROTE   235142862. INTEGRALS IN   7095 RECORDS. CPU TIME:     0.87 SEC, REAL TIME:     1.83 SEC

 Node minimum:    21275732.  Node maximum:    21480371. integrals

 OPERATOR DM      FOR CENTER  0  COORDINATES:    0.000000    0.000000    0.000000

 EXTRA SYMMETRY OF AOS IN SYMMETRY 1:   1 1 1 1 1 1 1 1 1 1   1 1 1 1 1 1 1 1 1 1   1 1 1 1 1 1 1 1 1 1   1 1 1 2 3 2 3 2 3 2
                                        3 2 3 2 3 2 3 2 3 2   3 2 3 2 3 2 3 2 3 2   3 2 3 2 3 2 3 2 3 4   5 6 4 5 6 4 5 6
 EXTRA SYMMETRY OF AOS IN SYMMETRY 2:   1 1 1 1 1 1 1 1 1 1   1 1 1 1 1 1 1 1 1 1   1 1 1 1 1 1 2 3 2 3   2 3 2 3 2 3 2 3 2 3
                                        2 3 2 3 2 3 2 3 2 3   2 3 2 3 2 3 2 3 2 3
 EXTRA SYMMETRY OF AOS IN SYMMETRY 3:   1 1 1 1 1 1 1 1 1 1   1 1 1 1 1 1 1 1 1 1   1 1 1 1 1 1 2 3 2 3   2 3 2 3 2 3 2 3 2 3
                                        2 3 2 3 2 3 2 3 2 3   2 3 2 3 2 3 2 3 2 3
 EXTRA SYMMETRY OF AOS IN SYMMETRY 4:   1 1 1 1 1 1 1 1 1 1   1 1 1 1 1 1 1 1 2 3   2 3 2 3
 EXTRA SYMMETRY OF AOS IN SYMMETRY 5:   1 1 1 1 1 1 1 1 1 1   1 1 1 1 1 1 1 1 1 1   1 1 1 1 1 1 2 3 2 3   2 3 2 3 2 3 2 3 2 3
                                        2 3 2 3 2 3 2 3 2 3   2 3 2 3 2 3 2 3 2 3
 EXTRA SYMMETRY OF AOS IN SYMMETRY 6:   1 1 1 1 1 1 1 1 1 1   1 1 1 1 1 1 1 1 2 3   2 3 2 3
 EXTRA SYMMETRY OF AOS IN SYMMETRY 7:   1 1 1 1 1 1 1 1 1 1   1 1 1 1 1 1 1 1 2 3   2 3 2 3

 Eigenvalues of metric

         1 0.632E-05 0.391E-04 0.662E-04 0.117E-03 0.187E-03 0.332E-03 0.599E-03 0.825E-03
         2 0.139E-04 0.272E-03 0.963E-03 0.191E-02 0.191E-02 0.243E-02 0.243E-02 0.245E-02
         3 0.139E-04 0.272E-03 0.963E-03 0.191E-02 0.191E-02 0.243E-02 0.243E-02 0.245E-02
         4 0.825E-03 0.217E-02 0.713E-02 0.171E-01 0.337E-01 0.649E-01 0.119E+00 0.188E+00
         5 0.139E-04 0.272E-03 0.963E-03 0.191E-02 0.191E-02 0.243E-02 0.243E-02 0.245E-02
         6 0.825E-03 0.217E-02 0.713E-02 0.171E-01 0.337E-01 0.649E-01 0.119E+00 0.188E+00
         7 0.825E-03 0.217E-02 0.713E-02 0.171E-01 0.337E-01 0.649E-01 0.119E+00 0.188E+00
         8 0.191E-02 0.243E-02 0.658E-02 0.118E-01 0.266E-01 0.456E-01 0.920E-01 0.173E+00


 **********************************************************************************************************************************
 DATASETS  * FILE   NREC   LENGTH (MB)   RECORD NAMES
              1      22       21.27       500      610      700      900      950      970     1000      129      960     1700   
                                          VAR    BASINP    GEOM    SYMINP    ZMAT    AOBASIS   BASIS     P2S    ABASIS    OPER   
                                         1101     1401     1411     1412     1650     1100     1400     1410     1200     1210   
                                          SR      EKINR    POTR     PVPR    MOLCAS      S      EKIN      POT      H0       H01  
                                         1080     1600   
                                         AOSYM     SMH  

 PROGRAMS   *        TOTAL       INT
 CPU TIMES  *        78.60     78.21
 REAL TIME  *        83.37 SEC
 DISK USED  *         3.76 GB      
 GA USED    *         0.00 MB       (max)       0.00 MB       (current)
 **********************************************************************************************************************************


 PROGRAM * RHF-SCF (CLOSED SHELL)       Authors: W. Meyer, H.-J. Werner


 NUMBER OF ELECTRONS:      39+   39-    SPACE SYMMETRY=1    SPIN SYMMETRY: Singlet 
 CONVERGENCE THRESHOLDS:    1.00E-05 (Density)    1.56E-07 (Energy)
 MAX. NUMBER OF ITERATIONS:       60
 INTERPOLATION TYPE:            DIIS
 INTERPOLATION STEPS:              2 (START)      1 (STEP)
 LEVEL SHIFTS:                  0.00 (CLOSED)  0.00 (OPEN) 

 Number of closed-shell orbitals:   39 (  11   6   6   3   6   3   3   1 )


 
 Extra symmetries of mos in symmetry 1:   1   1   1   3   2   1   3   2   1   3   2
 Orbital guess generated from atomic densities. Full valence occupancy:   12   6   6   3   6   3   3   1


 Molecular orbital dump at record        4202.2

 ITERATION    DDIFF          GRAD             ENERGY        2-EL.EN.            DIPOLE MOMENTS         DIIS   ORB.
    1      0.000D+00      0.000D+00    -18393.29360298  12838.146872    0.00000    0.00000    0.00000    0    start
    2      0.000D+00      0.559D-01    -18406.23619636  14248.636669    0.00000    0.00000    0.00000    1    diag
    3      0.121D+00      0.122D+00    -18410.46186033  14012.245167    0.00000    0.00000    0.00000    2    diag
    4      0.121D-01      0.566D-01    -18412.21254124  13885.470495    0.00000    0.00000    0.00000    3    diag
    5      0.818D-02      0.309D-01    -18412.96687392  13782.039535    0.00000    0.00000    0.00000    4    diag
    6      0.573D-02      0.119D-01    -18413.13071143  13714.774033    0.00000    0.00000    0.00000    5    diag
    7      0.331D-02      0.119D-02    -18413.13458523  13702.688839    0.00000    0.00000    0.00000    6    diag
    8      0.826D-03      0.624D-03    -18413.13494339  13705.160727    0.00000    0.00000    0.00000    7    diag
    9      0.190D-03      0.158D-03    -18413.13496287  13705.735093    0.00000    0.00000    0.00000    8    diag
   10      0.498D-04      0.375D-04    -18413.13496406  13705.922531    0.00000    0.00000    0.00000    9    orth
   11      0.100D-04      0.465D-05    -18413.13496408  13705.947627    0.00000    0.00000    0.00000    9    diag
   12      0.124D-05      0.343D-06    -18413.13496408  13705.951376    0.00000    0.00000    0.00000    0    orth

 Final occupancy:  11   6   6   3   6   3   3   1

 !RHF STATE 1.1 Energy               -18413.1349640783    
 Nuclear energy                         0.00000000
 One-electron energy               -25266.11065220
 Two-electron energy                 6852.97568812
 Virial quotient                       -0.67629514
 !RHF STATE 1.1 Dipole moment           0.00000000     0.00000000     0.00000000
 Dipole moment /Debye                   0.00000000     0.00000000     0.00000000

 ELECTRON ORBITALS
 =================


   Orb  Occ    Energy  Couls-En    Coefficients

                                   1 1s      1 1s      1 1s      1 1s      1 1s      1 1s      1 1s      1 1s      1 1s      1 1s   
                                   1 1s      1 1s      1 1s      1 1s      1 1s      1 1s      1 1s      1 1s      1 1s      1 1s   
                                   1 1s      1 1s      1 1s      1 1s      1 1s      1 1s      1 1s      1 1s      1 1s      1 1s   
                                   1 1s      1 1s      1 1s      1 3d0     1 3d2+    1 3d0     1 3d2+    1 3d0     1 3d2+    1 3d0  
                                   1 3d2+    1 3d0     1 3d2+    1 3d0     1 3d2+    1 3d0     1 3d2+    1 3d0     1 3d2+    1 3d0  
                                   1 3d2+    1 3d0     1 3d2+    1 3d0     1 3d2+    1 3d0     1 3d2+    1 3d0     1 3d2+    1 3d0  
                                   1 3d2+    1 3d0     1 3d2+    1 3d0     1 3d2+    1 3d0     1 3d2+    1 3d0     1 3d2+    1 5g0  
                                   1 5g4+    1 5g2+    1 5g0     1 5g4+    1 5g2+    1 5g0     1 5g4+    1 5g2+ 

   1.1   2 -2897.4829-6235.8506  0.000912  0.000995  0.002594  0.003050  0.006001  0.007586  0.013714  0.020199  0.035192  0.057528
                                 0.098418  0.159082  0.235954  0.276414  0.213081  0.079083  0.011106 -0.000671  0.001102 -0.000954
                                 0.000573 -0.000313  0.000168 -0.000094  0.000056 -0.000035  0.000016 -0.000014  0.000022 -0.000015
                                 0.000004 -0.000001  0.000000 -0.000000 -0.000000 -0.000000 -0.000000 -0.000000  0.000000 -0.000000
                                -0.000000  0.000000  0.000000 -0.000000 -0.000000  0.000000  0.000000 -0.000000 -0.000000  0.000000
                                 0.000000 -0.000000 -0.000000  0.000000  0.000000 -0.000000 -0.000000  0.000000  0.000000 -0.000000
                                -0.000000  0.000000  0.000000 -0.000000 -0.000000  0.000000  0.000000 -0.000000 -0.000000 -0.000000
                                 0.000000 -0.000000  0.000000 -0.000000  0.000000 -0.000000  0.000000 -0.000000

   2.1   2  -514.3606-1365.1542 -0.000352 -0.000384 -0.001004 -0.001184 -0.002335 -0.002971 -0.005401 -0.008047 -0.014215 -0.023796
                                -0.042178 -0.072301 -0.117871 -0.159204 -0.133029  0.049153  0.335375  0.439809  0.258780  0.065707
                                 0.004326  0.000519 -0.000387  0.000089 -0.000073  0.000054 -0.000021  0.000020 -0.000031  0.000021
                                -0.000005  0.000002 -0.000000  0.000000  0.000000  0.000000 -0.000000  0.000000  0.000000  0.000000
                                -0.000000  0.000000  0.000000  0.000000 -0.000000  0.000000  0.000000  0.000000 -0.000000 -0.000000
                                 0.000000  0.000000 -0.000000 -0.000000  0.000000  0.000000 -0.000000 -0.000000  0.000000  0.000000
                                -0.000000 -0.000000  0.000000  0.000000 -0.000000 -0.000000  0.000000  0.000000 -0.000000 -0.000000
                                 0.000000  0.000000 -0.000000  0.000000 -0.000000  0.000000 -0.000000  0.000000

   3.1   2  -123.2000 -483.1964  0.000168  0.000184  0.000480  0.000567  0.001118  0.001424  0.002591  0.003867  0.006847  0.011508
                                 0.020518  0.035540  0.058924  0.081839  0.069676 -0.041622 -0.276916 -0.457184 -0.297020  0.252727
                                 0.707860  0.407571  0.048686 -0.000540  0.000823 -0.000466  0.000115 -0.000117  0.000173 -0.000119
                                 0.000028 -0.000009  0.000002 -0.000000 -0.000000  0.000000 -0.000000 -0.000000  0.000000  0.000000
                                -0.000000 -0.000000 -0.000000 -0.000000 -0.000000  0.000000 -0.000000  0.000000 -0.000000  0.000000
                                -0.000000 -0.000000 -0.000000  0.000000 -0.000000 -0.000000 -0.000000  0.000000  0.000000 -0.000000
                                -0.000000  0.000000 -0.000000 -0.000000  0.000000  0.000000 -0.000000 -0.000000  0.000000  0.000000
                                -0.000000  0.000000 -0.000000  0.000000  0.000000  0.000000 -0.000000 -0.000000

   4.1   2   -80.7528 -408.3880 -0.000000  0.000000 -0.000000  0.000000 -0.000000  0.000000  0.000000  0.000000 -0.000000  0.000000
                                -0.000000  0.000000 -0.000000  0.000000 -0.000000  0.000000 -0.000000 -0.000000  0.000000 -0.000000
                                 0.000000 -0.000000 -0.000000  0.000000 -0.000000  0.000000 -0.000000  0.000000  0.000000 -0.000000
                                 0.000000 -0.000000  0.000000 -0.000000  0.000145 -0.000000  0.001037 -0.000000  0.005638 -0.000000
                                 0.023582 -0.000000  0.078156 -0.000000  0.195505 -0.000000  0.336019 -0.000000  0.355839 -0.000000
                                 0.185315 -0.000000  0.036343 -0.000000  0.002071 -0.000000  0.000308  0.000000 -0.000026 -0.000000
                                 0.000029  0.000000 -0.000010 -0.000000  0.000002  0.000000 -0.000000 -0.000000  0.000000 -0.000000
                                -0.000000  0.000000  0.000000 -0.000000 -0.000000 -0.000000  0.000000  0.000000

   5.1   2   -80.7528 -408.3880 -0.000000 -0.000000 -0.000000 -0.000000 -0.000000 -0.000000 -0.000000 -0.000000 -0.000000 -0.000000
                                -0.000000 -0.000000 -0.000000 -0.000000 -0.000000  0.000000  0.000000  0.000000  0.000000 -0.000000
                                -0.000000  0.000000  0.000000  0.000000 -0.000000  0.000000  0.000000  0.000000 -0.000000  0.000000
                                -0.000000  0.000000 -0.000000  0.000145  0.000000  0.001037  0.000000  0.005638  0.000000  0.023582
                                 0.000000  0.078156  0.000000  0.195505  0.000000  0.336019  0.000000  0.355839  0.000000  0.185315
                                 0.000000  0.036343  0.000000  0.002071  0.000000  0.000308  0.000000 -0.000026 -0.000000  0.000029
                                 0.000000 -0.000010 -0.000000  0.000002  0.000000 -0.000000 -0.000000  0.000000  0.000000  0.000000
                                 0.000000  0.000000 -0.000000 -0.000000 -0.000000  0.000000  0.000000 -0.000000

   6.1   2   -27.7000 -208.9695 -0.000084 -0.000092 -0.000239 -0.000282 -0.000557 -0.000709 -0.001291 -0.001927 -0.003415 -0.005744
                                -0.010259 -0.017809 -0.029664 -0.041451 -0.035541  0.023575  0.157624  0.277968  0.190031 -0.219343
                                -0.851503 -0.475406  0.709883  0.760702  0.115974 -0.006643  0.003221 -0.001600  0.002391 -0.001627
                                 0.000375 -0.000119  0.000033  0.000000 -0.000000 -0.000000  0.000000  0.000000  0.000000 -0.000000
                                 0.000000  0.000000  0.000000 -0.000000  0.000000  0.000000  0.000000 -0.000000  0.000000 -0.000000
                                 0.000000 -0.000000 -0.000000  0.000000 -0.000000 -0.000000 -0.000000 -0.000000  0.000000  0.000000
                                -0.000000 -0.000000 -0.000000  0.000000  0.000000 -0.000000 -0.000000  0.000000 -0.000000  0.000000
                                -0.000000  0.000000 -0.000000  0.000000 -0.000000  0.000000 -0.000000 -0.000000

   7.1   2   -12.5982 -169.4932  0.000000  0.000000 -0.000000  0.000000 -0.000000  0.000000  0.000000 -0.000000  0.000000  0.000000
                                -0.000000  0.000000 -0.000000  0.000000 -0.000000  0.000000 -0.000000  0.000000 -0.000000  0.000000
                                -0.000000  0.000000 -0.000000  0.000000 -0.000000  0.000000 -0.000000  0.000000 -0.000000  0.000000
                                -0.000000  0.000000 -0.000000  0.000000 -0.000075  0.000000 -0.000534  0.000000 -0.002921  0.000000
                                -0.012296  0.000000 -0.041434  0.000000 -0.105192  0.000000 -0.178271  0.000000 -0.151897 -0.000000
                                 0.113226 -0.000001  0.426114 -0.000001  0.430159 -0.000000  0.164897 -0.000000  0.016581 -0.000000
                                 0.001370  0.000000 -0.000182 -0.000000  0.000221  0.000000 -0.000055 -0.000000  0.000017 -0.000000
                                -0.000000  0.000000  0.000000  0.000000 -0.000000 -0.000000 -0.000000  0.000000

   8.1   2   -12.5982 -169.4932  0.000000  0.000000  0.000000  0.000000  0.000000  0.000000  0.000000  0.000000  0.000000  0.000000
                                 0.000000  0.000000  0.000000  0.000000  0.000000 -0.000000 -0.000000 -0.000000 -0.000000  0.000000
                                 0.000000  0.000000 -0.000001 -0.000000  0.000001 -0.000000  0.000000 -0.000000  0.000000 -0.000000
                                 0.000000 -0.000000  0.000000 -0.000075 -0.000000 -0.000534 -0.000000 -0.002921 -0.000000 -0.012296
                                -0.000000 -0.041434 -0.000000 -0.105192 -0.000000 -0.178271 -0.000000 -0.151897 -0.000000  0.113226
                                 0.000000  0.426114  0.000001  0.430159  0.000001  0.164897  0.000000  0.016581  0.000000  0.001370
                                 0.000000 -0.000182 -0.000000  0.000221  0.000000 -0.000055 -0.000000  0.000017  0.000000  0.000000
                                 0.000000 -0.000000 -0.000000 -0.000000 -0.000000  0.000000  0.000000  0.000000

   9.1   2    -4.2968  -91.3853  0.000036  0.000039  0.000102  0.000120  0.000237  0.000302  0.000549  0.000820  0.001454  0.002446
                                 0.004369  0.007590  0.012654  0.017713  0.015203 -0.010315 -0.069343 -0.123872 -0.087158  0.108331
                                 0.448989  0.247851 -0.529405 -0.868037  0.115911  0.840890  0.445880  0.052122 -0.030633  0.017571
                                -0.003095  0.000896 -0.000239 -0.000000  0.000000 -0.000000 -0.000000 -0.000000  0.000000 -0.000000
                                -0.000000 -0.000000  0.000000 -0.000000 -0.000000 -0.000000  0.000000 -0.000000 -0.000000  0.000000
                                 0.000000  0.000000 -0.000000  0.000000  0.000000 -0.000000 -0.000000 -0.000001  0.000000 -0.000001
                                -0.000000 -0.000000  0.000000  0.000000 -0.000000  0.000000  0.000000  0.000000 -0.000000 -0.000000
                                 0.000000  0.000000 -0.000000  0.000000 -0.000000  0.000000 -0.000000  0.000000

  10.1   2    -0.3223  -53.7741  0.000000  0.000000  0.000000  0.000000  0.000000  0.000000  0.000000  0.000000  0.000000  0.000000
                                 0.000000  0.000000  0.000000  0.000000  0.000000  0.000000 -0.000000 -0.000000 -0.000000  0.000000
                                 0.000000  0.000000 -0.000000 -0.000000 -0.000000  0.000000 -0.000000  0.000000 -0.000000  0.000000
                                -0.000000  0.000000 -0.000000 -0.000000  0.000020 -0.000000  0.000147 -0.000000  0.000802 -0.000000
                                 0.003399 -0.000000  0.011423 -0.000000  0.029250 -0.000000  0.049057 -0.000000  0.040262  0.000000
                                -0.046686  0.000000 -0.141927  0.000001 -0.144391 -0.000000  0.085974 -0.000001  0.289402 -0.000001
                                 0.162682 -0.000001  0.318014 -0.000001  0.282288 -0.000000  0.133909 -0.000000  0.004264  0.000000
                                -0.000000 -0.000000 -0.000000  0.000000 -0.000000  0.000000 -0.000000 -0.000002

  11.1   2    -0.3223  -53.7740 -0.000000 -0.000000 -0.000000 -0.000000 -0.000000 -0.000000 -0.000000 -0.000000 -0.000000 -0.000000
                                -0.000000 -0.000000 -0.000000 -0.000001 -0.000001  0.000000  0.000003  0.000005  0.000003 -0.000004
                                -0.000018 -0.000010  0.000023  0.000041 -0.000010 -0.000056 -0.000041  0.000023  0.000029  0.000067
                                 0.000048  0.000002  0.000000  0.000020  0.000000  0.000147  0.000000  0.000802  0.000000  0.003399
                                 0.000000  0.011423  0.000000  0.029250  0.000000  0.049057  0.000000  0.040262  0.000000 -0.046686
                                -0.000000 -0.141927 -0.000000 -0.144391 -0.000001  0.085974  0.000000  0.289402  0.000001  0.162682
                                 0.000001  0.318013  0.000001  0.282287  0.000001  0.133912  0.000000  0.004266  0.000000 -0.000000
                                -0.000000 -0.000000 -0.000001 -0.000000 -0.000000 -0.000003  0.000000 -0.000000

  12.1   0    -0.0067  -18.5436 -0.000006 -0.000006 -0.000016 -0.000019 -0.000037 -0.000047 -0.000086 -0.000128 -0.000227 -0.000383
                                -0.000682 -0.001188 -0.001975 -0.002780 -0.002354  0.001555  0.011060  0.019116  0.014568 -0.018658
                                -0.070691 -0.042397  0.093435  0.157402 -0.026268 -0.225612 -0.136770 -0.037155  0.374175 -0.230219
                                 0.536600 -0.146122  0.699116 -0.000000 -0.000000 -0.000000 -0.000000 -0.000000 -0.000000 -0.000000
                                -0.000000 -0.000001 -0.000000 -0.000003 -0.000000 -0.000005 -0.000000 -0.000004 -0.000000  0.000005
                                 0.000000  0.000014  0.000000  0.000015  0.000000 -0.000009 -0.000000 -0.000029 -0.000000 -0.000017
                                -0.000000 -0.000031 -0.000000 -0.000033 -0.000000 -0.000022 -0.000000 -0.000018 -0.000000 -0.000000
                                 0.000000 -0.000000 -0.000000  0.000000  0.000000  0.000000 -0.000000  0.000000

  13.1   0     0.0228   -9.8075  0.000004  0.000004  0.000010  0.000012  0.000024  0.000030  0.000056  0.000082  0.000148  0.000245
                                 0.000448  0.000756  0.001309  0.001724  0.001717 -0.001509 -0.005885 -0.015337 -0.003485  0.002208
                                 0.059288  0.010994 -0.036910 -0.137677  0.081694  0.042242  0.234384 -0.634308  2.256291 -2.980720
                                 2.245608 -3.904599  3.019419  0.000000 -0.000000  0.000000 -0.000000  0.000000 -0.000000  0.000000
                                -0.000000  0.000001 -0.000000  0.000002 -0.000000  0.000003 -0.000000  0.000002 -0.000000 -0.000002
                                -0.000000 -0.000007  0.000000 -0.000008 -0.000000  0.000004  0.000000  0.000015 -0.000000  0.000008
                                 0.000000  0.000016 -0.000000  0.000017  0.000000  0.000014  0.000000  0.000008 -0.000000  0.000000
                                -0.000000  0.000000  0.000000 -0.000000  0.000000 -0.000000  0.000000 -0.000000

                                   1 2px     1 2px     1 2px     1 2px     1 2px     1 2px     1 2px     1 2px     1 2px     1 2px  
                                   1 2px     1 2px     1 2px     1 2px     1 2px     1 2px     1 2px     1 2px     1 2px     1 2px  
                                   1 2px     1 2px     1 2px     1 2px     1 2px     1 2px     1 4f1+    1 4f3+    1 4f1+    1 4f3+ 
                                   1 4f1+    1 4f3+    1 4f1+    1 4f3+    1 4f1+    1 4f3+    1 4f1+    1 4f3+    1 4f1+    1 4f3+ 
                                   1 4f1+    1 4f3+    1 4f1+    1 4f3+    1 4f1+    1 4f3+    1 4f1+    1 4f3+    1 4f1+    1 4f3+ 
                                   1 4f1+    1 4f3+    1 4f1+    1 4f3+    1 4f1+    1 4f3+    1 4f1+    1 4f3+    1 4f1+    1 4f3+ 


   1.2   2  -447.2542-1242.7445  0.000024  0.000060  0.000175  0.000451  0.001166  0.002998  0.007814  0.020403  0.051865  0.121212
                                 0.236303  0.341001  0.286419  0.074235  0.058379 -0.003656  0.004717 -0.002132  0.001000 -0.000561
                                 0.000288 -0.000130  0.000051 -0.000020  0.000008 -0.000003 -0.000000  0.000000  0.000000  0.000000
                                 0.000000 -0.000000  0.000000  0.000000  0.000000  0.000000  0.000000 -0.000000  0.000000 -0.000000
                                 0.000000 -0.000000 -0.000000  0.000000 -0.000000  0.000000 -0.000000  0.000000 -0.000000 -0.000000
                                -0.000000  0.000000  0.000000 -0.000000 -0.000000 -0.000000  0.000000 -0.000000 -0.000000  0.000000

   2.2   2  -103.2572 -444.5612 -0.000012 -0.000031 -0.000090 -0.000232 -0.000603 -0.001555 -0.004090 -0.010764 -0.027981 -0.067087
                                -0.137650 -0.204137 -0.146061  0.123586  0.095112  0.490348  0.369889  0.071939  0.007055 -0.001238
                                 0.000764 -0.000418  0.000144 -0.000063  0.000026 -0.000008  0.000000 -0.000000  0.000000 -0.000000
                                -0.000000  0.000000  0.000000 -0.000000  0.000000 -0.000000  0.000000 -0.000000  0.000000  0.000000
                                -0.000000  0.000000  0.000000 -0.000000  0.000000 -0.000000  0.000000 -0.000000 -0.000000  0.000000
                                 0.000000 -0.000000 -0.000000  0.000000  0.000000  0.000000 -0.000000  0.000000  0.000000 -0.000000

   3.2   2   -21.0232 -190.9992  0.000006  0.000015  0.000044  0.000115  0.000298  0.000770  0.002031  0.005355  0.013996  0.033761
                                 0.070180  0.104868  0.069898 -0.097653 -0.077798 -0.400800 -0.233493  0.414380  0.612961  0.216141
                                 0.013054  0.001935 -0.000305  0.000191 -0.000074  0.000023  0.000000 -0.000000  0.000000  0.000000
                                 0.000000 -0.000000  0.000000  0.000000  0.000000  0.000000  0.000000  0.000000  0.000000  0.000000
                                 0.000000  0.000000  0.000000 -0.000000 -0.000000 -0.000000 -0.000000  0.000000  0.000000 -0.000000
                                -0.000000  0.000000  0.000000 -0.000000 -0.000000  0.000000  0.000000 -0.000000 -0.000000  0.000000

   4.2   2    -3.2384 -142.5912  0.000000  0.000000  0.000000  0.000000  0.000000  0.000000  0.000000  0.000000  0.000000  0.000000
                                 0.000000  0.000000  0.000000 -0.000000 -0.000000 -0.000000 -0.000000  0.000000  0.000000  0.000000
                                -0.000001 -0.000001  0.000000  0.000000  0.000000  0.000000  0.000215  0.000000  0.001990  0.000001
                                 0.000005  0.000000  0.011257  0.000004  0.042360  0.000017  0.114350  0.000045  0.223439  0.000088
                                 0.311402  0.000123  0.320162  0.000126  0.225476  0.000089  0.089076  0.000035 -0.000313 -0.000000
                                 0.015282  0.000006 -0.007196 -0.000003  0.003987  0.000002 -0.002339 -0.000001  0.001136  0.000000

   5.2   2    -3.2384 -142.5911  0.000000  0.000000  0.000000  0.000000  0.000000  0.000000  0.000000  0.000000  0.000000  0.000000
                                 0.000000  0.000000  0.000000 -0.000000 -0.000000 -0.000000 -0.000000  0.000000  0.000000 -0.000000
                                -0.000000  0.000000  0.000000 -0.000000 -0.000000 -0.000000 -0.000000  0.000215 -0.000001  0.001990
                                -0.000000  0.000005 -0.000004  0.011257 -0.000017  0.042360 -0.000045  0.114350 -0.000088  0.223439
                                -0.000123  0.311402 -0.000126  0.320162 -0.000089  0.225476 -0.000035  0.089076  0.000000 -0.000313
                                -0.000006  0.015282  0.000003 -0.007196 -0.000002  0.003987  0.000001 -0.002339 -0.000000  0.001136

   6.2   2    -2.4668  -79.0832 -0.000002 -0.000006 -0.000017 -0.000045 -0.000117 -0.000301 -0.000795 -0.002092 -0.005490 -0.013211
                                -0.027685 -0.041031 -0.028198  0.046017  0.025709  0.183044  0.082450 -0.237259 -0.429772 -0.006048
                                 0.520500  0.504897  0.153305  0.000300  0.003437 -0.001033  0.000000 -0.000000  0.000000 -0.000000
                                -0.000000 -0.000000  0.000000 -0.000000  0.000000 -0.000000  0.000000 -0.000000  0.000000 -0.000000
                                 0.000000 -0.000000  0.000000 -0.000000  0.000000  0.000000 -0.000000  0.000000 -0.000001  0.000000
                                -0.000000  0.000000  0.000000 -0.000000  0.000000 -0.000000  0.000000 -0.000000 -0.000000 -0.000000

   7.2   0     0.0379  -10.1266  0.000000  0.000000  0.000001  0.000002  0.000005  0.000013  0.000033  0.000092  0.000227  0.000586
                                 0.001112  0.001974  0.000281  0.001348 -0.007405 -0.001695 -0.008963  0.017738  0.008778  0.016094
                                -0.055665  0.013410 -0.072656  0.189251 -0.389390  1.219989 -0.000000  0.000000 -0.000000  0.000000
                                -0.000000 -0.000000 -0.000000  0.000000 -0.000000  0.000000 -0.000000  0.000000 -0.000000  0.000000
                                -0.000000  0.000000 -0.000000  0.000000  0.000000  0.000000 -0.000000 -0.000000  0.000001 -0.000000
                                -0.000001 -0.000000  0.000002 -0.000000 -0.000003 -0.000000  0.000007 -0.000000 -0.000012 -0.000000

   8.2   0     0.1363  -16.3857 -0.000000 -0.000001 -0.000002 -0.000006 -0.000015 -0.000039 -0.000107 -0.000269 -0.000746 -0.001672
                                -0.003861 -0.004731 -0.006511  0.016255 -0.015746  0.043303 -0.005894 -0.010765 -0.093224  0.054219
                                 0.003273  0.219619 -0.207539  0.416310 -1.836431  1.090211  0.000000 -0.000000  0.000000 -0.000000
                                 0.000000  0.000000  0.000000 -0.000000  0.000000 -0.000000  0.000000 -0.000000  0.000000 -0.000000
                                 0.000000 -0.000000  0.000000 -0.000000 -0.000000 -0.000000  0.000000  0.000000 -0.000002 -0.000000
                                 0.000002  0.000000 -0.000005 -0.000000  0.000010  0.000000 -0.000014 -0.000000  0.000025  0.000000

                                   1 2py     1 2py     1 2py     1 2py     1 2py     1 2py     1 2py     1 2py     1 2py     1 2py  
                                   1 2py     1 2py     1 2py     1 2py     1 2py     1 2py     1 2py     1 2py     1 2py     1 2py  
                                   1 2py     1 2py     1 2py     1 2py     1 2py     1 2py     1 4f1-    1 4f3-    1 4f1-    1 4f3- 
                                   1 4f1-    1 4f3-    1 4f1-    1 4f3-    1 4f1-    1 4f3-    1 4f1-    1 4f3-    1 4f1-    1 4f3- 
                                   1 4f1-    1 4f3-    1 4f1-    1 4f3-    1 4f1-    1 4f3-    1 4f1-    1 4f3-    1 4f1-    1 4f3- 
                                   1 4f1-    1 4f3-    1 4f1-    1 4f3-    1 4f1-    1 4f3-    1 4f1-    1 4f3-    1 4f1-    1 4f3- 


   1.3   2  -447.2542-1242.7445  0.000024  0.000060  0.000175  0.000451  0.001166  0.002998  0.007814  0.020403  0.051865  0.121212
                                 0.236303  0.341001  0.286419  0.074235  0.058379 -0.003656  0.004717 -0.002132  0.001000 -0.000561
                                 0.000288 -0.000130  0.000051 -0.000020  0.000008 -0.000003 -0.000000 -0.000000  0.000000 -0.000000
                                 0.000000  0.000000  0.000000 -0.000000  0.000000 -0.000000  0.000000  0.000000  0.000000  0.000000
                                 0.000000  0.000000 -0.000000 -0.000000 -0.000000 -0.000000 -0.000000 -0.000000 -0.000000  0.000000
                                -0.000000 -0.000000  0.000000  0.000000 -0.000000  0.000000  0.000000  0.000000 -0.000000 -0.000000

   2.3   2  -103.2572 -444.5612 -0.000012 -0.000031 -0.000090 -0.000232 -0.000603 -0.001555 -0.004090 -0.010764 -0.027981 -0.067087
                                -0.137650 -0.204137 -0.146061  0.123586  0.095112  0.490348  0.369889  0.071939  0.007055 -0.001238
                                 0.000764 -0.000418  0.000144 -0.000063  0.000026 -0.000008  0.000000  0.000000  0.000000  0.000000
                                -0.000000 -0.000000  0.000000  0.000000  0.000000  0.000000  0.000000  0.000000  0.000000 -0.000000
                                -0.000000 -0.000000  0.000000  0.000000  0.000000  0.000000  0.000000  0.000000 -0.000000 -0.000000
                                 0.000000  0.000000 -0.000000 -0.000000  0.000000 -0.000000 -0.000000 -0.000000  0.000000  0.000000

   3.3   2   -21.0232 -190.9992  0.000006  0.000015  0.000044  0.000115  0.000298  0.000770  0.002031  0.005355  0.013996  0.033761
                                 0.070180  0.104868  0.069898 -0.097653 -0.077798 -0.400800 -0.233493  0.414380  0.612961  0.216141
                                 0.013054  0.001935 -0.000305  0.000191 -0.000074  0.000023  0.000000  0.000000  0.000000 -0.000000
                                 0.000000  0.000000  0.000000 -0.000000  0.000000 -0.000000  0.000000 -0.000000  0.000000 -0.000000
                                 0.000000 -0.000000  0.000000  0.000000 -0.000000  0.000000 -0.000000 -0.000000  0.000000  0.000000
                                -0.000000 -0.000000  0.000000  0.000000 -0.000000 -0.000000  0.000000  0.000000 -0.000000 -0.000000

   4.3   2    -3.2384 -142.5912  0.000000  0.000000  0.000000  0.000000  0.000000  0.000000  0.000000  0.000000  0.000000  0.000000
                                 0.000000  0.000000  0.000000 -0.000000 -0.000000 -0.000000 -0.000000  0.000000  0.000000  0.000000
                                -0.000001 -0.000001  0.000000  0.000000  0.000000  0.000000  0.000215 -0.000000  0.001990 -0.000001
                                 0.000005 -0.000000  0.011257 -0.000004  0.042360 -0.000017  0.114350 -0.000045  0.223439 -0.000087
                                 0.311402 -0.000122  0.320162 -0.000125  0.225476 -0.000088  0.089076 -0.000035 -0.000313  0.000000
                                 0.015282 -0.000006 -0.007196  0.000003  0.003987 -0.000002 -0.002339  0.000001  0.001136 -0.000000

   5.3   2    -3.2384 -142.5911 -0.000000 -0.000000 -0.000000 -0.000000 -0.000000 -0.000000 -0.000000 -0.000000 -0.000000 -0.000000
                                -0.000000 -0.000000 -0.000000  0.000000  0.000000  0.000000  0.000000 -0.000000 -0.000000  0.000000
                                 0.000000 -0.000000 -0.000000  0.000000  0.000000  0.000000  0.000000  0.000215  0.000001  0.001990
                                 0.000000  0.000005  0.000004  0.011257  0.000017  0.042360  0.000045  0.114350  0.000087  0.223439
                                 0.000122  0.311402  0.000125  0.320162  0.000088  0.225476  0.000035  0.089076 -0.000000 -0.000313
                                 0.000006  0.015282 -0.000003 -0.007196  0.000002  0.003987 -0.000001 -0.002339  0.000000  0.001136

   6.3   2    -2.4668  -79.0832 -0.000002 -0.000006 -0.000017 -0.000045 -0.000117 -0.000301 -0.000795 -0.002092 -0.005490 -0.013211
                                -0.027685 -0.041031 -0.028198  0.046017  0.025709  0.183044  0.082450 -0.237259 -0.429772 -0.006048
                                 0.520500  0.504897  0.153305  0.000300  0.003437 -0.001033  0.000000  0.000000  0.000000  0.000000
                                -0.000000  0.000000  0.000000  0.000000  0.000000  0.000000  0.000000  0.000000  0.000000  0.000000
                                 0.000000  0.000000  0.000000  0.000000  0.000000 -0.000000 -0.000000 -0.000000 -0.000001 -0.000000
                                -0.000000 -0.000000  0.000000  0.000000  0.000000  0.000000  0.000000  0.000000 -0.000000  0.000000

   7.3   0     0.0379  -10.1266  0.000000  0.000000  0.000001  0.000002  0.000005  0.000013  0.000033  0.000092  0.000227  0.000586
                                 0.001112  0.001974  0.000281  0.001348 -0.007405 -0.001695 -0.008963  0.017738  0.008778  0.016094
                                -0.055665  0.013410 -0.072656  0.189251 -0.389390  1.219989 -0.000000 -0.000000 -0.000000 -0.000000
                                -0.000000  0.000000 -0.000000 -0.000000 -0.000000 -0.000000 -0.000000 -0.000000 -0.000000 -0.000000
                                -0.000000 -0.000000 -0.000000 -0.000000  0.000000 -0.000000 -0.000000  0.000000  0.000001  0.000000
                                -0.000001  0.000000  0.000002  0.000000 -0.000003  0.000000  0.000007  0.000000 -0.000012  0.000000

   8.3   0     0.1363  -16.3857 -0.000000 -0.000001 -0.000002 -0.000006 -0.000015 -0.000039 -0.000107 -0.000269 -0.000746 -0.001672
                                -0.003861 -0.004731 -0.006511  0.016255 -0.015746  0.043303 -0.005894 -0.010765 -0.093224  0.054219
                                 0.003273  0.219619 -0.207539  0.416310 -1.836431  1.090211  0.000000  0.000000  0.000000  0.000000
                                 0.000000 -0.000000  0.000000  0.000000  0.000000  0.000000  0.000000  0.000000  0.000000  0.000000
                                 0.000000  0.000000  0.000000  0.000000 -0.000000  0.000000  0.000000 -0.000000 -0.000002  0.000000
                                 0.000002 -0.000000 -0.000005  0.000000  0.000010 -0.000000 -0.000014  0.000000  0.000025 -0.000000

                                   1 3d2-    1 3d2-    1 3d2-    1 3d2-    1 3d2-    1 3d2-    1 3d2-    1 3d2-    1 3d2-    1 3d2- 
                                   1 3d2-    1 3d2-    1 3d2-    1 3d2-    1 3d2-    1 3d2-    1 3d2-    1 3d2-    1 5g2-    1 5g4- 
                                   1 5g2-    1 5g4-    1 5g2-    1 5g4- 

   1.4   2   -80.7528 -408.3880  0.000145  0.001037  0.005638  0.023582  0.078156  0.195505  0.336019  0.355839  0.185315  0.036343
                                 0.002071  0.000308 -0.000026  0.000029 -0.000010  0.000002 -0.000000  0.000000  0.000000 -0.000000
                                -0.000000  0.000000  0.000000 -0.000000

   2.4   2   -12.5982 -169.4932 -0.000075 -0.000534 -0.002921 -0.012296 -0.041434 -0.105192 -0.178271 -0.151897  0.113226  0.426114
                                 0.430159  0.164897  0.016581  0.001370 -0.000182  0.000221 -0.000055  0.000017  0.000000 -0.000000
                                -0.000000  0.000000  0.000000  0.000000

   3.4   2    -0.3223  -53.7741 -0.000020 -0.000147 -0.000802 -0.003399 -0.011423 -0.029250 -0.049057 -0.040262  0.046686  0.141927
                                 0.144391 -0.085974 -0.289402 -0.162682 -0.318014 -0.282288 -0.133909 -0.004265  0.000000  0.000000
                                 0.000000  0.000000  0.000002  0.000000

   4.4   0     0.1144  -11.1388 -0.000003 -0.000016 -0.000100 -0.000377 -0.001418 -0.003204 -0.006366 -0.003303  0.002526  0.022697
                                 0.004902  0.016099 -0.136229  0.171518 -0.244210  0.181703 -0.447176  1.230157 -0.000000  0.000000
                                 0.000000  0.000000  0.000000  0.000000

   5.4   0     0.4074  -19.3929  0.000007  0.000057  0.000273  0.001312  0.003885  0.011418  0.015729  0.019497 -0.027448 -0.031138
                                -0.094661  0.126537 -0.249929  0.750566 -0.641479  0.982578 -1.850375  0.826193  0.000000 -0.000000
                                -0.000001 -0.000000  0.000001  0.000000

                                   1 2pz     1 2pz     1 2pz     1 2pz     1 2pz     1 2pz     1 2pz     1 2pz     1 2pz     1 2pz  
                                   1 2pz     1 2pz     1 2pz     1 2pz     1 2pz     1 2pz     1 2pz     1 2pz     1 2pz     1 2pz  
                                   1 2pz     1 2pz     1 2pz     1 2pz     1 2pz     1 2pz     1 4f0     1 4f2+    1 4f0     1 4f2+ 
                                   1 4f0     1 4f2+    1 4f0     1 4f2+    1 4f0     1 4f2+    1 4f0     1 4f2+    1 4f0     1 4f2+ 
                                   1 4f0     1 4f2+    1 4f0     1 4f2+    1 4f0     1 4f2+    1 4f0     1 4f2+    1 4f0     1 4f2+ 
                                   1 4f0     1 4f2+    1 4f0     1 4f2+    1 4f0     1 4f2+    1 4f0     1 4f2+    1 4f0     1 4f2+ 


   1.5   2  -447.2542-1242.7445  0.000024  0.000060  0.000175  0.000451  0.001166  0.002998  0.007814  0.020403  0.051865  0.121212
                                 0.236303  0.341001  0.286419  0.074235  0.058379 -0.003656  0.004717 -0.002132  0.001000 -0.000561
                                 0.000288 -0.000130  0.000051 -0.000020  0.000008 -0.000003 -0.000000 -0.000000  0.000000 -0.000000
                                 0.000000  0.000000  0.000000 -0.000000  0.000000  0.000000  0.000000 -0.000000  0.000000  0.000000
                                 0.000000 -0.000000 -0.000000  0.000000 -0.000000 -0.000000 -0.000000  0.000000 -0.000000 -0.000000
                                -0.000000  0.000000  0.000000 -0.000000 -0.000000  0.000000  0.000000 -0.000000 -0.000000  0.000000

   2.5   2  -103.2572 -444.5612 -0.000012 -0.000031 -0.000090 -0.000232 -0.000603 -0.001555 -0.004090 -0.010764 -0.027981 -0.067087
                                -0.137650 -0.204137 -0.146061  0.123586  0.095112  0.490348  0.369889  0.071939  0.007055 -0.001238
                                 0.000764 -0.000418  0.000144 -0.000063  0.000026 -0.000008  0.000000  0.000000  0.000000  0.000000
                                -0.000000 -0.000000  0.000000  0.000000  0.000000  0.000000  0.000000  0.000000  0.000000 -0.000000
                                -0.000000 -0.000000  0.000000 -0.000000  0.000000 -0.000000  0.000000 -0.000000 -0.000000  0.000000
                                 0.000000 -0.000000 -0.000000  0.000000  0.000000 -0.000000 -0.000000  0.000000  0.000000 -0.000000

   3.5   2   -21.0232 -190.9992  0.000006  0.000015  0.000044  0.000115  0.000298  0.000770  0.002031  0.005355  0.013996  0.033761
                                 0.070180  0.104868  0.069898 -0.097653 -0.077798 -0.400800 -0.233493  0.414379  0.612961  0.216141
                                 0.013053  0.001935 -0.000305  0.000191 -0.000074  0.000023  0.000000 -0.000000  0.000000 -0.000000
                                 0.000000  0.000000  0.000000 -0.000000  0.000000 -0.000000  0.000000 -0.000000  0.000000 -0.000000
                                 0.000000 -0.000000  0.000000 -0.000000 -0.000000 -0.000000 -0.000000  0.000000  0.000000 -0.000000
                                -0.000000  0.000000  0.000000 -0.000000 -0.000000  0.000000  0.000000 -0.000000 -0.000000  0.000000

   4.5   2    -3.2384 -142.5912  0.000000  0.000000  0.000000  0.000000  0.000000  0.000000  0.000000  0.000000  0.000000  0.000000
                                 0.000000  0.000000  0.000000 -0.000000 -0.000000 -0.000000 -0.000000  0.000000  0.000000  0.000000
                                -0.000001 -0.000001  0.000000  0.000000  0.000000  0.000000  0.000215  0.000000  0.001990  0.000000
                                 0.000005  0.000000  0.011257  0.000000  0.042360  0.000000  0.114350  0.000001  0.223439  0.000001
                                 0.311402  0.000002  0.320162  0.000002  0.225476  0.000001  0.089076  0.000001 -0.000313 -0.000000
                                 0.015282  0.000000 -0.007196 -0.000000  0.003987  0.000000 -0.002339 -0.000000  0.001136  0.000000

   5.5   2    -3.2384 -142.5911 -0.000000  0.000000 -0.000000 -0.000000 -0.000000 -0.000000 -0.000000 -0.000000 -0.000000 -0.000000
                                -0.000000 -0.000000  0.000000 -0.000000  0.000000 -0.000000  0.000000 -0.000000  0.000000 -0.000000
                                 0.000000 -0.000000  0.000000 -0.000000  0.000000 -0.000000 -0.000000  0.000215 -0.000000  0.001990
                                -0.000000  0.000005 -0.000000  0.011257 -0.000000  0.042360 -0.000001  0.114350 -0.000001  0.223439
                                -0.000002  0.311402 -0.000002  0.320162 -0.000001  0.225476 -0.000001  0.089076  0.000000 -0.000313
                                -0.000000  0.015282  0.000000 -0.007196 -0.000000  0.003987  0.000000 -0.002339 -0.000000  0.001136

   6.5   2    -2.4668  -79.0831 -0.000002 -0.000006 -0.000017 -0.000045 -0.000117 -0.000301 -0.000795 -0.002092 -0.005490 -0.013211
                                -0.027685 -0.041031 -0.028198  0.046017  0.025709  0.183043  0.082449 -0.237259 -0.429772 -0.006049
                                 0.520499  0.504894  0.153308  0.000303  0.003437 -0.001033  0.000000  0.000000  0.000000  0.000000
                                -0.000000 -0.000000  0.000000  0.000000  0.000000  0.000000  0.000000  0.000000  0.000000  0.000000
                                 0.000000  0.000000  0.000000  0.000000  0.000000 -0.000000 -0.000000  0.000000 -0.000001 -0.000000
                                -0.000000  0.000000  0.000000 -0.000000  0.000000  0.000000  0.000000 -0.000000 -0.000000  0.000000

   7.5   0     0.0379  -10.1266  0.000000  0.000000  0.000001  0.000002  0.000005  0.000013  0.000033  0.000092  0.000227  0.000586
                                 0.001112  0.001974  0.000281  0.001348 -0.007405 -0.001695 -0.008963  0.017739  0.008778  0.016095
                                -0.055666  0.013410 -0.072657  0.189257 -0.389401  1.219995 -0.000000 -0.000000 -0.000000 -0.000000
                                -0.000000 -0.000000 -0.000000 -0.000000 -0.000000 -0.000000 -0.000000 -0.000000 -0.000000 -0.000000
                                -0.000000 -0.000000 -0.000000 -0.000000  0.000000  0.000000 -0.000000  0.000000  0.000001  0.000000
                                -0.000001  0.000000  0.000002  0.000000 -0.000004  0.000000  0.000009  0.000000 -0.000015 -0.000000

   8.5   0     0.1364  -16.3858 -0.000000 -0.000001 -0.000002 -0.000006 -0.000015 -0.000039 -0.000107 -0.000269 -0.000746 -0.001672
                                -0.003861 -0.004731 -0.006511  0.016255 -0.015746  0.043304 -0.005893 -0.010766 -0.093227  0.054219
                                 0.003275  0.219623 -0.207542  0.416307 -1.836426  1.090204  0.000000 -0.000000  0.000000  0.000000
                                 0.000000 -0.000000  0.000000  0.000000  0.000000 -0.000000  0.000000  0.000000  0.000000 -0.000000
                                 0.000000  0.000000  0.000000 -0.000000 -0.000000  0.000000  0.000000 -0.000000 -0.000002  0.000000
                                 0.000003 -0.000000 -0.000006  0.000000  0.000011 -0.000000 -0.000017  0.000000  0.000030 -0.000000

                                   1 3d1+    1 3d1+    1 3d1+    1 3d1+    1 3d1+    1 3d1+    1 3d1+    1 3d1+    1 3d1+    1 3d1+ 
                                   1 3d1+    1 3d1+    1 3d1+    1 3d1+    1 3d1+    1 3d1+    1 3d1+    1 3d1+    1 5g1+    1 5g3+ 
                                   1 5g1+    1 5g3+    1 5g1+    1 5g3+ 

   1.6   2   -80.7528 -408.3880  0.000145  0.001037  0.005638  0.023582  0.078156  0.195505  0.336019  0.355839  0.185315  0.036343
                                 0.002071  0.000308 -0.000026  0.000029 -0.000010  0.000002 -0.000000  0.000000  0.000000 -0.000000
                                -0.000000  0.000000  0.000000 -0.000000

   2.6   2   -12.5982 -169.4932 -0.000075 -0.000534 -0.002921 -0.012296 -0.041434 -0.105192 -0.178271 -0.151897  0.113226  0.426114
                                 0.430159  0.164897  0.016581  0.001370 -0.000182  0.000221 -0.000055  0.000017  0.000000 -0.000000
                                -0.000000  0.000000  0.000000 -0.000000

   3.6   2    -0.3223  -53.7741  0.000020  0.000147  0.000802  0.003399  0.011423  0.029250  0.049057  0.040262 -0.046686 -0.141927
                                -0.144391  0.085974  0.289402  0.162682  0.318013  0.282287  0.133911  0.004265 -0.000000  0.000000
                                -0.000001  0.000000 -0.000002 -0.000000

   4.6   0     0.1144  -11.1388 -0.000003 -0.000016 -0.000100 -0.000377 -0.001418 -0.003204 -0.006366 -0.003303  0.002525  0.022697
                                 0.004902  0.016099 -0.136231  0.171521 -0.244212  0.181706 -0.447182  1.230160 -0.000000 -0.000000
                                 0.000000 -0.000000  0.000000 -0.000000

   5.6   0     0.4074  -19.3929  0.000007  0.000057  0.000273  0.001312  0.003885  0.011418  0.015729  0.019497 -0.027449 -0.031138
                                -0.094662  0.126538 -0.249932  0.750572 -0.641486  0.982584 -1.850376  0.826190  0.000000  0.000000
                                -0.000001  0.000000  0.000001  0.000000

                                   1 3d1-    1 3d1-    1 3d1-    1 3d1-    1 3d1-    1 3d1-    1 3d1-    1 3d1-    1 3d1-    1 3d1- 
                                   1 3d1-    1 3d1-    1 3d1-    1 3d1-    1 3d1-    1 3d1-    1 3d1-    1 3d1-    1 5g1-    1 5g3- 
                                   1 5g1-    1 5g3-    1 5g1-    1 5g3- 

   1.7   2   -80.7528 -408.3880  0.000145  0.001037  0.005638  0.023582  0.078156  0.195505  0.336019  0.355839  0.185315  0.036343
                                 0.002071  0.000308 -0.000026  0.000029 -0.000010  0.000002 -0.000000  0.000000  0.000000  0.000000
                                -0.000000 -0.000000  0.000000  0.000000

   2.7   2   -12.5982 -169.4932 -0.000075 -0.000534 -0.002921 -0.012296 -0.041434 -0.105192 -0.178271 -0.151897  0.113226  0.426114
                                 0.430159  0.164897  0.016581  0.001370 -0.000182  0.000221 -0.000055  0.000017  0.000000  0.000000
                                -0.000000 -0.000000  0.000000  0.000000

   3.7   2    -0.3223  -53.7741  0.000020  0.000147  0.000802  0.003399  0.011423  0.029250  0.049057  0.040262 -0.046686 -0.141927
                                -0.144391  0.085974  0.289402  0.162682  0.318013  0.282287  0.133911  0.004265 -0.000000 -0.000000
                                -0.000001 -0.000000 -0.000002  0.000000

   4.7   0     0.1144  -11.1388 -0.000003 -0.000016 -0.000100 -0.000377 -0.001418 -0.003204 -0.006366 -0.003303  0.002525  0.022697
                                 0.004902  0.016099 -0.136231  0.171521 -0.244212  0.181706 -0.447182  1.230160 -0.000000  0.000000
                                 0.000000  0.000000  0.000000  0.000000

   5.7   0     0.4074  -19.3929  0.000007  0.000057  0.000273  0.001312  0.003885  0.011418  0.015729  0.019497 -0.027449 -0.031138
                                -0.094662  0.126538 -0.249932  0.750572 -0.641486  0.982584 -1.850376  0.826190  0.000000 -0.000000
                                -0.000001 -0.000000  0.000001 -0.000000

                                   1 4f2-    1 4f2-    1 4f2-    1 4f2-    1 4f2-    1 4f2-    1 4f2-    1 4f2-    1 4f2-    1 4f2- 
                                   1 4f2-    1 4f2-    1 4f2-    1 4f2-    1 4f2-    1 4f2-    1 4f2- 

   1.8   2    -3.2384 -142.5911  0.000215  0.001990  0.000005  0.011257  0.042360  0.114350  0.223439  0.311402  0.320162  0.225476
                                 0.089076 -0.000313  0.015282 -0.007196  0.003987 -0.002339  0.001136

   2.8   0     0.1576   -9.4886  0.000003 -0.000056  0.000170 -0.000254  0.000260 -0.000991  0.001319 -0.004212  0.006671 -0.015273
                                 0.056828 -0.120616  0.274106 -0.486418  0.802818 -2.139643  2.518410

   3.8   0     0.3822  -12.9720 -0.000008  0.000075 -0.000314  0.000311 -0.001070  0.000237 -0.005535  0.003585 -0.016404  0.027362
                                -0.101091  0.232601 -0.505511  0.961216 -1.566753  4.055018 -2.616907

 HOMO     11.1    -0.322305 =      -8.7704eV
 LUMO     12.1    -0.006674 =      -0.1816eV
 LUMO-HOMO         0.315631 =       8.5888eV


 **********************************************************************************************************************************
 DATASETS  * FILE   NREC   LENGTH (MB)   RECORD NAMES
              1      22       21.27       500      610      700      900      950      970     1000      129      960     1700   
                                          VAR    BASINP    GEOM    SYMINP    ZMAT    AOBASIS   BASIS     P2S    ABASIS    OPER   
                                         1101     1401     1411     1412     1650     1100     1400     1410     1200     1210   
                                          SR      EKINR    POTR     PVPR    MOLCAS      S      EKIN      POT      H0       H01  
                                         1080     1600   
                                         AOSYM     SMH  

              2       5        5.77       200      700     1000      520     4202   
                                        OPTIONS   GEOM     BASIS   MCVARS     RHF  

 PROGRAMS   *        TOTAL       RHF       INT
 CPU TIMES  *        80.24      1.52     78.21
 REAL TIME  *        85.57 SEC
 DISK USED  *         4.08 GB      
 SF USED    *         0.08 MB      
 GA USED    *         0.00 MB       (max)       0.00 MB       (current)
 **********************************************************************************************************************************

 DO I                   =         9.00000000   

 Running procedure=VD6


 PROGRAM * RHF-SCF (OPEN SHELL)       Authors: W. Meyer, H.-J. Werner


 NUMBER OF ELECTRONS:      39+   35-    SPACE SYMMETRY=1    SPIN SYMMETRY: Quintet 
 CONVERGENCE THRESHOLDS:    1.00E-05 (Density)    1.56E-07 (Energy)
 MAX. NUMBER OF ITERATIONS:       60
 INTERPOLATION TYPE:            DIIS
 INTERPOLATION STEPS:              2 (START)      1 (STEP)
 LEVEL SHIFTS:                 -0.60 (CLOSED) -0.30 (OPEN) 

 Number of closed-shell orbitals:   35 (  10   6   6   2   6   2   2   1 )
 Number of open-shell orbitals:      4 (   1   0   0   1   0   1   1   0 )


 
 Extra symmetries of mos in symmetry 1:   1   1   1   3   2   1   3   2   1   3   2
 Orbital guess generated from atomic densities. Full valence occupancy:   12   6   6   3   6   3   3   1


 Molecular orbital dump at record        4202.2

 ITERATION    DDIFF          GRAD             ENERGY        2-EL.EN.            DIPOLE MOMENTS         DIIS   ORB.
    1      0.000D+00      0.000D+00    -18391.88785776  12758.642110    0.00000    0.00000    0.00000    0    start
    2      0.000D+00      0.549D-01    -18407.71098181  13670.677826    0.00000    0.00000    0.00000    1    diag,B
    3      0.783D-01      0.766D-01    -18409.23139015  13502.911682    0.00000    0.00000    0.00000    2    diag,B
    4      0.836D-02      0.218D-01    -18409.56582795  13440.743142    0.00000    0.00000    0.00000    3    diag,B
    5      0.543D-02      0.752D-02    -18409.62753094  13409.664673    0.00000    0.00000    0.00000    4    diag,B
    6      0.282D-02      0.103D-02    -18409.62907767  13405.135012    0.00000    0.00000    0.00000    5    diag,B
    7      0.455D-03      0.257D-03    -18409.62916030  13405.153722    0.00000    0.00000    0.00000    6    fixocc
    8      0.153D-03      0.962D-04    -18409.62917265  13405.396343    0.00000    0.00000    0.00000    7    diag,B
    9      0.595D-04      0.169D-04    -18409.62917394  13405.456909    0.00000    0.00000    0.00000    8    diag,B
   10      0.157D-04      0.454D-05    -18409.62917412  13405.451666    0.00000    0.00000    0.00000    9    orth
   11      0.609D-05      0.161D-05    -18409.62917415  13405.446587    0.00000    0.00000    0.00000    9    diag,B
   12      0.300D-05      0.414D-06    -18409.62917415  13405.448487    0.00000    0.00000    0.00000    0    orth

 Final alpha occupancy:  11   6   6   3   6   3   3   1
 Final beta  occupancy:  10   6   6   2   6   2   2   1

 !RHF STATE 1.1 Energy               -18409.6291741458    
 Nuclear energy                         0.00000000
 One-electron energy               -25112.35341771
 Two-electron energy                 6702.72424356
 Virial quotient                       -0.67623693
 !RHF STATE 1.1 Dipole moment           0.00000000     0.00000000     0.00000000
 Dipole moment /Debye                   0.00000000     0.00000000     0.00000000

 ELECTRON ORBITALS
 =================


   Orb  Occ    Energy  Couls-En    Coefficients

                                   1 1s      1 1s      1 1s      1 1s      1 1s      1 1s      1 1s      1 1s      1 1s      1 1s   
                                   1 1s      1 1s      1 1s      1 1s      1 1s      1 1s      1 1s      1 1s      1 1s      1 1s   
                                   1 1s      1 1s      1 1s      1 1s      1 1s      1 1s      1 1s      1 1s      1 1s      1 1s   
                                   1 1s      1 1s      1 1s      1 3d0     1 3d2+    1 3d0     1 3d2+    1 3d0     1 3d2+    1 3d0  
                                   1 3d2+    1 3d0     1 3d2+    1 3d0     1 3d2+    1 3d0     1 3d2+    1 3d0     1 3d2+    1 3d0  
                                   1 3d2+    1 3d0     1 3d2+    1 3d0     1 3d2+    1 3d0     1 3d2+    1 3d0     1 3d2+    1 3d0  
                                   1 3d2+    1 3d0     1 3d2+    1 3d0     1 3d2+    1 3d0     1 3d2+    1 3d0     1 3d2+    1 5g0  
                                   1 5g4+    1 5g2+    1 5g0     1 5g4+    1 5g2+    1 5g0     1 5g4+    1 5g2+ 

   1.1   2 -2899.5018-6237.8695  0.000912  0.000995  0.002594  0.003050  0.006001  0.007586  0.013714  0.020199  0.035192  0.057528
                                 0.098418  0.159082  0.235953  0.276413  0.213081  0.079085  0.011106 -0.000671  0.001102 -0.000954
                                 0.000573 -0.000313  0.000168 -0.000094  0.000056 -0.000035  0.000016 -0.000014  0.000022 -0.000015
                                 0.000004 -0.000001  0.000000  0.000000 -0.000000  0.000000 -0.000000  0.000000  0.000000  0.000000
                                -0.000000  0.000000  0.000000 -0.000000 -0.000000 -0.000000  0.000000  0.000000 -0.000000  0.000000
                                 0.000000  0.000000 -0.000000  0.000000  0.000000 -0.000000 -0.000000 -0.000000  0.000000 -0.000000
                                -0.000000 -0.000000  0.000000 -0.000000 -0.000000 -0.000000  0.000000  0.000000 -0.000000  0.000000
                                 0.000000  0.000000 -0.000000 -0.000000 -0.000000  0.000000  0.000000  0.000000

   2.1   2  -516.3878-1367.1818 -0.000352 -0.000384 -0.001004 -0.001184 -0.002335 -0.002971 -0.005401 -0.008047 -0.014215 -0.023796
                                -0.042178 -0.072302 -0.117872 -0.159204 -0.133030  0.049148  0.335383  0.439815  0.258772  0.065706
                                 0.004326  0.000519 -0.000389  0.000089 -0.000073  0.000054 -0.000021  0.000020 -0.000030  0.000021
                                -0.000005  0.000002 -0.000000  0.000000  0.000000  0.000000 -0.000000  0.000000  0.000000  0.000000
                                -0.000000  0.000003  0.000000  0.000004 -0.000000  0.000001  0.000000  0.000001 -0.000000  0.000000
                                 0.000000  0.000000 -0.000000 -0.000000  0.000000  0.000000 -0.000000 -0.000000  0.000000 -0.000000
                                -0.000000 -0.000000  0.000000 -0.000000 -0.000000 -0.000000  0.000000  0.000000 -0.000000  0.000000
                                 0.000000  0.000000 -0.000000  0.000000  0.000000 -0.000000  0.000000  0.000000

   3.1   2  -125.2217 -485.2209  0.000168  0.000184  0.000480  0.000567  0.001118  0.001424  0.002591  0.003867  0.006847  0.011509
                                 0.020519  0.035542  0.058926  0.081842  0.069679 -0.041619 -0.276939 -0.457222 -0.297000  0.252811
                                 0.707839  0.407548  0.048669 -0.000537  0.000818 -0.000471  0.000118 -0.000113  0.000170 -0.000117
                                 0.000027 -0.000009  0.000002  0.000000 -0.000000  0.000000  0.000000  0.000001  0.000000  0.000003
                                 0.000000  0.000007  0.000000  0.000023  0.000000  0.000041  0.000000  0.000077  0.000000  0.000052
                                 0.000000 -0.000001  0.000000  0.000005  0.000000 -0.000000  0.000000  0.000004  0.000000 -0.000001
                                 0.000000  0.000002  0.000000  0.000000  0.000000  0.000000  0.000000 -0.000000 -0.000000 -0.000001
                                -0.000004 -0.000000  0.000000  0.000001  0.000000 -0.000000 -0.000000 -0.000000

   4.1   2   -82.7736 -410.4192  0.000000 -0.000000  0.000000 -0.000000  0.000000 -0.000000  0.000000 -0.000000  0.000000  0.000000
                                 0.000000  0.000000  0.000000  0.000000  0.000000 -0.000000 -0.000000 -0.000000 -0.000000  0.000000
                                 0.000000  0.000000 -0.000000  0.000000 -0.000000  0.000000 -0.000000  0.000000  0.000000 -0.000000
                                 0.000000 -0.000000  0.000000 -0.000000  0.000145 -0.000000  0.001037 -0.000000  0.005639 -0.000000
                                 0.023586 -0.000000  0.078171 -0.000000  0.195546 -0.000000  0.336075 -0.000000  0.355801 -0.000000
                                 0.185248 -0.000000  0.036331 -0.000000  0.002060 -0.000000  0.000307  0.000000 -0.000031 -0.000000
                                 0.000032 -0.000000 -0.000011  0.000000  0.000002 -0.000000 -0.000001  0.000000  0.000000 -0.000000
                                -0.000000  0.000005  0.000000 -0.000000 -0.000003 -0.000000  0.000000  0.000001

   5.1   2   -82.7776 -410.4105 -0.000000 -0.000000 -0.000000 -0.000000 -0.000000 -0.000000 -0.000000 -0.000001 -0.000001 -0.000002
                                -0.000004 -0.000007 -0.000011 -0.000015 -0.000013  0.000008  0.000055  0.000087  0.000078 -0.000103
                                -0.000160 -0.000023 -0.000005  0.000013  0.000003  0.000002 -0.000001  0.000000 -0.000001  0.000000
                                -0.000000  0.000000 -0.000000  0.000145  0.000000  0.001037  0.000000  0.005638  0.000000  0.023581
                                 0.000000  0.078152  0.000000  0.195502  0.000000  0.336008  0.000000  0.355828  0.000000  0.185343
                                 0.000000  0.036352  0.000000  0.002075  0.000000  0.000305  0.000000 -0.000031  0.000000  0.000027
                                 0.000000 -0.000013  0.000000  0.000001  0.000000 -0.000000  0.000000  0.000000 -0.000000  0.000004
                                 0.000004  0.000000 -0.000003 -0.000001 -0.000000  0.000001  0.000000  0.000000

   6.1   2   -29.7186 -210.9939 -0.000084 -0.000092 -0.000239 -0.000282 -0.000557 -0.000709 -0.001291 -0.001927 -0.003415 -0.005745
                                -0.010260 -0.017810 -0.029667 -0.041454 -0.035547  0.023582  0.157632  0.278047  0.189949 -0.219273
                                -0.851813 -0.475301  0.710582  0.759809  0.116477 -0.006777  0.003197 -0.001703  0.002487 -0.001690
                                 0.000388 -0.000123  0.000034 -0.000000  0.000000 -0.000000  0.000000 -0.000002  0.000000 -0.000011
                                 0.000000 -0.000033  0.000000 -0.000093  0.000000 -0.000147  0.000000 -0.000177  0.000000  0.000067
                                -0.000000  0.000327 -0.000000  0.000545 -0.000000  0.000219  0.000000 -0.000080  0.000000  0.000048
                                 0.000000 -0.000031 -0.000000  0.000004  0.000000 -0.000002 -0.000000  0.000000  0.000000 -0.000014
                                -0.000086 -0.000000  0.000012  0.000072  0.000000 -0.000003 -0.000020 -0.000000

   7.1   2   -14.6105 -171.5870  0.000000  0.000000  0.000000 -0.000000  0.000000 -0.000000  0.000000 -0.000000  0.000000  0.000000
                                -0.000000  0.000000 -0.000000  0.000000 -0.000000  0.000000 -0.000000  0.000000 -0.000000  0.000000
                                -0.000000  0.000000 -0.000000  0.000000 -0.000000  0.000000 -0.000000  0.000000 -0.000000  0.000000
                                -0.000000  0.000000 -0.000000 -0.000000 -0.000075 -0.000000 -0.000534 -0.000000 -0.002924 -0.000000
                                -0.012309 -0.000000 -0.041483 -0.000000 -0.105316 -0.000000 -0.178479 -0.000000 -0.151994  0.000000
                                 0.113568  0.000000  0.426953  0.000000  0.429811  0.000000  0.164327  0.000000  0.016354  0.000000
                                 0.001049 -0.000000 -0.000258  0.000000  0.000173 -0.000000 -0.000051  0.000000  0.000015  0.000000
                                 0.000000  0.000453 -0.000000 -0.000000 -0.000269  0.000000  0.000000  0.000079

   8.1   2   -14.6202 -171.4667  0.000000  0.000000  0.000000  0.000000  0.000001  0.000001  0.000002  0.000003  0.000006  0.000009
                                 0.000017  0.000029  0.000048  0.000069  0.000057 -0.000035 -0.000275 -0.000439 -0.000395  0.000515
                                 0.001479  0.000955 -0.001904 -0.002334  0.001795  0.000451 -0.000129 -0.000034  0.000038 -0.000025
                                 0.000006 -0.000002  0.000000 -0.000074  0.000000 -0.000533  0.000000 -0.002919  0.000000 -0.012288
                                 0.000000 -0.041405  0.000000 -0.105127  0.000000 -0.178142  0.000000 -0.151834  0.000000  0.113078
                                -0.000000  0.425721 -0.000000  0.429829 -0.000000  0.166012 -0.000000  0.016607 -0.000000  0.001103
                                -0.000000 -0.000278 -0.000000  0.000192 -0.000000 -0.000054  0.000000  0.000016 -0.000000  0.000572
                                 0.000155  0.000000 -0.000278 -0.000163 -0.000000  0.000094  0.000033  0.000000

   9.1   2    -6.2721  -94.1202  0.000036  0.000039  0.000103  0.000122  0.000240  0.000306  0.000557  0.000831  0.001473  0.002479
                                 0.004427  0.007693  0.012820  0.017960  0.015381 -0.010385 -0.070452 -0.125147 -0.089140  0.111181
                                 0.453379  0.253727 -0.541198 -0.875624  0.100878  0.896785  0.431625  0.006461  0.010024 -0.009250
                                 0.002625 -0.000896  0.000251  0.000000  0.000000  0.000001  0.000000  0.000003  0.000000  0.000015
                                 0.000000  0.000049  0.000000  0.000134  0.000000  0.000206  0.000000  0.000228  0.000000 -0.000218
                                -0.000000 -0.000478 -0.000000 -0.000875 -0.000000  0.000497  0.000000  0.001762  0.000000 -0.001328
                                -0.000000 -0.001751  0.000000 -0.000730 -0.000000  0.000029  0.000000 -0.000011 -0.000000 -0.000015
                                -0.000063 -0.000000  0.000137  0.000908  0.000000  0.000026  0.000227  0.000000

  10.1   2    -2.1562  -63.1619 -0.000000 -0.000000 -0.000000 -0.000000 -0.000000 -0.000000 -0.000000 -0.000000 -0.000000 -0.000000
                                -0.000000 -0.000000 -0.000000 -0.000000 -0.000000  0.000000  0.000000  0.000000  0.000000 -0.000000
                                -0.000000 -0.000000  0.000000  0.000000  0.000000 -0.000000 -0.000000  0.000000 -0.000000  0.000000
                                -0.000000  0.000000 -0.000000  0.000000  0.000024  0.000000  0.000174  0.000000  0.000951  0.000000
                                 0.004025  0.000000  0.013549  0.000000  0.034642  0.000000  0.058220  0.000000  0.047450 -0.000000
                                -0.055417 -0.000000 -0.169847 -0.000000 -0.169818  0.000000  0.104460  0.000000  0.371404  0.000000
                                 0.182685  0.000000  0.393620  0.000000  0.126838  0.000000  0.002695  0.000000 -0.000159  0.000000
                                 0.000000  0.000858  0.000000  0.000000  0.002095  0.000000  0.000000  0.000952

  11.1   +    -2.2813  -63.7878 -0.000001 -0.000001 -0.000002 -0.000002 -0.000004 -0.000005 -0.000010 -0.000015 -0.000026 -0.000044
                                -0.000077 -0.000135 -0.000223 -0.000319 -0.000259  0.000156  0.001312  0.002053  0.001927 -0.002586
                                -0.007637 -0.005524  0.011902  0.019709 -0.003567 -0.047083  0.006760  0.054218 -0.032351  0.022797
                                -0.005064  0.001603 -0.000439  0.000024 -0.000000  0.000176 -0.000000  0.000961 -0.000000  0.004068
                                -0.000000  0.013685 -0.000000  0.035012 -0.000000  0.058789 -0.000000  0.048048 -0.000000 -0.055946
                                 0.000000 -0.171147  0.000000 -0.171470  0.000000  0.101098 -0.000000  0.376956 -0.000000  0.195578
                                -0.000000  0.389276 -0.000000  0.108889 -0.000000  0.001255 -0.000000  0.000015  0.000000  0.002097
                                 0.001158 -0.000000  0.005107  0.002756 -0.000000  0.002414  0.000824 -0.000000

  12.1   0    -1.3725  -39.9564 -0.000014 -0.000016 -0.000041 -0.000048 -0.000095 -0.000121 -0.000220 -0.000328 -0.000581 -0.000979
                                -0.001746 -0.003042 -0.005052 -0.007120 -0.006009  0.003940  0.028439  0.048729  0.037877 -0.048829
                                -0.180802 -0.111043  0.246174  0.409920 -0.043372 -0.696588 -0.472362  0.890430  0.335308  0.194486
                                -0.017201  0.007114 -0.002056 -0.000001 -0.000000 -0.000007 -0.000000 -0.000040 -0.000000 -0.000172
                                -0.000000 -0.000575 -0.000000 -0.001481 -0.000000 -0.002463 -0.000000 -0.002063 -0.000000  0.002458
                                 0.000000  0.007129  0.000000  0.007661  0.000000 -0.005346 -0.000000 -0.019447 -0.000000 -0.006332
                                -0.000000 -0.007713 -0.000000  0.003445 -0.000000  0.000626 -0.000000 -0.000047 -0.000000  0.000044
                                 0.000775  0.000000 -0.000528 -0.002321 -0.000000 -0.000541 -0.002997 -0.000000

  13.1   0    -0.6618  -22.9549  0.000003  0.000003  0.000008  0.000009  0.000018  0.000023  0.000041  0.000062  0.000109  0.000184
                                 0.000329  0.000573  0.000951  0.001341  0.001130 -0.000738 -0.005372 -0.009158 -0.007212  0.009346
                                 0.034128  0.021217 -0.047256 -0.080331  0.009679  0.146502  0.119679 -0.304505 -0.500888  0.398786
                                 0.372497 -0.007199  0.003111 -0.000007  0.000000 -0.000051  0.000000 -0.000283  0.000000 -0.001183
                                 0.000000 -0.004035  0.000000 -0.010175  0.000000 -0.017431  0.000000 -0.013478  0.000000  0.015821
                                -0.000000  0.053228 -0.000000  0.046334 -0.000000 -0.026505  0.000000 -0.168283  0.000000  0.011875
                                -0.000000 -0.246258  0.000000  0.263280 -0.000000  0.762488 -0.000000  0.086890 -0.000000 -0.000520
                                -0.000523 -0.000000 -0.001727 -0.000259 -0.000000  0.004306  0.001954  0.000000

                                   1 2px     1 2px     1 2px     1 2px     1 2px     1 2px     1 2px     1 2px     1 2px     1 2px  
                                   1 2px     1 2px     1 2px     1 2px     1 2px     1 2px     1 2px     1 2px     1 2px     1 2px  
                                   1 2px     1 2px     1 2px     1 2px     1 2px     1 2px     1 4f1+    1 4f3+    1 4f1+    1 4f3+ 
                                   1 4f1+    1 4f3+    1 4f1+    1 4f3+    1 4f1+    1 4f3+    1 4f1+    1 4f3+    1 4f1+    1 4f3+ 
                                   1 4f1+    1 4f3+    1 4f1+    1 4f3+    1 4f1+    1 4f3+    1 4f1+    1 4f3+    1 4f1+    1 4f3+ 
                                   1 4f1+    1 4f3+    1 4f1+    1 4f3+    1 4f1+    1 4f3+    1 4f1+    1 4f3+    1 4f1+    1 4f3+ 


   1.2   2  -449.2800-1244.7708  0.000024  0.000060  0.000175  0.000451  0.001166  0.002998  0.007814  0.020403  0.051865  0.121212
                                 0.236304  0.341006  0.286419  0.074231  0.058377 -0.003658  0.004717 -0.002131  0.001000 -0.000561
                                 0.000288 -0.000130  0.000050 -0.000020  0.000008 -0.000003  0.000000  0.000000  0.000001  0.000001
                                 0.000000 -0.000000  0.000001  0.000003  0.000001  0.000002  0.000001 -0.000001  0.000000 -0.000001
                                 0.000000 -0.000001 -0.000000  0.000000 -0.000000  0.000001 -0.000000  0.000000 -0.000000  0.000000
                                -0.000000  0.000000  0.000000 -0.000000 -0.000000  0.000000  0.000000 -0.000000 -0.000000  0.000000

   2.2   2  -105.2753 -446.5838 -0.000012 -0.000031 -0.000090 -0.000232 -0.000603 -0.001555 -0.004090 -0.010765 -0.027982 -0.067090
                                -0.137657 -0.204153 -0.146061  0.123608  0.095160  0.490344  0.369859  0.071920  0.007043 -0.001237
                                 0.000763 -0.000414  0.000148 -0.000062  0.000026 -0.000008 -0.000000 -0.000000 -0.000000 -0.000000
                                -0.000001  0.000000  0.000003 -0.000000  0.000008 -0.000001  0.000029 -0.000013  0.000021  0.000005
                                 0.000001  0.000012  0.000003 -0.000005  0.000002 -0.000008  0.000002 -0.000006 -0.000001  0.000000
                                 0.000001 -0.000002 -0.000000  0.000001  0.000000 -0.000000 -0.000000  0.000000  0.000000 -0.000000

   3.2   2   -23.0346 -193.0245  0.000006  0.000015  0.000044  0.000115  0.000298  0.000770  0.002031  0.005356  0.013998  0.033767
                                 0.070193  0.104895  0.069891 -0.097630 -0.077953 -0.400778 -0.233607  0.414953  0.612560  0.216197
                                 0.013101  0.001748 -0.000349  0.000164 -0.000069  0.000022  0.000000 -0.000000  0.000000  0.000000
                                 0.000002 -0.000001  0.000001  0.000001  0.000014 -0.000003  0.000017  0.000017  0.000093  0.000042
                                 0.000161  0.000092  0.000336 -0.000140  0.000173 -0.000092 -0.000050  0.000084  0.000024 -0.000020
                                -0.000024  0.000032  0.000015 -0.000018 -0.000008  0.000009  0.000005 -0.000005 -0.000002  0.000003

   4.2   2    -5.2606 -144.7525 -0.000000 -0.000000 -0.000000 -0.000000 -0.000001 -0.000003 -0.000008 -0.000020 -0.000052 -0.000125
                                -0.000262 -0.000389 -0.000265  0.000425  0.000261  0.001712  0.000796 -0.002224 -0.004032  0.000233
                                 0.004913  0.002850  0.000216 -0.000020  0.000006 -0.000002  0.000215  0.000013  0.001989  0.000124
                                 0.000004  0.000001  0.011249  0.000702  0.042327  0.002645  0.114250  0.007137  0.223228  0.013940
                                 0.311114  0.019413  0.319744  0.020023  0.225755  0.014148  0.088215  0.005353 -0.003020 -0.000312
[...]

   2.6  2.00000   -14.612310    -0.000075 -0.000533 -0.002920 -0.012292 -0.041421 -0.105165 -0.178211 -0.151859  0.113184  0.425969
                                 0.429822  0.165621  0.016588  0.001135 -0.000194  0.000214 -0.000053  0.000016  0.000000  0.000000
                                 0.000000  0.000000  0.000000  0.000000

   3.6  1.20000    -1.937633     0.000024  0.000176  0.000959  0.004059  0.013657  0.034932  0.058675  0.047909 -0.055825 -0.170910
                                -0.171095  0.102428  0.375194  0.190461  0.391173  0.115729  0.001769 -0.000046  0.000000  0.000000
                                 0.000000  0.000000  0.000000  0.000000

                                   1 3d1-    1 3d1-    1 3d1-    1 3d1-    1 3d1-    1 3d1-    1 3d1-    1 3d1-    1 3d1-    1 3d1- 
                                   1 3d1-    1 3d1-    1 3d1-    1 3d1-    1 3d1-    1 3d1-    1 3d1-    1 3d1-    1 5g1-    1 5g3- 
                                   1 5g1-    1 5g3-    1 5g1-    1 5g3- 

   1.7  2.00000   -82.773805     0.000145  0.001037  0.005638  0.023582  0.078156  0.195512  0.336025  0.355826  0.185317  0.036343
                                 0.002072  0.000306 -0.000033  0.000027 -0.000015  0.000000 -0.000001  0.000000  0.000000  0.000000
                                 0.000000  0.000000  0.000000  0.000000

   2.7  2.00000   -14.612310    -0.000075 -0.000533 -0.002920 -0.012292 -0.041421 -0.105165 -0.178211 -0.151859  0.113184  0.425969
                                 0.429822  0.165621  0.016588  0.001135 -0.000194  0.000214 -0.000053  0.000016  0.000000  0.000000
                                 0.000000  0.000000  0.000000  0.000000

   3.7  1.20000    -1.937633     0.000024  0.000176  0.000959  0.004059  0.013657  0.034932  0.058675  0.047909 -0.055825 -0.170910
                                -0.171095  0.102428  0.375194  0.190461  0.391173  0.115729  0.001769 -0.000046  0.000000  0.000000
                                 0.000000  0.000000  0.000000  0.000000

                                   1 4f2-    1 4f2-    1 4f2-    1 4f2-    1 4f2-    1 4f2-    1 4f2-    1 4f2-    1 4f2-    1 4f2- 
                                   1 4f2-    1 4f2-    1 4f2-    1 4f2-    1 4f2-    1 4f2-    1 4f2- 

   1.8  2.00000    -5.252906     0.000216  0.001993  0.000004  0.011274  0.042419  0.114504  0.223718  0.311794  0.320333  0.225987
                                 0.088405 -0.002823  0.012791 -0.007064  0.003399 -0.002033  0.000968

 Total charge:   4.000000000000
 
 *** IN SYMMETRY 1 ORBITAL  4 SYMMETRY CONTAMINATION OF 0.653D-01 HAS BEEN REMOVED
 *** IN SYMMETRY 1 ORBITAL  5 SYMMETRY CONTAMINATION OF 0.653D-01 HAS BEEN REMOVED
 *** IN SYMMETRY 1 ORBITAL  7 SYMMETRY CONTAMINATION OF 0.854D-01 HAS BEEN REMOVED
 *** IN SYMMETRY 1 ORBITAL  8 SYMMETRY CONTAMINATION OF 0.854D-01 HAS BEEN REMOVED

 EXTRA SYMMETRY OF MOS IN SYMMETRY 1:   1 1 1 2 3 1 2 3 1 2   3 1 2 3 1 1 3 2 1 1   2 3 1 4 6 5 2 3 1 6   5 4 3 2 4 6 5 1 3 2
                                        1 2 3 2 3 1 3 2 1 3   2 1 1 3 2 1 2 3 1 2   3 1 2 3 1 1 3 2 1 1   1 1 1 1 1 1 1 1
 *** IN SYMMETRY 2 ORBITAL  4 SYMMETRY CONTAMINATION OF 0.397D-02 HAS BEEN REMOVED
 *** IN SYMMETRY 2 ORBITAL  5 SYMMETRY CONTAMINATION OF 0.397D-02 HAS BEEN REMOVED
 EXTRA SYMMETRY OF MOS IN SYMMETRY 2:   1 1 1 2 3 1 1 1 3 2   2 3 1 2 3 1 3 2 3 2   2 3 1 3 2 1 3 2 3 2   1 2 3 1 2 3 1 2 3 1
                                        2 3 1 3 2 1 3 2 1 3   2 1 1 1 1 1 1 1 1 1
 EXTRA SYMMETRY OF MOS IN SYMMETRY 3:   1 1 1 3 2 1 1 1 3 2   2 3 1 3 2 1 3 2 3 2   2 3 1 3 2 1 2 3 3 2   1 2 3 1 2 3 1 2 3 1
                                        2 3 1 2 3 1 3 2 1 3   2 1 1 1 1 1 1 1 1 1
 EXTRA SYMMETRY OF MOS IN SYMMETRY 4:   1 1 1 1 1 1 2 3 1 2   3 1 3 2 1 1 1 1 1 1   1 1 1 1
 EXTRA SYMMETRY OF MOS IN SYMMETRY 5:   1 1 1 2 3 1 1 1 2 3   3 2 1 2 3 1 3 2 2 3   2 3 1 2 3 1 2 3 3 2   1 2 3 1 3 2 1 3 2 1
                                        3 2 1 3 2 1 3 2 1 3   2 1 1 1 1 1 1 1 1 1
 EXTRA SYMMETRY OF MOS IN SYMMETRY 6:   1 1 1 1 1 1 3 2 1 2   3 1 3 2 1 1 1 1 1 1   1 1 1 1
 EXTRA SYMMETRY OF MOS IN SYMMETRY 7:   1 1 1 1 1 1 3 2 1 3   2 1 3 2 1 1 1 1 1 1   1 1 1 1

 Natural orbital dump (state averaged) at molpro section  5202.2    (Orbital set 2)


 CI vector for state symmetry 1
 ==============================

 a2 a a a          0.0000000   1.0000000
 2a a a a          1.0000000   0.0000000

 TOTAL ENERGIES                    -18409.62539797-18409.62539797

 CI vector for state symmetry 2
 ==============================

 aa 2 a a          1.0000000

 TOTAL ENERGIES                    -18409.62539797

 CI vector for state symmetry 3
 ==============================

 aa a 2 a          1.0000000

 TOTAL ENERGIES                    -18409.62539797

 CI vector for state symmetry 4
 ==============================

 aa a a 2          1.0000000

 TOTAL ENERGIES                    -18409.62539797



 **********************************************************************************************************************************
 DATASETS  * FILE   NREC   LENGTH (MB)   RECORD NAMES
              1      23      167.16       500      610      700      900      950      970     1000      129      960     1700   
                                          VAR    BASINP    GEOM    SYMINP    ZMAT    AOBASIS   BASIS     P2S    ABASIS    OPER   
                                         1101     1401     1411     1412     1650     1100     1400     1410     1200     1210   
                                          SR      EKINR    POTR     PVPR    MOLCAS      S      EKIN      POT      H0       H01  
                                         1080     1600     1380   
                                         AOSYM     SMH     JKOP   

              2       6        9.11       200      700     1000      520     4202     5202   
                                        OPTIONS   GEOM     BASIS   MCVARS     RHF     MCSCF   

 PROGRAMS   *        TOTAL     MULTI       POP       RHF       RHF       INT
 CPU TIMES  *        97.03     15.03      0.00      1.63      1.52     78.21
 REAL TIME  *       115.92 SEC
 DISK USED  *         4.10 GB      
 SF USED    *       569.07 MB      
 GA USED    *         0.00 MB       (max)       0.00 MB       (current)
 **********************************************************************************************************************************


 PROGRAM * RHF-SCF (OPEN SHELL)       Authors: W. Meyer, H.-J. Werner


 NUMBER OF ELECTRONS:      39+   35-    SPACE SYMMETRY=1    SPIN SYMMETRY: Quintet 
 CONVERGENCE THRESHOLDS:    1.00E-05 (Density)    1.48E-07 (Energy)
 MAX. NUMBER OF ITERATIONS:        0
 INTERPOLATION TYPE:            DIIS
 INTERPOLATION STEPS:              2 (START)      1 (STEP)
 LEVEL SHIFTS:                 -0.60 (CLOSED) -0.30 (OPEN) 

 Number of closed-shell orbitals:   35 (  10   6   6   2   6   2   2   1 )
 Number of open-shell orbitals:      4 (   1   0   0   1   0   1   1   0 )


 Molecular orbitals read from record     5202.2  Type=MCSCF/NATURAL (state averaged)

 Molecular orbital dump at record        2117.2

 ITERATION    DDIFF          GRAD             ENERGY        2-EL.EN.            DIPOLE MOMENTS         DIIS   ORB.
    1      0.000D+00      0.000D+00    -18409.62539797  13405.486390    0.00000    0.00000    0.00000    0    start

 Final alpha occupancy:  11   6   6   3   6   3   3   1
 Final beta  occupancy:  10   6   6   2   6   2   2   1

 !RHF STATE 1.1 Energy               -18409.6253979702    
 Nuclear energy                         0.00000000
 One-electron energy               -25112.36859297
 Two-electron energy                 6702.74319499
 Virial quotient                       -0.67623699
 !RHF STATE 1.1 Dipole moment           0.00000000     0.00000000     0.00000000
 Dipole moment /Debye                   0.00000000     0.00000000     0.00000000

 Orbital energies:

         1.1          2.1          3.1          4.1          5.1          6.1          7.1          8.1          9.1         10.1
  -2899.501618  -516.387647  -125.221542   -82.773805   -82.773805   -29.718398   -14.612310   -14.612310    -6.271957    -1.937633

        11.1         12.1         13.1
     -1.937633    -1.335466    -0.648667

         1.2          2.2          3.2          4.2          5.2          6.2          7.2          8.2
   -449.280804  -105.278791   -23.041040    -5.252906    -5.252906    -4.382994    -1.006472    -0.532413

         1.3          2.3          3.3          4.3          5.3          6.3          7.3          8.3
   -449.280804  -105.278791   -23.041040    -5.252906    -5.252906    -4.382994    -1.006472    -0.532413

         1.4          2.4          3.4          4.4          5.4
    -82.773805   -14.612310    -1.937633    -0.648667    -0.384397

         1.5          2.5          3.5          4.5          5.5          6.5          7.5          8.5
   -449.280804  -105.278791   -23.041040    -5.252906    -5.252906    -4.382994    -1.006472    -0.532413

         1.6          2.6          3.6          4.6          5.6
    -82.773805   -14.612310    -1.937633    -0.648667    -0.384397

         1.7          2.7          3.7          4.7          5.7
    -82.773805   -14.612310    -1.937633    -0.648667    -0.384397

         1.8          2.8          3.8
     -5.252906    -0.528173    -0.334882

 HOMO     11.1    -1.937633 =     -52.7257eV
 LUMO     12.1    -1.335466 =     -36.3399eV
 LUMO-HOMO         0.602167 =      16.3858eV


 **********************************************************************************************************************************
 DATASETS  * FILE   NREC   LENGTH (MB)   RECORD NAMES
              1      23      167.16       500      610      700      900      950      970     1000      129      960     1700   
                                          VAR    BASINP    GEOM    SYMINP    ZMAT    AOBASIS   BASIS     P2S    ABASIS    OPER   
                                         1101     1401     1411     1412     1650     1100     1400     1410     1200     1210   
                                          SR      EKINR    POTR     PVPR    MOLCAS      S      EKIN      POT      H0       H01  
                                         1080     1600     1380   
                                         AOSYM     SMH     JKOP   

              2       7       12.62       200      700     1000      520     4202     5202     2117   
                                        OPTIONS   GEOM     BASIS   MCVARS     RHF     MCSCF     RHF  

 PROGRAMS   *        TOTAL       RHF     MULTI       POP       RHF       RHF       INT
 CPU TIMES  *        97.19      0.15     15.03      0.00      1.63      1.52     78.21
 REAL TIME  *       116.17 SEC
 DISK USED  *         4.10 GB      
 SF USED    *       569.07 MB      
 GA USED    *         0.00 MB       (max)       0.00 MB       (current)
 **********************************************************************************************************************************
 SETTING SCF(9)         =    -18409.62539797  AU                              
 SETTING _CC_NORM_MAX   =         2.00000000                                  


 PROGRAM * CCSD (Restricted open-shell coupled cluster)     Authors: C. Hampel, H.-J. Werner, 1991, M. Deegan, P.J. Knowles, 1992


 Convergence thresholds:  THRVAR = 1.00D-08  THRDEN = 1.48D-06

 CCSD(T)     terms to be evaluated (factor= 1.000)


 Number of closed-shell orbitals:  35 (  10   6   6   2   6   2   2   1 )
 Number of active  orbitals:        4 (   1   0   0   1   0   1   1   0 )
 Number of external orbitals:     308 (  67  54  54  21  54  21  21  16 )

 Memory could be reduced to 275.57 Mwords without degradation in triples

 Number of N-1 electron functions:              74
 Number of N-2 electron functions:            2701
 Number of singly external CSFs:              3734
 Number of doubly external CSFs:          25323124
 Total number of CSFs:                    25326858

 Molecular orbitals read from record     2117.2  Type=RHF/CANONICAL (state 1.1)

 Integral transformation finished. Total CPU:   7.14 sec, npass=  1  Memory used:  63.93 MW

 Starting RMP2 calculation

 Wavefunction is spin-projected

 ITER.      SQ.NORM     CORR.ENERGY   TOTAL ENERGY   ENERGY CHANGE        DEN1      VAR(S)    VAR(P)  DIIS     TIME
   1      1.09647951    -3.09797130-18412.72336927    -3.09797130    -0.00053337  0.68D-05  0.90D-04  1  1    10.40
   2      1.09669535    -3.09852399-18412.72392196    -0.00055269    -0.00000060  0.62D-07  0.14D-06  2  2    16.46
   3      1.09670268    -3.09853377-18412.72393174    -0.00000978    -0.00000000  0.69D-09  0.56D-09  3  3    23.22
   4      1.09670292    -3.09853382-18412.72393179    -0.00000005    -0.00000000  0.24D-11  0.12D-11  4  4    30.52

 Norm of t1 vector:      0.04606921      S-energy:    -0.00964233      T1 diagnostic:  0.00247658
 Norm of t2 vector:      0.30753950      P-energy:    -3.08889149
                                         Alpha-Beta:  -1.97129879
                                         Alpha-Alpha: -0.59310557
                                         Beta-Beta:   -0.52448712

 Spin contamination <S**2-Sz**2-Sz>     0.00000000
  Reference energy                   -18409.6253979702    
  RHF-RMP2 correlation energy          -3.098533820846
 !RHF-RMP2 energy                    -18412.7239317911    
 (NB above energy spin projected)

 Starting RCCSD calculation

 ITER.      SQ.NORM     CORR.ENERGY   TOTAL ENERGY   ENERGY CHANGE        DEN1      VAR(S)    VAR(P)  DIIS     TIME
   1      1.07701498    -2.80612064-18412.43151861    -2.80612064    -0.08685923  0.12D-02  0.33D-02  0  0    70.08
   2      1.08301485    -2.88513922-18412.51053719    -0.07901858    -0.00721031  0.13D-03  0.32D-03  0  0   107.66
   3      1.08215125    -2.86377715-18412.48917512     0.02136207    -0.00081512  0.34D-04  0.40D-04  1  1   151.30
   4      1.08268388    -2.86905848-18412.49445645    -0.00528133    -0.00001740  0.41D-05  0.58D-05  2  2   189.34
   5      1.08287495    -2.86915505-18412.49455302    -0.00009657    -0.00000638  0.17D-05  0.23D-05  3  3   237.58
   6      1.08316671    -2.86925755-18412.49465552    -0.00010250    -0.00000029  0.76D-07  0.71D-07  4  4   277.92
   7      1.08320750    -2.86925579-18412.49465376     0.00000176    -0.00000002  0.89D-08  0.36D-08  5  5   320.98
   8      1.08320781    -2.86925330-18412.49465127     0.00000249    -0.00000000  0.24D-08  0.98D-09  6  6   362.41
   9      1.08320622    -2.86925322-18412.49465119     0.00000007    -0.00000000  0.45D-09  0.21D-09  6  1   418.52

 Norm of t1 vector:      0.06132062      S-energy:    -0.00985396      T1 diagnostic:  0.00391692
                                                                       D1 diagnostic:  0.02377197
 Norm of t2 vector:      0.28186168      P-energy:    -2.85939927
                                         Alpha-Beta:  -1.86429479
                                         Alpha-Alpha: -0.52825189
                                         Beta-Beta:   -0.46685259

 Spin contamination <S**2-Sz**2-Sz>     0.00000000

 Memory could be reduced to 315.10 Mwords without degradation in triples
 

  Correlated core orbitals:             1.1       2.1       3.1       4.1       5.1       6.1       7.1       8.1       9.1       1.2
                                        2.2       3.2       4.2       5.2       6.2       1.3       2.3       3.3       4.3       5.3
                                        6.3       1.4       2.4       1.5       2.5       3.5       4.5       5.5       6.5       1.6
                                        2.6       1.7       2.7       1.8
  Orbital energies:                 -2899.5020 -516.3993 -125.2270  -82.7777  -82.7915  -29.7363  -14.6168  -14.6513   -6.3896 -449.2952
                                     -105.2894  -23.0687   -5.2604   -5.2887   -4.5668 -449.2952 -105.2894  -23.0687   -5.2887   -5.2604
                                       -4.5668  -82.7915  -14.6513 -449.2887 -105.2766  -23.0401   -5.2527   -5.2780   -4.5050  -82.7847
                                      -14.6346  -82.7847  -14.6346   -5.2780
 
  RCCSD core-core energy               -2.477635940310
  RCCSD core-valence energy            -0.298814790557
  RCCSD valence correlation energy     -0.092802492320
 

 RESULTS
 =======

  Reference energy                   -18409.6253979702    
  RCCSD singles energy                 -0.009853956578
  RCCSD pair energy                    -2.859399266609
  RCCSD correlation energy             -2.869253223187
  Triples (T) contribution             -0.022451399731
  Total correlation energy             -2.891704622918
 
  RHF-RCCSD energy                   -18412.4946511934    
  RHF-RCCSD[T] energy                -18412.5182638424    
  RHF-RCCSD-T energy                 -18412.5167670561    
 !RHF-RCCSD(T) energy                -18412.5171025931    

 Program statistics:

 Available memory in ccsd:              1023987342
 Min. memory needed in ccsd:              69728089
 Max. memory used in ccsd:               102739674
 Max. memory used in cckext:              87336320 ( 9 integral passes)
 Max. memory used in cckint:              63929989 ( 1 integral passes)



 **********************************************************************************************************************************
 DATASETS  * FILE   NREC   LENGTH (MB)   RECORD NAMES
              1      23      167.16       500      610      700      900      950      970     1000      129      960     1700   
                                          VAR    BASINP    GEOM    SYMINP    ZMAT    AOBASIS   BASIS     P2S    ABASIS    OPER   
                                         1101     1401     1411     1412     1650     1100     1400     1410     1200     1210   
                                          SR      EKINR    POTR     PVPR    MOLCAS      S      EKIN      POT      H0       H01  
                                         1080     1600     1380   
                                         AOSYM     SMH     JKOP   

              2       7       12.62       200      700     1000      520     4202     5202     2117   
                                        OPTIONS   GEOM     BASIS   MCVARS     RHF     MCSCF     RHF  

 PROGRAMS   *        TOTAL  RCCSD(T)       RHF     MULTI       POP       RHF       RHF       INT
 CPU TIMES  *      1680.21   1582.59      0.15     15.03      0.00      1.63      1.52     78.21
 REAL TIME  *      2379.62 SEC
 DISK USED  *        41.29 GB      
 SF USED    *         6.46 GB      
 GA USED    *         0.00 MB       (max)       0.00 MB       (current)
 **********************************************************************************************************************************
 SETTING CCSD(9)        =    -18412.51710259  AU                              
 Output type csv         
                                                                                                                                                                                                                                                                

          SCF,CCSD
        0.00000,        0.00000
        0.00000,        0.00000
        0.00000,        0.00000
        0.00000,        0.00000
        0.00000,        0.00000
        0.00000,        0.00000
        0.00000,        0.00000
        0.00000,        0.00000
   -18409.62540,   -18412.51710
                                                  

 RCCSD(T)/USERDEF energy= -18412.517102593141

        RCCSD(T)        RHF-SCF         MULTI           RHF-SCF         RHF-SCF 
 -18412.51710259 -18409.62539797 -18409.62539797 -18409.62917415 -18413.13496408
 **********************************************************************************************************************************
 Molpro calculation terminated
 Variable memory released
