
 Primary working directories    : /global/cscratch1/sd/bkincaid
 Secondary working directories  : /global/cscratch1/sd/bkincaid
 Wavefunction directory         : /global/homes/b/bkincaid/wfu/
 Main file repository           : /global/cscratch1/sd/bkincaid/

 SHA1      : 19cd028119e0e09f93f0674bd8af7968d9b3eff6
 NAME      : 2015.1.36
 ARCHNAME  : linux/x86_64
 FC        : /opt/cray/pe/craype/2.5.14/bin/ftn
 BLASLIB   : -L/opt/intel/compilers_and_libraries_2018.1.163/linux/mkl/lib/intel64 -Wl,-_start-group -lmkl_intel_ilp64 -lmkl_intel_thread -lmkl_core -Wl,-_end-group -liomp5
 id        : lbl

 Nodes     nprocs
 nid00858    11
 Number of processes for MPI-2 version of Molpro:   nprocs(total)=   12   nprocs(compute)=   11   nprocs(helper)=    1

 Using customized tuning parameters: mindgm=7; mindgv=16; mindgc=1; mindgr=1; noblas=0; minvec=7
 default implementation of scratch files=sf  

 ***,Calculation for Ir groundstate
 memory,1024,m
 gthresh,twoint=1.0E-15
 gthresh,throvl=1.0E-15
                                                                                 !symmetry,nosym
 
                                                                                 !set,dkroll=1,dkho=10,dkhp=4
 
 basis={
 Including file /global/u1/b/bkincaid/molpro/Ir/atoms/tz/ecps/testing/bk2.5/bk2.5
 Including file /global/u1/b/bkincaid/molpro/Ir/atoms/tz/ecps/testing/bk2.5/tz.basis
 }
 
 geometry={
 1
 Iridium
 Ir 0.0 0.0 0.0
 }
 
 {rhf,maxdis=50,iptyp='DIIS',nitord=30,maxit=60; shift,-2.0,-1.0
  start,atden
  print,orbitals=2
  wf,17,1,3
  occ,4,1,1,1,1,1,1,0
  closed,4,1,1,0,1,0,0,0
  sym,1,1,1,3,2
  orbital,4202.2
 }
 
 
 scf(i)=energy
 _CC_NORM_MAX=2.0
 {rccsd(t);maxit,100;core}
 ccsd(i)=energy
 
 table,scf,ccsd
 save
 type,csv

 Variables initialized (889), CPU time= 0.01 sec
 Commands  initialized (702), CPU time= 0.01 sec, 572 directives.
 Default parameters read. Elapsed time= 0.17 sec

 Checking input...
 Passed
1


                                         ***  PROGRAM SYSTEM MOLPRO  ***
                                       Copyright, TTI GmbH Stuttgart, 2015
                                    Version 2015.1 linked Dec 29 2018 15:55:43


 **********************************************************************************************************************************
 LABEL *   Calculation for Ir groundstate                                                
  64 bit mpp version                                                                     DATE: 23-Mar-21          TIME: 23:47:50  
 **********************************************************************************************************************************

 SHA1:             19cd028119e0e09f93f0674bd8af7968d9b3eff6
 **********************************************************************************************************************************

 THRESHOLDS:

 ZERO    =  1.00D-12  ONEINT  =  1.00D-12  TWOINT  =  1.00D-15  PREFAC  =  1.00D-14  LOCALI  =  1.00D-09  EORDER  =  1.00D-04
 ENERGY  =  0.00D+00  ETEST   =  0.00D+00  EDENS   =  0.00D+00  THRDEDEF=  1.00D-06  GRADIENT=  1.00D-02  STEP    =  1.00D-03
 ORBITAL =  1.00D-05  CIVEC   =  1.00D-05  COEFF   =  1.00D-04  PRINTCI =  5.00D-02  PUNCHCI =  9.90D+01  OPTGRAD =  3.00D-04
 OPTENERG=  1.00D-06  OPTSTEP =  3.00D-04  THRGRAD =  1.00D-10  COMPRESS=  1.00D-11  VARMIN  =  1.00D-07  VARMAX  =  1.00D-03
 THRDOUB =  0.00D+00  THRDIV  =  1.00D-05  THRRED  =  1.00D-07  THRPSP  =  1.00D+00  THRDC   =  1.00D-10  THRCS   =  1.00D-10
 THRNRM  =  1.00D-08  THREQ   =  0.00D+00  THRDE   =  1.00D+00  THRREF  =  1.00D-05  SPARFAC =  1.00D+00  THRDLP  =  1.00D-07
 THRDIA  =  1.00D-10  THRDLS  =  1.00D-07  THRGPS  =  0.00D+00  THRKEX  =  0.00D+00  THRDIS  =  2.00D-01  THRVAR  =  1.00D-10
 THRLOC  =  1.00D-06  THRGAP  =  1.00D-06  THRLOCT = -1.00D+00  THRGAPT = -1.00D+00  THRORB  =  1.00D-06  THRMLTP =  0.00D+00
 THRCPQCI=  1.00D-10  KEXTA   =  0.00D+00  THRCOARS=  0.00D+00  SYMTOL  =  1.00D-06  GRADTOL =  1.00D-06  THROVL  =  1.00D-08
 THRORTH =  1.00D-08  GRID    =  1.00D-06  GRIDMAX =  1.00D-03  DTMAX   =  0.00D+00  THROCCDE=  1.00D-01  THROCCDE=  1.00D-01



 THRESHOLDS:

 ZERO    =  1.00D-12  ONEINT  =  1.00D-12  TWOINT  =  1.00D-15  PREFAC  =  1.00D-14  LOCALI  =  1.00D-09  EORDER  =  1.00D-04
 ENERGY  =  0.00D+00  ETEST   =  0.00D+00  EDENS   =  0.00D+00  THRDEDEF=  1.00D-06  GRADIENT=  1.00D-02  STEP    =  1.00D-03
 ORBITAL =  1.00D-05  CIVEC   =  1.00D-05  COEFF   =  1.00D-04  PRINTCI =  5.00D-02  PUNCHCI =  9.90D+01  OPTGRAD =  3.00D-04
 OPTENERG=  1.00D-06  OPTSTEP =  3.00D-04  THRGRAD =  1.00D-10  COMPRESS=  1.00D-11  VARMIN  =  1.00D-07  VARMAX  =  1.00D-03
 THRDOUB =  0.00D+00  THRDIV  =  1.00D-05  THRRED  =  1.00D-07  THRPSP  =  1.00D+00  THRDC   =  1.00D-10  THRCS   =  1.00D-10
 THRNRM  =  1.00D-08  THREQ   =  0.00D+00  THRDE   =  1.00D+00  THRREF  =  1.00D-05  SPARFAC =  1.00D+00  THRDLP  =  1.00D-07
 THRDIA  =  1.00D-10  THRDLS  =  1.00D-07  THRGPS  =  0.00D+00  THRKEX  =  0.00D+00  THRDIS  =  2.00D-01  THRVAR  =  1.00D-10
 THRLOC  =  1.00D-06  THRGAP  =  1.00D-06  THRLOCT = -1.00D+00  THRGAPT = -1.00D+00  THRORB  =  1.00D-06  THRMLTP =  0.00D+00
 THRCPQCI=  1.00D-10  KEXTA   =  0.00D+00  THRCOARS=  0.00D+00  SYMTOL  =  1.00D-06  GRADTOL =  1.00D-06  THROVL  =  1.00D-15
 THRORTH =  1.00D-08  GRID    =  1.00D-06  GRIDMAX =  1.00D-03  DTMAX   =  0.00D+00  THROCCDE=  1.00D-01  THROCCDE=  1.00D-01



 Variable memory set to 1024000000 words,  buffer space   230000 words

 SETTING BASIS          =    USERDEF

Geometry recognized as XYZ



 Recomputing integrals since basis changed


 Using spherical harmonics



 PROGRAM * SEWARD (Integral evaluation for generally contracted gaussian basis sets)     Author: Roland Lindh, 1990

 Geometry written to block  1 of record 700

 Orientation using atomic masses  
 Molecule type: Atom
 Symmetry elements: X,Y,Z
 Rotational constants:       0.0000000      0.0000000      0.0000000 GHz  (calculated with average atomic masses)

 Point group  D2h 



 ATOMIC COORDINATES

 NR  ATOM    CHARGE       X              Y              Z

   1  IR     17.00    0.000000000    0.000000000    0.000000000

 NUCLEAR CHARGE:                   17
 NUMBER OF PRIMITIVE AOS:         460
 NUMBER OF SYMMETRY AOS:          375
 NUMBER OF CONTRACTIONS:          375   (  90Ag  +  62B3u +  62B2u +  28B1g +  62B1u +  28B2g +  28B3g +  15Au  )
 NUMBER OF CORE ORBITALS:           4   (   1Ag  +   1B3u +   1B2u +   0B1g +   1B1u +   0B2g +   0B3g +   0Au  )
 NUMBER OF VALENCE ORBITALS:        6   (   3Ag  +   0B3u +   0B2u +   1B1g +   0B1u +   1B2g +   1B3g +   0Au  )


 NUCLEAR REPULSION ENERGY    0.00000000

 EXTRA SYMMETRY OF AOS IN SYMMETRY 1:   1 1 1 1 1 1 1 1 1 1   1 1 1 1 1 1 1 1 1 1   1 1 1 1 1 1 1 1 1 1   1 1 1 1 1 1 1 2 3 2
                                        3 2 3 2 3 2 3 2 3 2   3 2 3 2 3 2 3 2 3 2   3 2 3 2 3 2 3 2 3 2   3 2 3 2 3 2 3 2 3 2
                                        3 4 5 6 4 5 6 4 5 6
 EXTRA SYMMETRY OF AOS IN SYMMETRY 2:   1 1 1 1 1 1 1 1 1 1   1 1 1 1 1 1 1 1 1 1   1 1 1 1 1 1 1 1 1 1   1 1 2 3 2 3 2 3 2 3
                                        2 3 2 3 2 3 2 3 2 3   2 3 2 3 2 3 2 3 2 3   2 3
 EXTRA SYMMETRY OF AOS IN SYMMETRY 3:   1 1 1 1 1 1 1 1 1 1   1 1 1 1 1 1 1 1 1 1   1 1 1 1 1 1 1 1 1 1   1 1 2 3 2 3 2 3 2 3
                                        2 3 2 3 2 3 2 3 2 3   2 3 2 3 2 3 2 3 2 3   2 3
 EXTRA SYMMETRY OF AOS IN SYMMETRY 4:   1 1 1 1 1 1 1 1 1 1   1 1 1 1 1 1 1 1 1 1   1 1 2 3 2 3 2 3
 EXTRA SYMMETRY OF AOS IN SYMMETRY 5:   1 1 1 1 1 1 1 1 1 1   1 1 1 1 1 1 1 1 1 1   1 1 1 1 1 1 1 1 1 1   1 1 2 3 2 3 2 3 2 3
                                        2 3 2 3 2 3 2 3 2 3   2 3 2 3 2 3 2 3 2 3   2 3
 EXTRA SYMMETRY OF AOS IN SYMMETRY 6:   1 1 1 1 1 1 1 1 1 1   1 1 1 1 1 1 1 1 1 1   1 1 2 3 2 3 2 3
 EXTRA SYMMETRY OF AOS IN SYMMETRY 7:   1 1 1 1 1 1 1 1 1 1   1 1 1 1 1 1 1 1 1 1   1 1 2 3 2 3 2 3

 Eigenvalues of metric

         1 0.363E-06 0.805E-06 0.805E-06 0.149E-05 0.510E-05 0.203E-04 0.268E-04 0.268E-04
         2 0.172E-06 0.514E-05 0.116E-04 0.547E-04 0.547E-04 0.564E-04 0.176E-03 0.520E-03
         3 0.172E-06 0.514E-05 0.116E-04 0.547E-04 0.547E-04 0.564E-04 0.176E-03 0.520E-03
         4 0.805E-06 0.268E-04 0.166E-03 0.629E-03 0.214E-02 0.643E-02 0.130E-01 0.130E-01
         5 0.172E-06 0.514E-05 0.116E-04 0.547E-04 0.547E-04 0.564E-04 0.176E-03 0.520E-03
         6 0.805E-06 0.268E-04 0.166E-03 0.629E-03 0.214E-02 0.643E-02 0.130E-01 0.130E-01
         7 0.805E-06 0.268E-04 0.166E-03 0.629E-03 0.214E-02 0.643E-02 0.130E-01 0.130E-01
         8 0.547E-04 0.993E-03 0.560E-02 0.134E-01 0.354E-01 0.839E-01 0.163E+00 0.306E+00


 Contracted 2-electron integrals neglected if value below      1.0D-15

 Warning: maximum contribution to expansion of local PP integrals   0.5D+07
 AO integral compression algorithm  1   Integral accuracy      1.0D-15

     2626.421 MB (compressed) written to integral file ( 50.1%)

     Node minimum: 111.935 MB, node maximum: 368.574 MB


 NUMBER OF SORTED TWO-ELECTRON INTEGRALS:   29129504.     BUFFER LENGTH:  32768
 NUMBER OF SEGMENTS:   1  SEGMENT LENGTH:   29129504      RECORD LENGTH: 524288

 Memory used in sort:      29.69 MW

 SORT1 READ   655738417. AND WROTE    18766496. INTEGRALS IN     54 RECORDS. CPU TIME:    14.00 SEC, REAL TIME:    15.83 SEC
 SORT2 READ   205938055. AND WROTE   321160446. INTEGRALS IN  10373 RECORDS. CPU TIME:     0.62 SEC, REAL TIME:     2.58 SEC

 Node minimum:    29101769.  Node maximum:    29307080. integrals

 OPERATOR DM      FOR CENTER  0  COORDINATES:    0.000000    0.000000    0.000000


 **********************************************************************************************************************************
 DATASETS  * FILE   NREC   LENGTH (MB)   RECORD NAMES
              1      19       20.93       500      610      700      900      950      970     1000      129      960     1100   
                                          VAR    BASINP    GEOM    SYMINP    ZMAT    AOBASIS   BASIS     P2S    ABASIS      S 
                                         1400     1410     1420     1200     1210     1080     1600     1650     1700   
                                           T        V       ECP      H0       H01     AOSYM     SMH    MOLCAS    OPER   

 PROGRAMS   *        TOTAL       INT
 CPU TIMES  *       128.25    128.01
 REAL TIME  *       134.44 SEC
 DISK USED  *         5.11 GB      
 GA USED    *         0.00 MB       (max)       0.00 MB       (current)
 **********************************************************************************************************************************


 PROGRAM * RHF-SCF (OPEN SHELL)       Authors: W. Meyer, H.-J. Werner


 NUMBER OF ELECTRONS:      10+    7-    SPACE SYMMETRY=1    SPIN SYMMETRY: Quartet 
 CONVERGENCE THRESHOLDS:    1.00E-05 (Density)    1.00E-07 (Energy)
 MAX. NUMBER OF ITERATIONS:       60
 INTERPOLATION TYPE:            DIIS
 INTERPOLATION STEPS:              2 (START)      1 (STEP)
 LEVEL SHIFTS:                 -2.00 (CLOSED) -1.00 (OPEN) 

 Number of closed-shell orbitals:    7 (   4   1   1   0   1   0   0   0 )
 Number of open-shell orbitals:      3 (   0   0   0   1   0   1   1   0 )


 
 Extra symmetries of mos in symmetry 1:   1   1   3   2
 Orbital guess generated from atomic densities. Full valence occupancy:    4   1   1   1   1   1   1   0


 Molecular orbital dump at record        4202.2

 ITERATION    DDIFF          GRAD             ENERGY        2-EL.EN.            DIPOLE MOMENTS         DIIS   ORB.
    1      0.000D+00      0.000D+00      -103.74837689    153.178518    0.00000    0.00000    0.00000    0    start
    2      0.000D+00      0.345D-02      -103.75251605    153.070012    0.00000    0.00000    0.00000    1    diag,B
    3      0.172D-02      0.140D-02      -103.75404778    153.114092    0.00000    0.00000    0.00000    2    diag,B
    4      0.159D-02      0.518D-03      -103.75448552    153.147563    0.00000    0.00000    0.00000    3    diag,B
    5      0.569D-03      0.312D-03      -103.75472042    153.134210    0.00000    0.00000    0.00000    4    diag,B
    6      0.105D-02      0.160D-03      -103.75477910    153.099491    0.00000    0.00000    0.00000    5    diag,B
    7      0.996D-03      0.943D-04      -103.75480382    153.071959    0.00000    0.00000    0.00000    6    diag,B
    8      0.320D-03      0.551D-04      -103.75481355    153.054936    0.00000    0.00000    0.00000    7    diag,B
    9      0.558D-03      0.261D-04      -103.75481537    153.050920    0.00000    0.00000    0.00000    8    diag,B
   10      0.325D-03      0.140D-04      -103.75481583    153.050640    0.00000    0.00000    0.00000    9    orth
   11      0.664D-04      0.995D-05      -103.75481614    153.050180    0.00000    0.00000    0.00000   10    diag,B
   12      0.402D-04      0.625D-05      -103.75481627    153.049304    0.00000    0.00000    0.00000   11    diag,B
   13      0.637D-04      0.289D-05      -103.75481629    153.048922    0.00000    0.00000    0.00000   12    diag,B
   14      0.291D-04      0.183D-05      -103.75481629    153.048814    0.00000    0.00000    0.00000   13    diag,B
   15      0.766D-05      0.129D-05      -103.75481629    153.048781    0.00000    0.00000    0.00000    0    orth

 Final alpha occupancy:   4   1   1   1   1   1   1   0
 Final beta  occupancy:   4   1   1   0   1   0   0   0

 !RHF STATE 1.1 Energy               -103.754816294892
 Nuclear energy                         0.00000000
 One-electron energy                 -180.27920691
 Two-electron energy                   76.52439061
 Virial quotient                       -2.96971892
 !RHF STATE 1.1 Dipole moment           0.00000000     0.00000000     0.00000000
 Dipole moment /Debye                   0.00000000     0.00000000     0.00000000

 ELECTRON ORBITALS
 =================


   Orb  Occ    Energy  Couls-En    Coefficients

                                   1 1s      1 1s      1 1s      1 1s      1 1s      1 1s      1 1s      1 1s      1 1s      1 1s   
                                   1 1s      1 1s      1 1s      1 1s      1 1s      1 1s      1 1s      1 1s      1 1s      1 1s   
                                   1 1s      1 1s      1 1s      1 1s      1 1s      1 1s      1 1s      1 1s      1 1s      1 1s   
                                   1 1s      1 1s      1 1s      1 1s      1 1s      1 1s      1 1s      1 3d0     1 3d2+    1 3d0  
                                   1 3d2+    1 3d0     1 3d2+    1 3d0     1 3d2+    1 3d0     1 3d2+    1 3d0     1 3d2+    1 3d0  
                                   1 3d2+    1 3d0     1 3d2+    1 3d0     1 3d2+    1 3d0     1 3d2+    1 3d0     1 3d2+    1 3d0  
                                   1 3d2+    1 3d0     1 3d2+    1 3d0     1 3d2+    1 3d0     1 3d2+    1 3d0     1 3d2+    1 3d0  
                                   1 3d2+    1 3d0     1 3d2+    1 3d0     1 3d2+    1 3d0     1 3d2+    1 3d0     1 3d2+    1 3d0  
                                   1 3d2+    1 5g0     1 5g4+    1 5g2+    1 5g0     1 5g4+    1 5g2+    1 5g0     1 5g4+    1 5g2+ 


   1.1   2    -4.2301  -18.8741 -0.000000  0.000000 -0.000000  0.000000 -0.000000  0.000000 -0.000000  0.000000 -0.000000  0.000000
                                -0.000000  0.000000 -0.000001  0.000004 -0.000011  0.000039 -0.000290  0.000628 -0.000612  0.000621
                                -0.001192  0.003088 -0.011564  0.103156 -0.316705  0.302378  0.173762 -0.751307 -0.086258 -0.048182
                                 0.848554  0.039591  0.504908  0.034467 -0.009919  0.003722 -0.000981  0.000000  0.000000 -0.000000
                                -0.000000  0.000000  0.000000 -0.000000 -0.000000  0.000000  0.000000 -0.000000 -0.000000  0.000000
                                 0.000000 -0.000000 -0.000000  0.000000  0.000000 -0.000000 -0.000000  0.000000  0.000000 -0.000002
                                -0.000001  0.000009  0.000002 -0.000012 -0.000002  0.000008  0.000001 -0.000005 -0.000000  0.000001
                                -0.000000 -0.000001 -0.000000  0.000000 -0.000000 -0.000000  0.000000  0.000000  0.000000 -0.000000
                                -0.000000  0.000467  0.000395  0.000000 -0.000945 -0.000799  0.000000  0.001692  0.001430 -0.000000

   2.1   2    -0.2973   -6.2678  0.000000 -0.000000  0.000000 -0.000000  0.000000 -0.000000  0.000000 -0.000000  0.000000 -0.000000
                                 0.000000 -0.000000  0.000000 -0.000001  0.000003 -0.000013  0.000094 -0.000204  0.000199 -0.000202
                                 0.000388 -0.001010  0.003819 -0.034895  0.109321 -0.107080 -0.058398  0.287208  0.006006  0.034066
                                -0.413029 -0.022247 -0.351081  0.274577  0.659703  0.291544  0.002080 -0.000000 -0.000000  0.000000
                                 0.000000 -0.000000 -0.000000  0.000000  0.000000 -0.000000 -0.000000  0.000000  0.000000 -0.000000
                                -0.000000  0.000000  0.000000 -0.000000 -0.000000 -0.000000  0.000000  0.000000  0.000000 -0.000000
                                -0.000000 -0.000000 -0.000000  0.000000  0.000000  0.000000 -0.000000 -0.000000 -0.000000 -0.000001
                                -0.000001  0.000000  0.000000 -0.000001 -0.000002 -0.000001 -0.000001 -0.000001 -0.000001 -0.000000
                                -0.000000  0.000602  0.000509 -0.000000 -0.000069 -0.000059  0.000000  0.000349  0.000295 -0.000000

   3.1   2    -0.4574   -9.5386  0.000000 -0.000000  0.000000 -0.000000  0.000000 -0.000000  0.000000 -0.000000  0.000000 -0.000000
                                 0.000000 -0.000000  0.000000 -0.000000  0.000000 -0.000000  0.000000 -0.000000  0.000000 -0.000000
                                 0.000000 -0.000000  0.000000 -0.000000  0.000001 -0.000001  0.000002 -0.000006  0.000015 -0.000017
                                 0.000017 -0.000023  0.000020 -0.000007 -0.000008  0.000002  0.000008  0.000000 -0.000000 -0.000000
                                 0.000000  0.000000 -0.000000 -0.000000  0.000000  0.000000 -0.000000 -0.000000  0.000000  0.000000
                                -0.000001  0.000000 -0.000000 -0.000003  0.000016  0.000034 -0.000162 -0.000303  0.001449  0.002716
                                -0.012998  0.004205 -0.020159 -0.018121  0.086796 -0.003892  0.018580  0.005209 -0.024898  0.051779
                                -0.247900  0.001415 -0.006716  0.080848 -0.387085  0.071807 -0.343739  0.036860 -0.176464  0.006275
                                -0.030021  0.000150 -0.000179  0.001120 -0.000229  0.000274 -0.001709  0.000240 -0.000285  0.001785

   4.1   2    -0.4574   -9.5386 -0.000000  0.000000 -0.000000  0.000000 -0.000000  0.000000 -0.000000  0.000000 -0.000000  0.000000
                                -0.000000  0.000000 -0.000000  0.000000 -0.000000  0.000000 -0.000000  0.000000 -0.000000  0.000000
                                -0.000000  0.000000 -0.000000  0.000002 -0.000004  0.000004 -0.000002  0.000004 -0.000026  0.000029
                                -0.000017  0.000040 -0.000027  0.000004 -0.000029  0.000034 -0.000015 -0.000000 -0.000000  0.000000
                                 0.000000 -0.000000 -0.000000  0.000000  0.000000 -0.000000 -0.000000  0.000000  0.000000 -0.000001
                                -0.000000 -0.000000 -0.000000  0.000016  0.000003 -0.000162 -0.000034  0.001449  0.000303 -0.012999
                                -0.002716 -0.020152 -0.004208  0.086786  0.018126  0.018590  0.003885 -0.024905 -0.005204 -0.247896
                                -0.051783 -0.006726 -0.001407 -0.387076 -0.080855 -0.343742 -0.071806 -0.176462 -0.036861 -0.030022
                                -0.006271 -0.000722  0.000856  0.000234  0.001102 -0.001306 -0.000357 -0.001151  0.001364  0.000373

   5.1   0     0.0343   -1.9549  0.000000 -0.000000  0.000000 -0.000000  0.000000 -0.000000  0.000000 -0.000000  0.000000 -0.000000
                                 0.000000 -0.000001  0.000002 -0.000005  0.000016 -0.000057  0.000421 -0.000906  0.000877 -0.000868
                                 0.001588 -0.003703  0.010871 -0.056751  0.129085 -0.122359  0.129999 -0.356323  1.112083 -1.253086
                                 1.003141 -1.722634  1.438596 -0.629802  0.916160 -2.338701  2.332335 -0.000000  0.000000  0.000000
                                -0.000000 -0.000000  0.000000  0.000000 -0.000000 -0.000000  0.000000 -0.000000  0.000000  0.000000
                                -0.000000 -0.000000  0.000000  0.000000 -0.000000 -0.000000  0.000000  0.000000 -0.000000 -0.000000
                                 0.000000  0.000000 -0.000002 -0.000000  0.000002  0.000000 -0.000003 -0.000000  0.000002 -0.000000
                                 0.000000 -0.000000  0.000003 -0.000001 -0.000000 -0.000001  0.000003 -0.000000 -0.000000  0.000000
                                 0.000003  0.000293  0.000248  0.000000 -0.001024 -0.000865 -0.000000  0.001329  0.001123  0.000000

   6.1   0     0.1869   -2.8203 -0.000000  0.000000 -0.000000  0.000000 -0.000000  0.000000 -0.000000  0.000000 -0.000000  0.000000
                                -0.000001  0.000003 -0.000008  0.000021 -0.000062  0.000225 -0.001667  0.003593 -0.003480  0.003452
                                -0.006342  0.014940 -0.045088  0.256912 -0.627567  0.600247 -0.391620  0.891753 -4.093627  4.558163
                                -3.111477  6.523135 -4.909248  2.070541 -5.157469  5.631694 -2.194465 -0.000000 -0.000000  0.000000
                                 0.000000 -0.000000 -0.000000  0.000000  0.000000 -0.000000 -0.000000  0.000000  0.000000 -0.000000
                                -0.000000  0.000000  0.000000 -0.000000 -0.000000  0.000000  0.000000 -0.000000 -0.000000  0.000000
                                 0.000001 -0.000001 -0.000006  0.000001  0.000010 -0.000002 -0.000011  0.000001  0.000008  0.000001
                                -0.000004  0.000002  0.000012  0.000001 -0.000009  0.000003  0.000005  0.000000 -0.000004  0.000002
                                 0.000010  0.000689  0.000582  0.000000 -0.002424 -0.002048 -0.000000  0.003235  0.002734  0.000000

                                   1 2px     1 2px     1 2px     1 2px     1 2px     1 2px     1 2px     1 2px     1 2px     1 2px  
                                   1 2px     1 2px     1 2px     1 2px     1 2px     1 2px     1 2px     1 2px     1 2px     1 2px  
                                   1 2px     1 2px     1 2px     1 2px     1 2px     1 2px     1 2px     1 2px     1 2px     1 2px  
                                   1 2px     1 2px     1 4f1+    1 4f3+    1 4f1+    1 4f3+    1 4f1+    1 4f3+    1 4f1+    1 4f3+ 
                                   1 4f1+    1 4f3+    1 4f1+    1 4f3+    1 4f1+    1 4f3+    1 4f1+    1 4f3+    1 4f1+    1 4f3+ 
                                   1 4f1+    1 4f3+    1 4f1+    1 4f3+    1 4f1+    1 4f3+    1 4f1+    1 4f3+    1 4f1+    1 4f3+ 
                                   1 4f1+    1 4f3+ 

   1.2   2    -2.4620  -14.9962 -0.000000  0.000000 -0.000000  0.000000 -0.000000  0.000000 -0.000000  0.000000 -0.000000  0.000001
                                -0.000005  0.000019 -0.000123  0.000447 -0.000498  0.000366 -0.000567  0.001019 -0.001282 -0.008929
                                 0.097140 -0.291985  0.096473 -0.247451  0.108088  0.334789  0.555693  0.017034  0.263419  0.030760
                                -0.000617  0.000532  0.000000 -0.000000 -0.000000  0.000000  0.000000 -0.000000 -0.000000  0.000000
                                -0.000000  0.000000 -0.000015  0.000020 -0.000032  0.000041 -0.000073  0.000094 -0.000049  0.000063
                                -0.000572  0.000739 -0.000599  0.000773 -0.001669  0.002155 -0.001477  0.001907 -0.001417  0.001829
                                -0.000502  0.000648

   2.2   0     0.0351   -3.3669 -0.000000  0.000000 -0.000000  0.000000 -0.000000  0.000000 -0.000000  0.000000 -0.000001  0.000003
                                -0.000009  0.000035 -0.000228  0.000829 -0.000923  0.000680 -0.001066  0.002052 -0.004554  0.013228
                                -0.055592  0.442203 -0.751429  1.208033 -1.276099  0.616463 -0.751674  0.862795 -0.601002  0.372739
                                -0.173278  1.015479  0.000000 -0.000000 -0.000000  0.000000  0.000000 -0.000000 -0.000001  0.000001
                                 0.000002 -0.000003 -0.000006  0.000007  0.000011 -0.000014 -0.000041  0.000054  0.000322 -0.000416
                                -0.000862  0.001114  0.001083 -0.001398 -0.001389  0.001793  0.001344 -0.001735 -0.000203  0.000263
                                 0.001630 -0.002104

   3.2   0     0.1644   -3.4212  0.000000 -0.000000  0.000000 -0.000000  0.000000 -0.000000  0.000000 -0.000001  0.000003 -0.000011
                                 0.000040 -0.000156  0.001003 -0.003646  0.004059 -0.002991  0.004689 -0.008980  0.019165 -0.045026
                                 0.135779 -1.471276  2.853555 -4.525298  4.913308 -2.756630  2.412910 -3.530471  2.225668 -0.962756
                                 2.299060 -1.573288  0.000000 -0.000000 -0.000000  0.000000  0.000000 -0.000000 -0.000001  0.000001
                                 0.000003 -0.000004 -0.000008  0.000011  0.000018 -0.000023 -0.000061  0.000079  0.000488 -0.000630
                                -0.001293  0.001669  0.001640 -0.002117 -0.002009  0.002594  0.002029 -0.002620 -0.000080  0.000104
                                 0.002717 -0.003508

                                   1 2py     1 2py     1 2py     1 2py     1 2py     1 2py     1 2py     1 2py     1 2py     1 2py  
                                   1 2py     1 2py     1 2py     1 2py     1 2py     1 2py     1 2py     1 2py     1 2py     1 2py  
                                   1 2py     1 2py     1 2py     1 2py     1 2py     1 2py     1 2py     1 2py     1 2py     1 2py  
                                   1 2py     1 2py     1 4f1-    1 4f3-    1 4f1-    1 4f3-    1 4f1-    1 4f3-    1 4f1-    1 4f3- 
                                   1 4f1-    1 4f3-    1 4f1-    1 4f3-    1 4f1-    1 4f3-    1 4f1-    1 4f3-    1 4f1-    1 4f3- 
                                   1 4f1-    1 4f3-    1 4f1-    1 4f3-    1 4f1-    1 4f3-    1 4f1-    1 4f3-    1 4f1-    1 4f3- 
                                   1 4f1-    1 4f3- 

   1.3   2    -2.4620  -14.9962 -0.000000  0.000000 -0.000000  0.000000 -0.000000  0.000000 -0.000000  0.000000 -0.000000  0.000001
                                -0.000005  0.000019 -0.000123  0.000447 -0.000498  0.000366 -0.000567  0.001019 -0.001283 -0.008929
                                 0.097140 -0.291983  0.096471 -0.247447  0.108084  0.334791  0.555692  0.017035  0.263418  0.030760
                                -0.000617  0.000532  0.000000  0.000000 -0.000000 -0.000000  0.000000  0.000000 -0.000000 -0.000000
                                -0.000000 -0.000000 -0.000015 -0.000020 -0.000032 -0.000041 -0.000073 -0.000094 -0.000049 -0.000063
                                -0.000572 -0.000739 -0.000599 -0.000773 -0.001669 -0.002155 -0.001477 -0.001907 -0.001417 -0.001829
                                -0.000502 -0.000648

   2.3   0     0.0351   -3.3669 -0.000000  0.000000 -0.000000  0.000000 -0.000000  0.000000 -0.000000  0.000000 -0.000001  0.000003
                                -0.000009  0.000035 -0.000228  0.000829 -0.000923  0.000680 -0.001066  0.002052 -0.004554  0.013228
                                -0.055592  0.442202 -0.751427  1.208030 -1.276095  0.616461 -0.751673  0.862793 -0.601001  0.372739
                                -0.173276  1.015478  0.000000  0.000000 -0.000000 -0.000000  0.000000  0.000000 -0.000001 -0.000001
                                 0.000002  0.000003 -0.000006 -0.000007  0.000011  0.000014 -0.000041 -0.000054  0.000322  0.000416
                                -0.000862 -0.001113  0.001083  0.001398 -0.001389 -0.001793  0.001344  0.001735 -0.000203 -0.000262
                                 0.001630  0.002104

   3.3   0     0.1644   -3.4212  0.000000 -0.000000  0.000000 -0.000000  0.000000 -0.000000  0.000000 -0.000001  0.000003 -0.000011
                                 0.000040 -0.000156  0.001003 -0.003646  0.004059 -0.002991  0.004689 -0.008980  0.019165 -0.045026
                                 0.135779 -1.471276  2.853555 -4.525298  4.913309 -2.756630  2.412911 -3.530471  2.225668 -0.962756
                                 2.299060 -1.573289  0.000000  0.000000 -0.000000 -0.000000  0.000000  0.000000 -0.000001 -0.000001
                                 0.000003  0.000004 -0.000008 -0.000011  0.000018  0.000023 -0.000061 -0.000079  0.000488  0.000630
                                -0.001293 -0.001669  0.001640  0.002117 -0.002009 -0.002593  0.002030  0.002620 -0.000080 -0.000104
                                 0.002717  0.003507

                                   1 3d2-    1 3d2-    1 3d2-    1 3d2-    1 3d2-    1 3d2-    1 3d2-    1 3d2-    1 3d2-    1 3d2- 
                                   1 3d2-    1 3d2-    1 3d2-    1 3d2-    1 3d2-    1 3d2-    1 3d2-    1 3d2-    1 3d2-    1 3d2- 
                                   1 3d2-    1 3d2-    1 5g2-    1 5g4-    1 5g2-    1 5g4-    1 5g2-    1 5g4- 

   1.4   +    -0.5246   -9.6980  0.000000 -0.000000  0.000000 -0.000000  0.000000 -0.000001  0.000002 -0.000002 -0.000011  0.000153
                                -0.001453  0.013131  0.022732 -0.092515 -0.016000  0.021932  0.258383  0.005710  0.409832  0.352090
                                 0.159920  0.020416  0.001470 -0.000000 -0.001764  0.000000  0.003320 -0.000000

   2.4   0     0.1966   -2.8823 -0.000000  0.000001 -0.000003  0.000015 -0.000060  0.000202 -0.000594  0.001561 -0.003832  0.009539
                                -0.028281  0.158567 -0.875473  1.351865 -1.439887  1.082514 -0.736593  1.625666 -1.538036  0.446839
                                -0.672781  1.327801 -0.000139 -0.000000 -0.000003  0.000000 -0.000333 -0.000000

   3.4   0     0.6634   -3.6402  0.000000 -0.000002  0.000010 -0.000046  0.000182 -0.000617  0.001819 -0.004784  0.011764 -0.029444
                                 0.088527 -0.503395  2.679797 -4.079094  4.490582 -3.402031  2.030778 -5.255092  4.528437 -1.997952
                                 2.474707 -1.049058 -0.000013 -0.000000 -0.000829  0.000000 -0.000047 -0.000000

                                   1 2pz     1 2pz     1 2pz     1 2pz     1 2pz     1 2pz     1 2pz     1 2pz     1 2pz     1 2pz  
                                   1 2pz     1 2pz     1 2pz     1 2pz     1 2pz     1 2pz     1 2pz     1 2pz     1 2pz     1 2pz  
                                   1 2pz     1 2pz     1 2pz     1 2pz     1 2pz     1 2pz     1 2pz     1 2pz     1 2pz     1 2pz  
                                   1 2pz     1 2pz     1 4f0     1 4f2+    1 4f0     1 4f2+    1 4f0     1 4f2+    1 4f0     1 4f2+ 
                                   1 4f0     1 4f2+    1 4f0     1 4f2+    1 4f0     1 4f2+    1 4f0     1 4f2+    1 4f0     1 4f2+ 
                                   1 4f0     1 4f2+    1 4f0     1 4f2+    1 4f0     1 4f2+    1 4f0     1 4f2+    1 4f0     1 4f2+ 
                                   1 4f0     1 4f2+ 

   1.5   2    -2.4620  -14.9962 -0.000000  0.000000 -0.000000  0.000000 -0.000000  0.000000 -0.000000  0.000000 -0.000000  0.000001
                                -0.000005  0.000019 -0.000123  0.000447 -0.000498  0.000366 -0.000567  0.001019 -0.001282 -0.008929
                                 0.097140 -0.291983  0.096469 -0.247443  0.108080  0.334793  0.555691  0.017036  0.263418  0.030760
                                -0.000617  0.000532 -0.000000 -0.000000  0.000000 -0.000000 -0.000000  0.000000  0.000000 -0.000000
                                 0.000000  0.000000  0.000025 -0.000000  0.000052 -0.000000  0.000119  0.000000  0.000079 -0.000000
                                 0.000934  0.000000  0.000978  0.000000  0.002726 -0.000000  0.002412 -0.000000  0.002314  0.000000
                                 0.000820 -0.000000

   2.5   0     0.0351   -3.3669 -0.000000  0.000000 -0.000000  0.000000 -0.000000  0.000000 -0.000000  0.000000 -0.000001  0.000003
                                -0.000009  0.000035 -0.000228  0.000829 -0.000923  0.000680 -0.001066  0.002052 -0.004554  0.013228
                                -0.055592  0.442202 -0.751428  1.208032 -1.276097  0.616462 -0.751674  0.862794 -0.601001  0.372739
                                -0.173277  1.015479 -0.000000 -0.000000  0.000000  0.000000 -0.000000 -0.000000  0.000001  0.000000
                                -0.000003 -0.000000  0.000009  0.000000 -0.000018 -0.000000  0.000068  0.000000 -0.000526 -0.000000
                                 0.001409  0.000000 -0.001768 -0.000000  0.002268  0.000000 -0.002195 -0.000000  0.000332  0.000000
                                -0.002662 -0.000000

   3.5   0     0.1644   -3.4212  0.000000 -0.000000  0.000000 -0.000000  0.000000 -0.000000  0.000000 -0.000001  0.000003 -0.000011
                                 0.000040 -0.000156  0.001003 -0.003646  0.004059 -0.002991  0.004689 -0.008980  0.019165 -0.045026
                                 0.135779 -1.471275  2.853553 -4.525296  4.913307 -2.756630  2.412910 -3.530470  2.225667 -0.962756
                                 2.299060 -1.573289 -0.000000 -0.000000  0.000000  0.000000 -0.000000 -0.000000  0.000002 -0.000000
                                -0.000005 -0.000000  0.000014  0.000000 -0.000029 -0.000000  0.000100  0.000000 -0.000797 -0.000000
                                 0.002112  0.000000 -0.002678 -0.000000  0.003280  0.000000 -0.003314 -0.000000  0.000131  0.000000
                                -0.004437 -0.000000

                                   1 3d1+    1 3d1+    1 3d1+    1 3d1+    1 3d1+    1 3d1+    1 3d1+    1 3d1+    1 3d1+    1 3d1+ 
                                   1 3d1+    1 3d1+    1 3d1+    1 3d1+    1 3d1+    1 3d1+    1 3d1+    1 3d1+    1 3d1+    1 3d1+ 
                                   1 3d1+    1 3d1+    1 5g1+    1 5g3+    1 5g1+    1 5g3+    1 5g1+    1 5g3+ 

   1.6   +    -0.5246   -9.6980  0.000000 -0.000000  0.000000 -0.000000  0.000000 -0.000001  0.000002 -0.000002 -0.000011  0.000153
                                -0.001453  0.013131  0.022732 -0.092515 -0.016000  0.021932  0.258383  0.005710  0.409832  0.352090
                                 0.159920  0.020416 -0.000520 -0.001375  0.000624  0.001650 -0.001174 -0.003105

   2.6   0     0.1966   -2.8823 -0.000000  0.000001 -0.000003  0.000015 -0.000060  0.000202 -0.000594  0.001561 -0.003832  0.009539
                                -0.028281  0.158567 -0.875474  1.351865 -1.439888  1.082514 -0.736593  1.625667 -1.538036  0.446839
                                -0.672782  1.327801  0.000049  0.000130  0.000001  0.000003  0.000118  0.000311

   3.6   0     0.6634   -3.6402  0.000000 -0.000002  0.000010 -0.000046  0.000182 -0.000617  0.001819 -0.004784  0.011764 -0.029444
                                 0.088528 -0.503395  2.679797 -4.079095  4.490583 -3.402032  2.030779 -5.255093  4.528439 -1.997953
                                 2.474707 -1.049058  0.000004  0.000012  0.000293  0.000776  0.000017  0.000044

                                   1 3d1-    1 3d1-    1 3d1-    1 3d1-    1 3d1-    1 3d1-    1 3d1-    1 3d1-    1 3d1-    1 3d1- 
                                   1 3d1-    1 3d1-    1 3d1-    1 3d1-    1 3d1-    1 3d1-    1 3d1-    1 3d1-    1 3d1-    1 3d1- 
                                   1 3d1-    1 3d1-    1 5g1-    1 5g3-    1 5g1-    1 5g3-    1 5g1-    1 5g3- 

   1.7   +    -0.5246   -9.6980  0.000000 -0.000000  0.000000 -0.000000  0.000000 -0.000001  0.000002 -0.000002 -0.000011  0.000153
                                -0.001453  0.013131  0.022732 -0.092515 -0.016000  0.021932  0.258383  0.005710  0.409832  0.352090
                                 0.159920  0.020416 -0.000520  0.001375  0.000624 -0.001650 -0.001174  0.003105

   2.7   0     0.1966   -2.8823 -0.000000  0.000001 -0.000003  0.000015 -0.000060  0.000202 -0.000594  0.001561 -0.003832  0.009539
                                -0.028281  0.158567 -0.875473  1.351865 -1.439887  1.082514 -0.736592  1.625666 -1.538036  0.446839
                                -0.672781  1.327801  0.000049 -0.000130  0.000001 -0.000003  0.000118 -0.000311

   3.7   0     0.6634   -3.6402  0.000000 -0.000002  0.000010 -0.000046  0.000182 -0.000617  0.001819 -0.004784  0.011764 -0.029444
                                 0.088527 -0.503395  2.679797 -4.079094  4.490582 -3.402031  2.030778 -5.255092  4.528437 -1.997952
                                 2.474707 -1.049058  0.000004 -0.000012  0.000293 -0.000775  0.000017 -0.000044

                                   1 4f2-    1 4f2-    1 4f2-    1 4f2-    1 4f2-    1 4f2-    1 4f2-    1 4f2-    1 4f2-    1 4f2- 
                                   1 4f2-    1 4f2-    1 4f2-    1 4f2-    1 4f2- 

   1.8   0     0.5745   -3.4936  0.000012 -0.000078  0.000359 -0.001275  0.003755 -0.009615  0.025791 -0.074491  0.482599 -1.247683
                                 2.080595 -2.292748  2.123047 -1.585750  1.502984

   2.8   0     1.2849   -3.8505 -0.000022  0.000148 -0.000683  0.002428 -0.007077  0.019512 -0.046216  0.150852 -0.929631  2.448169
                                -4.052568  4.713459 -4.184140  3.792936 -1.387431

 HOMO      4.1    -0.457412 =     -12.4468eV
 LUMO      5.1     0.034341 =       0.9345eV
 LUMO-HOMO         0.491753 =      13.3813eV


 **********************************************************************************************************************************
 DATASETS  * FILE   NREC   LENGTH (MB)   RECORD NAMES
              1      19       20.98       500      610      700      900      950      970     1000      129      960     1100   
                                          VAR    BASINP    GEOM    SYMINP    ZMAT    AOBASIS   BASIS     P2S    ABASIS      S 
                                         1400     1410     1420     1200     1210     1080     1600     1650     1700   
                                           T        V       ECP      H0       H01     AOSYM     SMH    MOLCAS    OPER   

              2       4        3.43       700     1000      520     4202   
                                         GEOM     BASIS   MCVARS     RHF  

 PROGRAMS   *        TOTAL       RHF       INT
 CPU TIMES  *       130.61      2.36    128.01
 REAL TIME  *       137.34 SEC
 DISK USED  *         5.51 GB      
 SF USED    *         0.09 MB      
 GA USED    *         0.00 MB       (max)       0.00 MB       (current)
 **********************************************************************************************************************************
 SETTING SCF(I)         =      -103.75481629  AU                              
 SETTING _CC_NORM_MAX   =         2.00000000                                  


 PROGRAM * CCSD (Restricted open-shell coupled cluster)     Authors: C. Hampel, H.-J. Werner, 1991, M. Deegan, P.J. Knowles, 1992


 Convergence thresholds:  THRVAR = 1.00D-08  THRDEN = 1.00D-06

 CCSD(T)     terms to be evaluated (factor= 1.000)


 Number of closed-shell orbitals:   7 (   4   1   1   0   1   0   0   0 )
 Number of active  orbitals:        3 (   0   0   0   1   0   1   1   0 )
 Number of external orbitals:     365 (  86  61  61  27  61  27  27  15 )

 Memory could be reduced to 110.89 Mwords without degradation in triples

 Number of N-1 electron functions:              17
 Number of N-2 electron functions:             136
 Number of singly external CSFs:              1138
 Number of doubly external CSFs:           1847494
 Total number of CSFs:                     1848632

 Molecular orbitals read from record     4202.2  Type=RHF/CANONICAL (state 1.1)

 Integral transformation finished. Total CPU:   2.34 sec, npass=  1  Memory used:  20.21 MW

 Starting RMP2 calculation

 Wavefunction is spin-projected

 ITER.      SQ.NORM     CORR.ENERGY   TOTAL ENERGY   ENERGY CHANGE        DEN1      VAR(S)    VAR(P)  DIIS     TIME
   1      1.13854204    -0.60123508  -104.35605137    -0.60123508    -0.00136275  0.10D-04  0.80D-03  1  1     3.07
   2      1.14058143    -0.60270087  -104.35751716    -0.00146579    -0.00000861  0.38D-07  0.79D-05  2  2     3.68
   3      1.14076928    -0.60277729  -104.35759358    -0.00007642    -0.00000004  0.18D-09  0.41D-07  3  3     4.52
   4      1.14077651    -0.60277884  -104.35759513    -0.00000155    -0.00000000  0.46D-11  0.19D-09  4  4     5.41
   5      1.14077655    -0.60277882  -104.35759512     0.00000001    -0.00000000  0.12D-12  0.92D-12  5  5     6.48

 Norm of t1 vector:      0.04719873      S-energy:    -0.00653385      T1 diagnostic:  0.00014877
 Norm of t2 vector:      0.37222148      P-energy:    -0.59624497
                                         Alpha-Beta:  -0.41613050
                                         Alpha-Alpha: -0.12241646
                                         Beta-Beta:   -0.05769800

 Spin contamination <S**2-Sz**2-Sz>     0.00000000
  Reference energy                   -103.754816294892
  RHF-RMP2 correlation energy          -0.602778824630
 !RHF-RMP2 energy                    -104.357595119522
 (NB above energy spin projected)

 Starting RCCSD calculation

 ITER.      SQ.NORM     CORR.ENERGY   TOTAL ENERGY   ENERGY CHANGE        DEN1      VAR(S)    VAR(P)  DIIS     TIME
   1      1.12577755    -0.57105915  -104.32587545    -0.57105915    -0.01180756  0.32D-02  0.23D-02  1  1     9.16
   2      1.13753241    -0.58183229  -104.33664858    -0.01077313    -0.00103772  0.36D-03  0.42D-03  2  2    11.20
   3      1.14416411    -0.58367285  -104.33848915    -0.00184057    -0.00011289  0.81D-04  0.32D-04  3  3    13.50
   4      1.14770934    -0.58458604  -104.33940234    -0.00091319    -0.00000440  0.24D-05  0.13D-05  4  4    15.68
   5      1.14806055    -0.58463215  -104.33944844    -0.00004610    -0.00000040  0.29D-06  0.13D-06  5  5    17.78
   6      1.14816207    -0.58464822  -104.33946452    -0.00001608    -0.00000003  0.14D-07  0.17D-07  6  6    20.09
   7      1.14816005    -0.58464740  -104.33946369     0.00000083    -0.00000000  0.87D-09  0.16D-08  6  1    22.40

 Norm of t1 vector:      0.11086768      S-energy:    -0.00656065      T1 diagnostic:  0.01622332
                                                                       D1 diagnostic:  0.06065380
 Norm of t2 vector:      0.36860333      P-energy:    -0.57808675
                                         Alpha-Beta:  -0.41932578
                                         Alpha-Alpha: -0.10762854
                                         Beta-Beta:   -0.05113243

 Singles amplitudes (print threshold =  0.500E-01):

         I         SYM. A    A   T(IA) [Alpha-Alpha]

         2         1         2     -0.06536384

 Spin contamination <S**2-Sz**2-Sz>     0.00000000

 Memory could be reduced to 115.46 Mwords without degradation in triples
 

  Correlated core orbitals:             1.1       1.2       1.3       1.5
  Orbital energies:                    -4.3088   -2.5706   -2.5706   -2.5706
 
  RCCSD core-core energy               -0.127730905100
  RCCSD core-valence energy            -0.217519370748
  RCCSD valence correlation energy     -0.239397121031
 

 RESULTS
 =======

  Reference energy                   -103.754816294892
  RCCSD singles energy                 -0.006560646264
  RCCSD pair energy                    -0.578086750615
  RCCSD correlation energy             -0.584647396879
  Triples (T) contribution             -0.022300615535
  Total correlation energy             -0.606948012413
 
  RHF-RCCSD energy                   -104.339463691771
  RHF-RCCSD[T] energy                -104.362092594874
  RHF-RCCSD-T energy                 -104.361685863117
 !RHF-RCCSD(T) energy                -104.361764307305

 Program statistics:

 Available memory in ccsd:              1023999000
 Min. memory needed in ccsd:               5644238
 Max. memory used in ccsd:                 7880512
 Max. memory used in cckext:               6225900 ( 7 integral passes)
 Max. memory used in cckint:              20213584 ( 1 integral passes)



 **********************************************************************************************************************************
 DATASETS  * FILE   NREC   LENGTH (MB)   RECORD NAMES
              1      19       20.98       500      610      700      900      950      970     1000      129      960     1100   
                                          VAR    BASINP    GEOM    SYMINP    ZMAT    AOBASIS   BASIS     P2S    ABASIS      S 
                                         1400     1410     1420     1200     1210     1080     1600     1650     1700   
                                           T        V       ECP      H0       H01     AOSYM     SMH    MOLCAS    OPER   

              2       4        3.43       700     1000      520     4202   
                                         GEOM     BASIS   MCVARS     RHF  

 PROGRAMS   *        TOTAL  RCCSD(T)       RHF       INT
 CPU TIMES  *       182.13     51.52      2.36    128.01
 REAL TIME  *       216.54 SEC
 DISK USED  *         7.95 GB      
 SF USED    *         1.75 GB      
 GA USED    *         0.00 MB       (max)       0.00 MB       (current)
 **********************************************************************************************************************************
 SETTING CCSD(I)        =      -104.36176431  AU                              
 Output type csv         
                                                                                                                                                                                                                                                                

        SCF,CCSD
   -103.7548163,   -104.3617643
                                                  

 RCCSD(T)/USERDEF energy=   -104.361764307305

        RCCSD(T)        RHF-SCF 
   -104.36176431   -103.75481629
 **********************************************************************************************************************************
 Molpro calculation terminated
 Variable memory released
