
 Primary working directories    : /global/cscratch1/sd/haihan
 Secondary working directories  : /global/cscratch1/sd/haihan
 Wavefunction directory         : /global/homes/h/haihan/wfu/
 Main file repository           : /global/cscratch1/sd/haihan/

 SHA1      : 19cd028119e0e09f93f0674bd8af7968d9b3eff6
 NAME      : 2015.1.36
 ARCHNAME  : linux/x86_64
 FC        : /opt/cray/pe/craype/2.5.14/bin/ftn
 BLASLIB   : -L/opt/intel/compilers_and_libraries_2018.1.163/linux/mkl/lib/intel64 -Wl,-_start-group -lmkl_intel_ilp64 -lmkl_intel_thread -lmkl_core -Wl,-_end-group -liomp5
 id        : lbl

 Nodes     nprocs
 nid01557    15
 Number of processes for MPI-2 version of Molpro:   nprocs(total)=   16   nprocs(compute)=   15   nprocs(helper)=    1

 Using customized tuning parameters: mindgm=7; mindgv=16; mindgc=1; mindgr=1; noblas=0; minvec=7
 default implementation of scratch files=sf  

 ***,Mo
 memory,512,m
 
 gthresh,twoint=1.e-12
 gprint,basis,orbitals
 
 angstrom
 geometry={
 1                                                                               ! Number of atoms
 Mo 0.0 0.0 0.0
 }
 
 
 basis={
 Including file /global/u2/h/haihan/Research/HZECP/Mo/basis/Mo/previous_basis/previous_aug_DZ_CI/ecp.molpro
 Including file /global/u2/h/haihan/Research/HZECP/Mo/basis/Mo/previous_basis/previous_aug_DZ_CI/aug-cc-pwCVDZ.basis
 
 }
 
 {rhf
  start,atden
  wf,14,1,6
  occ,4,1,1,1,1,1,1,0
  closed,1,1,1,0,1,0,0,0
  sym,1,1,3,2,1
  restrict,1,1,4.1
  orbital,4202.2
 }
 pop
 {multi
  start,4202.2
  occ,4,1,1,1,1,1,1,0
  closed,1,1,1,0,1,0,0,0
  wf,14,1,6;state,1
  restrict,1,1,4.1
  natorb,ci,print
  orbital,5202.2
 }
 {rhf,nitord=1,maxit=0
  start,5202.2
  wf,14,1,6
  occ,4,1,1,1,1,1,1,0
  closed,1,1,1,0,1,0,0,0
  sym,1,1,3,2,1
  restrict,1,1,4.1
  print,orbitals=2
 }
 
 {ci;maxit,100;core
  natorb,ci,print=15
 
 }
 
 

 Variables initialized (889), CPU time= 0.01 sec
 Commands  initialized (702), CPU time= 0.01 sec, 572 directives.
 Default parameters read. Elapsed time= 0.14 sec

 Checking input...
 Passed
1


                                         ***  PROGRAM SYSTEM MOLPRO  ***
                                       Copyright, TTI GmbH Stuttgart, 2015
                                    Version 2015.1 linked Dec 29 2018 15:55:43


 **********************************************************************************************************************************
 LABEL *   Mo                                                                            
  64 bit mpp version                                                                     DATE: 05-Dec-21          TIME: 09:21:07  
 **********************************************************************************************************************************

 SHA1:             19cd028119e0e09f93f0674bd8af7968d9b3eff6
 **********************************************************************************************************************************

 THRESHOLDS:

 ZERO    =  1.00D-12  ONEINT  =  1.00D-12  TWOINT  =  1.00D-12  PREFAC  =  1.00D-14  LOCALI  =  1.00D-09  EORDER  =  1.00D-04
 ENERGY  =  0.00D+00  ETEST   =  0.00D+00  EDENS   =  0.00D+00  THRDEDEF=  1.00D-06  GRADIENT=  1.00D-02  STEP    =  1.00D-03
 ORBITAL =  1.00D-05  CIVEC   =  1.00D-05  COEFF   =  1.00D-04  PRINTCI =  5.00D-02  PUNCHCI =  9.90D+01  OPTGRAD =  3.00D-04
 OPTENERG=  1.00D-06  OPTSTEP =  3.00D-04  THRGRAD =  1.00D-10  COMPRESS=  1.00D-11  VARMIN  =  1.00D-07  VARMAX  =  1.00D-03
 THRDOUB =  0.00D+00  THRDIV  =  1.00D-05  THRRED  =  1.00D-07  THRPSP  =  1.00D+00  THRDC   =  1.00D-10  THRCS   =  1.00D-10
 THRNRM  =  1.00D-08  THREQ   =  0.00D+00  THRDE   =  1.00D+00  THRREF  =  1.00D-05  SPARFAC =  1.00D+00  THRDLP  =  1.00D-07
 THRDIA  =  1.00D-10  THRDLS  =  1.00D-07  THRGPS  =  0.00D+00  THRKEX  =  0.00D+00  THRDIS  =  2.00D-01  THRVAR  =  1.00D-10
 THRLOC  =  1.00D-06  THRGAP  =  1.00D-06  THRLOCT = -1.00D+00  THRGAPT = -1.00D+00  THRORB  =  1.00D-06  THRMLTP =  0.00D+00
 THRCPQCI=  1.00D-10  KEXTA   =  0.00D+00  THRCOARS=  0.00D+00  SYMTOL  =  1.00D-06  GRADTOL =  1.00D-06  THROVL  =  1.00D-08
 THRORTH =  1.00D-08  GRID    =  1.00D-06  GRIDMAX =  1.00D-03  DTMAX   =  0.00D+00  THROCCDE=  1.00D-01  THROCCDE=  1.00D-01



 ZUNIT=ANG
 

Geometry recognized as XYZ


 Variable memory set to  512000000 words,  buffer space   230000 words

 SETTING BASIS          =    USERDEF


 Recomputing integrals since basis changed


 Using spherical harmonics



 PROGRAM * SEWARD (Integral evaluation for generally contracted gaussian basis sets)     Author: Roland Lindh, 1990

 Geometry written to block  1 of record 700

 Orientation using atomic masses  
 Molecule type: Atom
 Symmetry elements: X,Y,Z
 Rotational constants:       0.0000000      0.0000000      0.0000000 GHz  (calculated with average atomic masses)

 Point group  D2h 



 ATOMIC COORDINATES

 NR  ATOM    CHARGE       X              Y              Z

   1  MO     14.00    0.000000000    0.000000000    0.000000000


          MO  CORE POTENTIAL

          f POTENTIAL

 POWERS             1              3              2              2
 EXPONENTIALS   10.99353       11.01508       10.36534       6.281056    
 COEFFICIENTS   14.00000       153.9094      -91.43431      -16.94573    

          s - f POTENTIAL

 POWERS             2              2              2
 EXPONENTIALS   10.07938       4.386730       6.321328    
 COEFFICIENTS   180.0893       24.72363       16.96139    

          p - f POTENTIAL

 POWERS             2              2              2
 EXPONENTIALS   9.027487       3.910532       6.340373    
 COEFFICIENTS   123.6809       18.78431       16.93334    

          d - f POTENTIAL

 POWERS             2              2              2
 EXPONENTIALS   7.378964       2.774830       6.390417    
 COEFFICIENTS   48.28919       7.940102       16.93215    


 BASIS DATA

   Nr Sym  Nuc  Type         Exponents   Contraction coefficients

    1.1 Ag    1  1s         106.978000     0.000735    0.000000    0.001166   -0.000176
    2.1 Ag                   18.882400    -0.035090    0.000000   -0.037607    0.009332
    3.1 Ag                   11.807700     0.147348    0.000000    0.125980   -0.043811
    4.1 Ag                    4.021180    -0.583363    0.000000   -0.475237    0.197232
                              0.956816     0.825635    0.000000    1.498983   -0.377311
                              0.435692     0.452311    0.000000   -0.822345   -0.293967
                              0.332800     0.000000    1.000000    0.000000    0.000000
                              0.092518     0.019055    0.000000   -1.560624    0.649833
    5.1 Ag    1  1s           0.034854     1.000000
    6.1 Ag    1  3d0          5.257610     0.000000
                              2.104620     0.000000
                              1.503900     1.000000
                              0.958201     0.000000
                              0.414047     0.000000
                              0.168450     0.000000
    7.1 Ag    1  3d2+         5.257610     0.000000
                              2.104620     0.000000
                              1.503900     1.000000
                              0.958201     0.000000
                              0.414047     0.000000
                              0.168450     0.000000
    8.1 Ag    1  3d0          5.257610    -0.014761
                              2.104620     0.131982
                              1.503900     0.000000
                              0.958201     0.347086
                              0.414047     0.405471
                              0.168450     0.288058
    9.1 Ag    1  3d2+         5.257610    -0.014761
                              2.104620     0.131982
                              1.503900     0.000000
                              0.958201     0.347086
                              0.414047     0.405471
                              0.168450     0.288058
   10.1 Ag    1  3d0          5.257610     0.015439
                              2.104620    -0.160621
                              1.503900     0.000000
                              0.958201    -0.423229
                              0.414047    -0.192339
                              0.168450     0.531459
   11.1 Ag    1  3d2+         5.257610     0.015439
                              2.104620    -0.160621
                              1.503900     0.000000
                              0.958201    -0.423229
                              0.414047    -0.192339
                              0.168450     0.531459
   12.1 Ag    1  3d0          0.062342     1.000000
   13.1 Ag    1  3d2+         0.062342     1.000000
    1.2 B3u   1  2px         11.411800     0.025345    0.000000   -0.010420   -0.007022
    2.2 B3u                   5.245350    -0.175213    0.000000    0.079867    0.053339
    3.2 B3u                   1.318840     0.481272    0.000000   -0.262900   -0.175643
    4.2 B3u                   0.622983     0.497261    0.000000   -0.365184   -0.216213
                              0.437100     0.000000    1.000000    0.000000    0.000000
                              0.279108     0.159555    0.000000    0.286673    0.067958
                              0.100526     0.007543    0.000000    0.800258    0.612816
    5.2 B3u   1  2px          0.036277     1.000000
    6.2 B3u   1  4f1+         1.950200     1.000000
    7.2 B3u   1  4f3+         1.950200     1.000000
    8.2 B3u   1  4f1+         0.600700     1.000000
    9.2 B3u   1  4f3+         0.600700     1.000000
    1.3 B2u   1  2py         11.411800     0.025345    0.000000   -0.010420   -0.007022
    2.3 B2u                   5.245350    -0.175213    0.000000    0.079867    0.053339
    3.3 B2u                   1.318840     0.481272    0.000000   -0.262900   -0.175643
    4.3 B2u                   0.622983     0.497261    0.000000   -0.365184   -0.216213
                              0.437100     0.000000    1.000000    0.000000    0.000000
                              0.279108     0.159555    0.000000    0.286673    0.067958
                              0.100526     0.007543    0.000000    0.800258    0.612816
    5.3 B2u   1  2py          0.036277     1.000000
    6.3 B2u   1  4f1-         1.950200     1.000000
    7.3 B2u   1  4f3-         1.950200     1.000000
    8.3 B2u   1  4f1-         0.600700     1.000000
    9.3 B2u   1  4f3-         0.600700     1.000000
    1.4 B1g   1  3d2-         5.257610     0.000000   -0.014761    0.015439
    2.4 B1g                   2.104620     0.000000    0.131982   -0.160621
    3.4 B1g                   1.503900     1.000000    0.000000    0.000000
                              0.958201     0.000000    0.347086   -0.423229
                              0.414047     0.000000    0.405471   -0.192339
                              0.168450     0.000000    0.288058    0.531459
    4.4 B1g   1  3d2-         0.062342     1.000000
    1.5 B1u   1  2pz         11.411800     0.025345    0.000000   -0.010420   -0.007022
    2.5 B1u                   5.245350    -0.175213    0.000000    0.079867    0.053339
    3.5 B1u                   1.318840     0.481272    0.000000   -0.262900   -0.175643
    4.5 B1u                   0.622983     0.497261    0.000000   -0.365184   -0.216213
                              0.437100     0.000000    1.000000    0.000000    0.000000
                              0.279108     0.159555    0.000000    0.286673    0.067958
                              0.100526     0.007543    0.000000    0.800258    0.612816
    5.5 B1u   1  2pz          0.036277     1.000000
    6.5 B1u   1  4f0          1.950200     1.000000
    7.5 B1u   1  4f2+         1.950200     1.000000
    8.5 B1u   1  4f0          0.600700     1.000000
    9.5 B1u   1  4f2+         0.600700     1.000000
    1.6 B2g   1  3d1+         5.257610     0.000000   -0.014761    0.015439
    2.6 B2g                   2.104620     0.000000    0.131982   -0.160621
    3.6 B2g                   1.503900     1.000000    0.000000    0.000000
                              0.958201     0.000000    0.347086   -0.423229
                              0.414047     0.000000    0.405471   -0.192339
                              0.168450     0.000000    0.288058    0.531459
    4.6 B2g   1  3d1+         0.062342     1.000000
    1.7 B3g   1  3d1-         5.257610     0.000000   -0.014761    0.015439
    2.7 B3g                   2.104620     0.000000    0.131982   -0.160621
    3.7 B3g                   1.503900     1.000000    0.000000    0.000000
                              0.958201     0.000000    0.347086   -0.423229
                              0.414047     0.000000    0.405471   -0.192339
                              0.168450     0.000000    0.288058    0.531459
    4.7 B3g   1  3d1-         0.062342     1.000000
    1.8 Au    1  4f2-         1.950200     1.000000
    2.8 Au    1  4f2-         0.600700     1.000000

 NUCLEAR CHARGE:                   14
 NUMBER OF PRIMITIVE AOS:          95
 NUMBER OF SYMMETRY AOS:           82
 NUMBER OF CONTRACTIONS:           54   (  13Ag  +   9B3u +   9B2u +   4B1g +   9B1u +   4B2g +   4B3g +   2Au  )
 NUMBER OF CORE ORBITALS:           4   (   1Ag  +   1B3u +   1B2u +   0B1g +   1B1u +   0B2g +   0B3g +   0Au  )
 NUMBER OF VALENCE ORBITALS:        6   (   3Ag  +   0B3u +   0B2u +   1B1g +   0B1u +   1B2g +   1B3g +   0Au  )


 NUCLEAR REPULSION ENERGY    0.00000000

 EXTRA SYMMETRY OF AOS IN SYMMETRY 1:   1 1 1 1 1 2 3 2 3 2   3 2 3
 EXTRA SYMMETRY OF AOS IN SYMMETRY 2:   1 1 1 1 1 2 3 2 3
 EXTRA SYMMETRY OF AOS IN SYMMETRY 3:   1 1 1 1 1 2 3 2 3
 EXTRA SYMMETRY OF AOS IN SYMMETRY 5:   1 1 1 1 1 2 3 2 3

 Eigenvalues of metric

         1 0.411E-02 0.271E-01 0.799E-01 0.799E-01 0.241E+00 0.291E+00 0.291E+00 0.136E+01
         2 0.454E-03 0.371E-01 0.414E+00 0.522E+00 0.522E+00 0.148E+01 0.148E+01 0.188E+01
         3 0.454E-03 0.371E-01 0.414E+00 0.522E+00 0.522E+00 0.148E+01 0.148E+01 0.188E+01
         4 0.799E-01 0.291E+00 0.136E+01 0.227E+01
         5 0.454E-03 0.371E-01 0.414E+00 0.522E+00 0.522E+00 0.148E+01 0.148E+01 0.188E+01
         6 0.799E-01 0.291E+00 0.136E+01 0.227E+01
         7 0.799E-01 0.291E+00 0.136E+01 0.227E+01
         8 0.522E+00 0.148E+01


 Contracted 2-electron integrals neglected if value below      1.0D-12
 AO integral compression algorithm  1   Integral accuracy      1.0D-12

     3.932 MB (compressed) written to integral file (100.0%)

     Node minimum: 0.262 MB, node maximum: 0.262 MB


 NUMBER OF SORTED TWO-ELECTRON INTEGRALS:      10776.     BUFFER LENGTH:  32768
 NUMBER OF SEGMENTS:   1  SEGMENT LENGTH:      10776      RECORD LENGTH: 524288

 Memory used in sort:       0.57 MW

 SORT1 READ      321044. AND WROTE        8795. INTEGRALS IN      1 RECORDS. CPU TIME:     0.34 SEC, REAL TIME:     0.61 SEC
 SORT2 READ      125920. AND WROTE      153544. INTEGRALS IN     15 RECORDS. CPU TIME:     0.01 SEC, REAL TIME:     0.12 SEC

 Node minimum:        7623.  Node maximum:       13019. integrals

 OPERATOR DM      FOR CENTER  0  COORDINATES:    0.000000    0.000000    0.000000


 **********************************************************************************************************************************
 DATASETS  * FILE   NREC   LENGTH (MB)   RECORD NAMES
              1      19       19.89       500      610      700      900      950      970     1000      129      960     1100   
                                          VAR    BASINP    GEOM    SYMINP    ZMAT    AOBASIS   BASIS     P2S    ABASIS      S 
                                         1400     1410     1420     1200     1210     1080     1600     1650     1700   
                                           T        V       ECP      H0       H01     AOSYM     SMH    MOLCAS    OPER   

 PROGRAMS   *        TOTAL       INT
 CPU TIMES  *         1.29      0.88
 REAL TIME  *         5.92 SEC
 DISK USED  *        64.65 MB      
 GA USED    *         0.00 MB       (max)       0.00 MB       (current)
 **********************************************************************************************************************************


 PROGRAM * RHF-SCF (OPEN SHELL)       Authors: W. Meyer, H.-J. Werner


 NUMBER OF ELECTRONS:      10+    4-    SPACE SYMMETRY=1    SPIN SYMMETRY: Septet  
 CONVERGENCE THRESHOLDS:    1.00E-05 (Density)    1.00E-07 (Energy)
 MAX. NUMBER OF ITERATIONS:       60
 INTERPOLATION TYPE:            DIIS
 INTERPOLATION STEPS:              2 (START)      1 (STEP)
 LEVEL SHIFTS:                 -0.60 (CLOSED) -0.30 (OPEN) 

 Number of closed-shell orbitals:    4 (   1   1   1   0   1   0   0   0 )
 Number of open-shell orbitals:      6 (   3   0   0   1   0   1   1   0 )


 
 Extra symmetries of mos in symmetry 1:   1   3   2   1
     Symmetry restrictions:    1             1

   Atom=MO basis=cc-pVTZ-PP        lmin=0  lmax=2

 Orbital guess generated from atomic densities. Full valence occupancy:    4   1   1   1   1   1   1   0


 Molecular orbital dump at record        4202.2

 ITERATION    DDIFF          GRAD             ENERGY        2-EL.EN.            DIPOLE MOMENTS         DIIS   ORB.
    1      0.000D+00      0.000D+00       -67.38396008     93.483065    0.00000    0.00000    0.00000    0    start
    2      0.000D+00      0.191D-01       -67.45684072     97.983515    0.00000    0.00000    0.00000    1    diag,B
    3      0.313D-01      0.949D-02       -67.46258456     97.940114    0.00000    0.00000    0.00000    2    diag,B
    4      0.136D-01      0.385D-02       -67.46542773     98.246229    0.00000    0.00000    0.00000    3    diag,B
    5      0.150D-01      0.659D-03       -67.46559003     98.346300    0.00000    0.00000    0.00000    4    diag,B
    6      0.403D-02      0.732D-04       -67.46559167     98.349029    0.00000    0.00000    0.00000    5    diag,B
    7      0.284D-03      0.166D-04       -67.46559178     98.350707    0.00000    0.00000    0.00000    6    fixocc
    8      0.103D-03      0.420D-05       -67.46559179     98.351301    0.00000    0.00000    0.00000    7    diag,B
    9      0.414D-04      0.168D-05       -67.46559180     98.351328    0.00000    0.00000    0.00000    8    diag,B
   10      0.208D-04      0.359D-06       -67.46559180     98.351384    0.00000    0.00000    0.00000    9    orth
   11      0.443D-05      0.358D-07       -67.46559180     98.351379    0.00000    0.00000    0.00000    0    orth

 Final alpha occupancy:   4   1   1   1   1   1   1   0
 Final beta  occupancy:   1   1   1   0   1   0   0   0

 !RHF STATE 1.1 Energy                -67.465591795513
 Nuclear energy                         0.00000000
 One-electron energy                 -116.64128128
 Two-electron energy                   49.17568948
 Virial quotient                       -2.82356019
 !RHF STATE 1.1 Dipole moment           0.00000000     0.00000000     0.00000000
 Dipole moment /Debye                   0.00000000     0.00000000     0.00000000

 ELECTRON ORBITALS
 =================


   Orb  Occ    Energy  Couls-En    Coefficients

                                   1 1s      1 1s      1 1s      1 1s      1 1s      1 3d0     1 3d2+    1 3d0     1 3d2+    1 3d0  
                                   1 3d2+    1 3d0     1 3d2+ 

   1.1   2    -2.8953  -13.6946  1.001966  0.003192  0.006365  0.001571 -0.007399 -0.000000 -0.000000 -0.000000 -0.000000 -0.000000
                                 0.000000  0.000000  0.000000

   2.1   +    -0.3423   -7.1145  0.000000  0.000000  0.000000  0.000000 -0.000000 -0.000004  0.003851 -0.001067  0.970266 -0.000004
                                 0.003344 -0.000084  0.076599

   3.1   +    -0.3423   -7.1145 -0.000000 -0.000000 -0.000000 -0.000000  0.000000  0.003851  0.000004  0.970266  0.001067  0.003344
                                 0.000004  0.076599  0.000084

   4.1   +    -0.2372   -4.3856  0.008157  0.001052  0.006942  0.560820  0.544662  0.000000 -0.000000  0.000000 -0.000000  0.000000
                                -0.000000 -0.000000 -0.000000

                                   1 2px     1 2px     1 2px     1 2px     1 2px     1 4f1+    1 4f3+    1 4f1+    1 4f3+ 

   1.2   2    -1.7585  -11.2640  0.992796  0.012675 -0.075792  0.072830 -0.001061  0.000000  0.000000 -0.000000 -0.000000

                                   1 2py     1 2py     1 2py     1 2py     1 2py     1 4f1-    1 4f3-    1 4f1-    1 4f3- 

   1.3   2    -1.7585  -11.2640  0.992796  0.012675 -0.075792  0.072830 -0.001061  0.000000 -0.000000 -0.000000  0.000000

                                   1 3d2-    1 3d2-    1 3d2-    1 3d2- 

   1.4   +    -0.3423   -7.1145  0.003851  0.970267  0.003344  0.076599

                                   1 2pz     1 2pz     1 2pz     1 2pz     1 2pz     1 4f0     1 4f2+    1 4f0     1 4f2+ 

   1.5   2    -1.7585  -11.2640  0.992796  0.012675 -0.075792  0.072830 -0.001061 -0.000000 -0.000000  0.000000  0.000000

                                   1 3d1+    1 3d1+    1 3d1+    1 3d1+ 

   1.6   +    -0.3423   -7.1145  0.003851  0.970267  0.003344  0.076599

                                   1 3d1-    1 3d1-    1 3d1-    1 3d1- 

   1.7   +    -0.3423   -7.1145  0.003851  0.970267  0.003344  0.076599

 HOMO      4.1    -0.237190 =      -6.4543eV
 LUMO      2.2     0.031230 =       0.8498eV
 LUMO-HOMO         0.268420 =       7.3041eV


 **********************************************************************************************************************************
 DATASETS  * FILE   NREC   LENGTH (MB)   RECORD NAMES
              1      19       19.89       500      610      700      900      950      970     1000      129      960     1100   
                                          VAR    BASINP    GEOM    SYMINP    ZMAT    AOBASIS   BASIS     P2S    ABASIS      S 
                                         1400     1410     1420     1200     1210     1080     1600     1650     1700   
                                           T        V       ECP      H0       H01     AOSYM     SMH    MOLCAS    OPER   

              2       4        2.77       700     1000      520     4202   
                                         GEOM     BASIS   MCVARS     RHF  

 PROGRAMS   *        TOTAL       RHF       INT
 CPU TIMES  *         1.40      0.11      0.88
 REAL TIME  *         6.26 SEC
 DISK USED  *       406.38 MB      
 SF USED    *         0.00 MB      
 GA USED    *         0.00 MB       (max)       0.00 MB       (current)
 **********************************************************************************************************************************


 PROGRAM * POP (Mulliken population analysis)

 
 Density matrix read from record         4202.2  Type=RHF/CHARGE (state 1.1)
 
 Population analysis by basis function type

 Unique atom        s        p        d        f        g    Total    Charge
   1  MO      3.00000  6.00000  5.00000  0.00000  0.00000 14.00000  + 0.00000


 **********************************************************************************************************************************
 DATASETS  * FILE   NREC   LENGTH (MB)   RECORD NAMES
              1      19       19.89       500      610      700      900      950      970     1000      129      960     1100   
                                          VAR    BASINP    GEOM    SYMINP    ZMAT    AOBASIS   BASIS     P2S    ABASIS      S 
                                         1400     1410     1420     1200     1210     1080     1600     1650     1700   
                                           T        V       ECP      H0       H01     AOSYM     SMH    MOLCAS    OPER   

              2       4        2.77       700     1000      520     4202   
                                         GEOM     BASIS   MCVARS     RHF  

 PROGRAMS   *        TOTAL       POP       RHF       INT
 CPU TIMES  *         1.41      0.00      0.11      0.88
 REAL TIME  *         6.33 SEC
 DISK USED  *       406.38 MB      
 SF USED    *         0.00 MB      
 GA USED    *         0.00 MB       (max)       0.00 MB       (current)
 **********************************************************************************************************************************


 PROGRAM * MULTI (Direct Multiconfiguration SCF)       Authors: P.J. Knowles, H.-J. Werner (1984)     S.T. Elbert (1988)


 Number of closed-shell orbitals:   4 (   1   1   1   0   1   0   0   0 )
 Number of active  orbitals:        6 (   3   0   0   1   0   1   1   0 )
 Number of external orbitals:      44 (   9   8   8   3   8   3   3   2 )

 State symmetry 1

 Orbital occupancy restrictions for symmetry 1
  1      1       002000                          

 Number of electrons:     6    Spin symmetry=Septet    Space symmetry=1
 Number of states:        1
 Number of CSFs:          1
 
 Maximum number of shells:             1
 Maximum number of spin couplings:     1

 Storage for configuration lists      22, coupling coefficients      6, address lists     92

 Molecular orbitals read from record     4202.2  Type=RHF/CANONICAL (state 1.1)
 *** IN SYMMETRY 1 ORBITAL  2 SYMMETRY CONTAMINATION OF 0.110D-02 HAS BEEN REMOVED
 *** IN SYMMETRY 1 ORBITAL  3 SYMMETRY CONTAMINATION OF 0.110D-02 HAS BEEN REMOVED

 EXTRA SYMMETRY OF MOS IN SYMMETRY 1:   1 3 2 1 1 2 3 3 2 1   3 2 1
 EXTRA SYMMETRY OF MOS IN SYMMETRY 2:   1 1 1 1 2 3 3 2 1
 EXTRA SYMMETRY OF MOS IN SYMMETRY 3:   1 1 1 1 2 3 3 2 1
 EXTRA SYMMETRY OF MOS IN SYMMETRY 5:   1 1 1 1 2 3 3 2 1

 Wavefunction dump at record             5202.2

 Convergence thresholds  0.10E-01 (gradient)  0.10E-05 (energy)  0.10E-02 (step length)

 Eigenvalues of redundancy matrix
   1-  3    0.000000    0.000000    0.000000

 Number of orbital rotations:       72   (     3 Core/Active     33 Core/Virtual   0 Active/Active     36 Active/Virtual)
 Total number of variables:         73


 ITER. MIC  NCI  NEG     ENERGY(VAR)     ENERGY(PROJ)   ENERGY CHANGE     GRAD(0)  GRAD(ORB)   GRAD(CI)     STEP       TIME

   1   23    4    0     -67.46559180     -67.46559180   -0.00000000    0.00000033 0.00000000 0.00000000  0.68D-06      0.03

 ** WVFN ****  CONVERGENCE REACHED, FINAL GRADIENT:  0.11D-12


 First order charge density matrix for state 1.1 saved on record  5202.2 (density set 1)

 Results for state 1.1
 =====================

 !MCSCF STATE 1.1 Energy              -67.465591795513
 Nuclear energy                         0.00000000
 Kinetic energy                        23.89380299
 One electron energy                 -116.64128056
 Two electron energy                   49.17568876
 Virial ratio                           3.82356023

 !MCSCF STATE 1.1 Dipole moment         0.00000000     0.00000000     0.00000000
 Dipole moment /Debye                   0.00000000     0.00000000     0.00000000


 NATURAL ORBITALS
 ================

 Some active orbitals have been swapped

   Orb     Occ        Energy       Coefficients

                                   1 1s      1 1s      1 1s      1 1s      1 1s      1 3d0     1 3d2+    1 3d0     1 3d2+    1 3d0  
                                   1 3d2+    1 3d0     1 3d2+ 

   1.1  2.00000    -2.895312     1.001966  0.003192  0.006365  0.001571 -0.007399  0.000000  0.000000  0.000000  0.000000  0.000000
                                 0.000000  0.000000  0.000000

   2.1  1.00000    -0.039189     0.000000  0.000000  0.000000  0.000000  0.000000  0.000000  0.003851  0.000000  0.970266  0.000000
                                 0.003344  0.000000  0.076600

   3.1  1.00000    -0.039189     0.000000  0.000000  0.000000  0.000000  0.000000  0.003851  0.000000  0.970266  0.000000  0.003344
                                 0.000000  0.076600  0.000000

   4.1  1.00000    -0.083082     0.008157  0.001052  0.006942  0.560820  0.544661  0.000000  0.000000  0.000000  0.000000  0.000000
                                 0.000000  0.000000  0.000000

                                   1 2px     1 2px     1 2px     1 2px     1 2px     1 4f1+    1 4f3+    1 4f1+    1 4f3+ 

   1.2  2.00000    -1.758467     0.992796  0.012675 -0.075792  0.072830 -0.001061  0.000000  0.000000  0.000000  0.000000

                                   1 2py     1 2py     1 2py     1 2py     1 2py     1 4f1-    1 4f3-    1 4f1-    1 4f3- 

   1.3  2.00000    -1.758467     0.992796  0.012675 -0.075792  0.072830 -0.001061  0.000000  0.000000  0.000000  0.000000

                                   1 3d2-    1 3d2-    1 3d2-    1 3d2- 

   1.4  1.00000    -0.039189     0.003851  0.970266  0.003344  0.076600

                                   1 2pz     1 2pz     1 2pz     1 2pz     1 2pz     1 4f0     1 4f2+    1 4f0     1 4f2+ 

   1.5  2.00000    -1.758467     0.992796  0.012675 -0.075792  0.072830 -0.001061  0.000000  0.000000  0.000000  0.000000

                                   1 3d1+    1 3d1+    1 3d1+    1 3d1+ 

   1.6  1.00000    -0.039189     0.003851  0.970266  0.003344  0.076600

                                   1 3d1-    1 3d1-    1 3d1-    1 3d1- 

   1.7  1.00000    -0.039189     0.003851  0.970266  0.003344  0.076600
 

 EXTRA SYMMETRY OF MOS IN SYMMETRY 2:   1 1 1 1 3 2 3 2 1
 EXTRA SYMMETRY OF MOS IN SYMMETRY 3:   1 1 1 1 3 2 3 2 1

 Natural orbital dump at molpro section  5202.2    (Orbital set 2)


 CI vector
 =========

 /// / / /          1.0000000


 **********************************************************************************************************************************
 DATASETS  * FILE   NREC   LENGTH (MB)   RECORD NAMES
              1      20       20.16       500      610      700      900      950      970     1000      129      960     1100   
                                          VAR    BASINP    GEOM    SYMINP    ZMAT    AOBASIS   BASIS     P2S    ABASIS      S 
                                         1400     1410     1420     1200     1210     1080     1600     1650     1700     1380   
                                           T        V       ECP      H0       H01     AOSYM     SMH    MOLCAS    OPER     JKOP   

              2       5        5.27       700     1000      520     4202     5202   
                                         GEOM     BASIS   MCVARS     RHF     MCSCF   

 PROGRAMS   *        TOTAL     MULTI       POP       RHF       INT
 CPU TIMES  *         1.71      0.30      0.00      0.11      0.88
 REAL TIME  *         7.58 SEC
 DISK USED  *       406.38 MB      
 SF USED    *         4.13 MB      
 GA USED    *         0.00 MB       (max)       0.00 MB       (current)
 **********************************************************************************************************************************


 PROGRAM * RHF-SCF (OPEN SHELL)       Authors: W. Meyer, H.-J. Werner


 NUMBER OF ELECTRONS:      10+    4-    SPACE SYMMETRY=1    SPIN SYMMETRY: Septet  
 CONVERGENCE THRESHOLDS:    1.00E-05 (Density)    1.00E-07 (Energy)
 MAX. NUMBER OF ITERATIONS:        0
 INTERPOLATION TYPE:            DIIS
 INTERPOLATION STEPS:              2 (START)      1 (STEP)
 LEVEL SHIFTS:                 -0.60 (CLOSED) -0.30 (OPEN) 

 Number of closed-shell orbitals:    4 (   1   1   1   0   1   0   0   0 )
 Number of open-shell orbitals:      6 (   3   0   0   1   0   1   1   0 )


 
 Extra symmetries of mos in symmetry 1:   1   3   2   1
     Symmetry restrictions:    1             1
 Molecular orbitals read from record     5202.2  Type=MCSCF/NATURAL (state 1.1)

 Molecular orbital dump at record        2101.2

 ITERATION    DDIFF          GRAD             ENERGY        2-EL.EN.            DIPOLE MOMENTS         DIIS   ORB.
    1      0.000D+00      0.000D+00       -67.46559180     98.351378    0.00000    0.00000    0.00000    0    start

 Final alpha occupancy:   4   1   1   1   1   1   1   0
 Final beta  occupancy:   1   1   1   0   1   0   0   0

 !RHF STATE 1.1 Energy                -67.465591795513
 Nuclear energy                         0.00000000
 One-electron energy                 -116.64128056
 Two-electron energy                   49.17568876
 Virial quotient                       -2.82356023
 !RHF STATE 1.1 Dipole moment           0.00000000     0.00000000     0.00000000
 Dipole moment /Debye                   0.00000000     0.00000000     0.00000000

 ELECTRON ORBITALS
 =================


   Orb  Occ    Energy  Couls-En    Coefficients

                                   1 1s      1 1s      1 1s      1 1s      1 1s      1 3d0     1 3d2+    1 3d0     1 3d2+    1 3d0  
                                   1 3d2+    1 3d0     1 3d2+ 

   1.1   2    -2.8953  -13.6946  1.001966  0.003192  0.006365  0.001571 -0.007399  0.000000  0.000000  0.000000  0.000000  0.000000
                                 0.000000  0.000000  0.000000

   2.1   +    -0.0392   -6.8114  0.000000  0.000000  0.000000  0.000000  0.000000  0.000000  0.003851  0.000000  0.970266  0.000000
                                 0.003344  0.000000  0.076600

   3.1   +    -0.0392   -6.8114  0.000000  0.000000  0.000000  0.000000  0.000000  0.003851  0.000000  0.970266  0.000000  0.003344
                                 0.000000  0.076600  0.000000

   4.1   +    -0.0831   -4.2315  0.008157  0.001052  0.006942  0.560820  0.544661  0.000000  0.000000  0.000000  0.000000  0.000000
                                 0.000000  0.000000  0.000000

   5.1   0     0.2118   -2.8492 -0.926701 -1.128558 -1.341640 -2.921489  1.900653  0.000000  0.000000  0.000000  0.000000  0.000000
                                 0.000000  0.000000  0.000000

   6.1   0     0.2164   -2.3888  0.000000  0.000000  0.000000  0.000000  0.000000 -0.115947  0.000000 -0.498504  0.000000 -0.300842
                                 0.000000  1.191385  0.000000

                                   1 2px     1 2px     1 2px     1 2px     1 2px     1 4f1+    1 4f3+    1 4f1+    1 4f3+ 

   1.2   2    -1.7585  -11.2640  0.992796  0.012675 -0.075792  0.072830 -0.001061  0.000000  0.000000  0.000000  0.000000

   2.2   0     0.0558   -2.5060 -0.156320 -0.097452  1.062723 -1.165802  1.122327  0.000000  0.000000  0.000000  0.000000

   3.2   0     0.2639   -3.0174  0.335637  0.328680 -5.348427  6.855578 -1.199242  0.000000  0.000000  0.000000  0.000000

                                   1 2py     1 2py     1 2py     1 2py     1 2py     1 4f1-    1 4f3-    1 4f1-    1 4f3- 

   1.3   2    -1.7585  -11.2640  0.992796  0.012675 -0.075792  0.072830 -0.001061  0.000000  0.000000  0.000000  0.000000

   2.3   0     0.0558   -2.5060 -0.156320 -0.097452  1.062723 -1.165802  1.122327  0.000000  0.000000  0.000000  0.000000

   3.3   0     0.2639   -3.0174  0.335637  0.328680 -5.348427  6.855578 -1.199242  0.000000  0.000000  0.000000  0.000000

                                   1 3d2-    1 3d2-    1 3d2-    1 3d2- 

   1.4   +    -0.0392   -6.8114  0.003851  0.970266  0.003344  0.076600

   2.4   0     0.2164   -2.3888 -0.115947 -0.498504 -0.300842  1.191385

   3.4   0     0.9004   -3.3830  0.617376  0.419178  1.729293 -0.687455

                                   1 2pz     1 2pz     1 2pz     1 2pz     1 2pz     1 4f0     1 4f2+    1 4f0     1 4f2+ 

   1.5   2    -1.7585  -11.2640  0.992796  0.012675 -0.075792  0.072830 -0.001061  0.000000  0.000000  0.000000  0.000000

   2.5   0     0.0558   -2.5060 -0.156320 -0.097452  1.062723 -1.165802  1.122327  0.000000  0.000000  0.000000  0.000000

   3.5   0     0.2639   -3.0174  0.335637  0.328680 -5.348427  6.855578 -1.199242  0.000000  0.000000  0.000000  0.000000

                                   1 3d1+    1 3d1+    1 3d1+    1 3d1+ 

   1.6   +    -0.0392   -6.8114  0.003851  0.970266  0.003344  0.076600

   2.6   0     0.2164   -2.3888 -0.115947 -0.498504 -0.300842  1.191385

   3.6   0     0.9004   -3.3830  0.617376  0.419178  1.729293 -0.687455

                                   1 3d1-    1 3d1-    1 3d1-    1 3d1- 

   1.7   +    -0.0392   -6.8114  0.003851  0.970266  0.003344  0.076600

   2.7   0     0.2164   -2.3888 -0.115947 -0.498504 -0.300842  1.191385

   3.7   0     0.9004   -3.3830  0.617376  0.419178  1.729293 -0.687455

                                   1 4f2-    1 4f2- 

   1.8   0     1.5872   -3.8833  0.122473  0.935687

   2.8   0     4.6531    0.3729  1.131679 -0.648218

 HOMO      1.4    -0.039189 =      -1.0664eV
 LUMO      2.2     0.055820 =       1.5189eV
 LUMO-HOMO         0.095009 =       2.5853eV


 **********************************************************************************************************************************
 DATASETS  * FILE   NREC   LENGTH (MB)   RECORD NAMES
              1      20       20.16       500      610      700      900      950      970     1000      129      960     1100   
                                          VAR    BASINP    GEOM    SYMINP    ZMAT    AOBASIS   BASIS     P2S    ABASIS      S 
                                         1400     1410     1420     1200     1210     1080     1600     1650     1700     1380   
                                           T        V       ECP      H0       H01     AOSYM     SMH    MOLCAS    OPER     JKOP   

              2       6        7.78       700     1000      520     4202     5202     2101   
                                         GEOM     BASIS   MCVARS     RHF     MCSCF     RHF  

 PROGRAMS   *        TOTAL       RHF     MULTI       POP       RHF       INT
 CPU TIMES  *         1.97      0.26      0.30      0.00      0.11      0.88
 REAL TIME  *         8.36 SEC
 DISK USED  *       406.38 MB      
 SF USED    *         4.13 MB      
 GA USED    *         0.00 MB       (max)       0.00 MB       (current)
 **********************************************************************************************************************************


 PROGRAM * CI (Multireference internally contracted CI)     Authors: H.-J. Werner, P.J. Knowles, 1987


 Convergence thresholds:  THRVAR = 1.00D-08  THRDEN = 1.00D-06

 Number of optimized states:  1  Roots:   1
 Number of reference states:  1  Roots:   1

 Reference symmetry:                   1   Septet  
 Number of electrons:                 14
 Maximum number of shells:             3
 Maximum number of spin couplings:    35

 Reference space:        1 conf        1 CSFs
 N elec internal:      115 conf      115 CSFs
 N-1 el internal:      190 conf      430 CSFs
 N-2 el internal:       49 conf      421 CSFs

 Number of electrons in valence space:                     14
 Maximum number of open shell orbitals in reference space:  6
 Maximum number of open shell orbitals in internal spaces: 10


 Number of closed-shell orbitals:   4 (   1   1   1   0   1   0   0   0 )
 Number of active  orbitals:        6 (   3   0   0   1   0   1   1   0 )
 Number of external orbitals:      44 (   9   8   8   3   8   3   3   2 )

 Molecular orbitals read from record     2101.2  Type=RHF/CANONICAL (state 1.1)

 Coulomb and exchange operators available. No transformation done.

 Number of p-space configurations:   1

 Reference wavefunction optimized for reference space (refopt=1)

 State     Reference Energy 
   1         -67.46559180

 Number of blocks in overlap matrix:    79   Smallest eigenvalue:  0.10D+01
 Number of N-2 electron functions:      79
 Number of N-1 electron functions:     430

 Number of internal configurations:                   16
 Number of singly external configurations:          2499
 Number of doubly external configurations:          9858
 Total number of contracted configurations:        12373
 Total number of uncontracted configurations:      53941

 Diagonal Coupling coefficients finished.               Storage:   49985 words, CPU-Time:      0.00 seconds.
 Energy denominators for pairs finished in 1 passes.    Storage:   29571 words, CPU-time:      0.00 seconds.

  ITER. STATE  ROOT     SQ.NORM     CORR.ENERGY   TOTAL ENERGY   ENERGY CHANGE       DEN1      VAR(S)    VAR(P)      TIME
    1     1     1     1.00000000     0.00000000   -67.46559180     0.00000000    -0.40011343  0.41D-01  0.65D-01     0.22
    2     1     1     1.06970643    -0.33236661   -67.79795840    -0.33236661    -0.00765649  0.10D-02  0.93D-03     0.26
    3     1     1     1.06781510    -0.33993291   -67.80552470    -0.00756630    -0.00012057  0.27D-04  0.23D-04     0.29
    4     1     1     1.06843020    -0.34006738   -67.80565917    -0.00013447    -0.00000637  0.15D-05  0.20D-05     0.32
    5     1     1     1.06870298    -0.34007517   -67.80566697    -0.00000780    -0.00000034  0.68D-07  0.85D-07     0.36
    6     1     1     1.06871269    -0.34007558   -67.80566737    -0.00000040    -0.00000001  0.43D-08  0.28D-08     0.38


 =====================================
 Analysis of CPU times by interactions
 =====================================

       I      S      P

 I   2.6%
 S   2.6%  23.7%
 P   0.0%  10.5%   0.0%

 Initialization:  55.3%
 Other:            5.3%

 Total CPU:        0.4 seconds
 =====================================



 Reference coefficients greater than 0.0500000
 =============================================
 2///22/2//           0.9664801



 RESULTS FOR STATE 1.1
 =====================

 Coefficient of reference function:   C(0) = 0.96648013 (fixed)   0.96648013 (relaxed)

 Energy contributions of configuration classes

 CLASS          SQ.NORM        ECORR1        ECORR2
 +++++++++++++++++++++++++++++++++++++++++++++++++++
 Internals    0.00173574   -0.00817349   -0.00818610
 Singles      0.02369737   -0.10384150   -0.10452215
 Pairs        0.04513459   -0.22806059   -0.22736733
 Total        1.07056770   -0.34007558   -0.34007558
 +++++++++++++++++++++++++++++++++++++++++++++++++++


 Reference energy                     -67.46559180
 Nuclear energy                         0.00000000
 Kinetic energy                        24.15065589
 One electron energy                 -116.41113252
 Two electron energy                   48.60546515
 Virial quotient                       -2.80761184
 Correlation energy                    -0.34007558
 !CI(SD) STATE 1.1 Energy             -67.805667370852

 Properties without orbital relaxation:

 !CI(SD) STATE 1.1 Dipole moment        0.00000000     0.00000000     0.00000000
 Dipole moment /Debye                   0.00000000     0.00000000     0.00000000

 Cluster corrected energies           -67.82966572 (Davidson, fixed reference)
 Cluster corrected energies           -67.82966572 (Davidson, relaxed reference)

 Cluster corrected energies           -67.82430575 (Pople, fixed reference)
 Cluster corrected energies           -67.82430575 (Pople, relaxed reference)


 Natural orbitals
 ================

   Orb     Occ           Coefficients

                         1 1s      1 1s      1 1s      1 1s      1 1s      1 3d0     1 3d2+    1 3d0     1 3d2+    1 3d0  
                         1 3d2+    1 3d0     1 3d2+ 

   1.1    1.9920442    1.006423  0.008575  0.021897  0.016444 -0.006663 -0.000000  0.000000 -0.000002  0.000000  0.000000
                       0.000000 -0.000000  0.000000

   2.1    0.9931466   -0.000008 -0.000006  0.000080 -0.000773 -0.000645  0.008770  0.000006  0.966457  0.000639  0.005166
                       0.000003  0.078998  0.000052

   3.1    0.9931465   -0.000000 -0.000000 -0.000000  0.000001  0.000001 -0.000006  0.008771 -0.000639  0.966458 -0.000003
                       0.005165 -0.000052  0.078998

   4.1    0.9927430    0.003480 -0.001489 -0.037333  0.553339  0.510012  0.000012 -0.000000  0.001317 -0.000001  0.000008
                      -0.000000  0.000108 -0.000000

   5.1    0.0069142   -0.000036 -0.000043 -0.000059 -0.000111  0.000064 -0.597572 -0.007906  0.568555  0.007522  0.606655
                       0.008026  0.127193  0.001683

   6.1    0.0069142    0.000000  0.000000  0.000000  0.000001 -0.000001  0.007906 -0.597571 -0.007522  0.568555 -0.008026
                       0.606656 -0.001683  0.127193

   7.1    0.0039614    1.288852  1.674197  5.627523  4.171710  0.855646  0.000044 -0.000000 -0.000055  0.000000  0.000005
                       0.000000  0.000002  0.000000

   8.1    0.0005353    0.000001  0.000001  0.000002  0.000003 -0.000001 -0.001238  2.189844  0.000664 -1.175320 -0.000786
                       1.390312 -0.000143  0.253145

   9.1    0.0005352   -0.000629 -0.000927 -0.002028 -0.002184  0.000457  2.189845  0.001238 -1.175320 -0.000664  1.390313
                       0.000786  0.253145  0.000143

  10.1    0.0004035   -2.336847 -3.405485 -7.375402 -8.061321  1.794355 -0.000577  0.000000  0.000276 -0.000000 -0.000404
                       0.000000 -0.000053  0.000000

  11.1    0.0000332   -0.000000  0.000000 -0.000000 -0.000000  0.000000  0.006542 -1.343142  0.001032 -0.211855  0.008705
                      -1.787034 -0.006737  1.383072

  12.1    0.0000332    0.000075 -0.000047  0.000012  0.000054 -0.000033 -1.343141 -0.006542 -0.211855 -0.001032 -1.787033
                      -0.008705  1.383072  0.006737

  13.1    0.0000028   -3.443569  6.335517  5.279198  3.047458  0.619070 -0.000015 -0.000000 -0.000005 -0.000000 -0.000024
                      -0.000000  0.000019  0.000000

                         1 2px     1 2px     1 2px     1 2px     1 2px     1 4f1+    1 4f3+    1 4f1+    1 4f3+ 

   1.2    1.9811963    0.997597  0.006002 -0.051957  0.050223 -0.000761  0.000000  0.000000 -0.000000  0.000000

   2.2    0.0061802   -1.105770  1.032239  3.177644 -2.544288 -0.000440  0.000057  0.000103  0.000079  0.000160

   3.2    0.0057764    0.000270 -0.000254 -0.000748  0.000598  0.000001  0.048891  0.467630  0.071350  0.682371

   4.2    0.0057761    0.000086 -0.000077 -0.000330  0.000264  0.000003  0.467640 -0.048912  0.682363 -0.071331

   5.2    0.0005575    3.147023 -3.498067  3.263122 -2.087301  0.064475  0.000002 -0.000078  0.000002  0.000066

   6.2    0.0004732    0.000199 -0.000221  0.000192 -0.000115  0.000011 -0.386295  0.961975  0.338484 -0.842863

   7.2    0.0004732    0.000144 -0.000170  0.000340 -0.000284 -0.000014  0.961975  0.386306 -0.842862 -0.338469

   8.2    0.0000477   -4.321918  6.153061-25.104816 23.869882  0.243229  0.000016  0.000002 -0.000016 -0.000002

   9.2    0.0000036   -1.558277  3.415728-20.893377 21.539706 -1.805998 -0.000007  0.000000  0.000007 -0.000000

                         1 2py     1 2py     1 2py     1 2py     1 2py     1 4f1-    1 4f3-    1 4f1-    1 4f3- 

   1.3    1.9811963    0.997597  0.006002 -0.051957  0.050223 -0.000761  0.000000 -0.000000 -0.000000 -0.000000

   2.3    0.0061802   -1.105770  1.032239  3.177645 -2.544288 -0.000440  0.000057 -0.000103  0.000080 -0.000159

   3.3    0.0057764   -0.000269  0.000253  0.000745 -0.000596 -0.000001 -0.047933  0.467730 -0.069952  0.682516

   4.3    0.0057761    0.000087 -0.000077 -0.000333  0.000266  0.000002  0.467739  0.047954  0.682507  0.069933

   5.3    0.0005575    3.147023 -3.498067  3.263119 -2.087298  0.064474  0.000003  0.000079  0.000001 -0.000067

   6.3    0.0004732   -0.000203  0.000225 -0.000195  0.000117 -0.000011  0.391126  0.960021 -0.342716 -0.841151

   7.3    0.0004732    0.000141 -0.000166  0.000336 -0.000281 -0.000014  0.960021 -0.391137 -0.841150  0.342701

   8.3    0.0000477   -4.321918  6.153061-25.104813 23.869879  0.243229  0.000015 -0.000002 -0.000016  0.000002

   9.3    0.0000036   -1.558277  3.415729-20.893381 21.539711 -1.805998 -0.000007 -0.000000  0.000007  0.000000

                         1 3d2-    1 3d2-    1 3d2-    1 3d2- 

   1.4    0.9931464    0.008771  0.966458  0.005164  0.078999

   2.4    0.0069140   -0.597629  0.568608  0.606704  0.127205

   3.4    0.0005353    2.189841 -1.175319  1.390311  0.253148

   4.4    0.0000332   -1.343160 -0.211856 -1.787058  1.383088

                         1 2pz     1 2pz     1 2pz     1 2pz     1 2pz     1 4f0     1 4f2+    1 4f0     1 4f2+ 

   1.5    1.9811955    0.997597  0.006002 -0.051959  0.050225 -0.000761  0.000000 -0.000000  0.000001  0.000000

   2.5    0.0061804   -1.105750  1.032223  3.177560 -2.544197 -0.000431  0.000484  0.000000  0.000725  0.000000

   3.5    0.0057765    0.001158 -0.001087 -0.003252  0.002587  0.000001  0.470167  0.000501  0.686101  0.000732

   4.5    0.0057761   -0.000000  0.000000  0.000001 -0.000001  0.000000 -0.000501  0.470166 -0.000732  0.686102

   5.5    0.0005575    3.146982 -3.498007  3.262805 -2.087017  0.064489 -0.000003 -0.000000  0.000007 -0.000000

   6.5    0.0004732    0.000011 -0.000016  0.000070 -0.000058  0.000000  1.036649  0.000422 -0.908274 -0.000370

   7.5    0.0004732    0.000000 -0.000000  0.000001 -0.000001 -0.000000 -0.000422  1.036649  0.000370 -0.908274

   8.5    0.0000477   -4.322022  6.153246-25.105741 23.870809  0.243155  0.000002  0.000000  0.000001 -0.000000

   9.5    0.0000036   -1.558086  3.415461-20.892328 21.538717 -1.806007  0.000000 -0.000000  0.000000  0.000000

                         1 3d1+    1 3d1+    1 3d1+    1 3d1+ 

   1.6    0.9931460    0.008771  0.966458  0.005165  0.078999

   2.6    0.0069139   -0.597637  0.568611  0.606697  0.127207

   3.6    0.0005353    2.189838 -1.175318  1.390309  0.253150

   4.6    0.0000332   -1.343163 -0.211856 -1.787061  1.383087

                         1 3d1-    1 3d1-    1 3d1-    1 3d1- 

   1.7    0.9931460    0.008771  0.966458  0.005165  0.078999

   2.7    0.0069139   -0.597637  0.568611  0.606697  0.127206

   3.7    0.0005353    2.189838 -1.175318  1.390310  0.253150

   4.7    0.0000332   -1.343162 -0.211856 -1.787061  1.383087

                         1 4f2-    1 4f2- 

   1.8    0.0057754    0.470215  0.686060

   2.8    0.0004731    1.036627 -0.908306

 Electronic charge:   14.000000


 **********************************************************************************************************************************
 DATASETS  * FILE   NREC   LENGTH (MB)   RECORD NAMES
              1      20       20.16       500      610      700      900      950      970     1000      129      960     1100   
                                          VAR    BASINP    GEOM    SYMINP    ZMAT    AOBASIS   BASIS     P2S    ABASIS      S 
                                         1400     1410     1420     1200     1210     1080     1600     1650     1700     1380   
                                           T        V       ECP      H0       H01     AOSYM     SMH    MOLCAS    OPER     JKOP   

              2       6        7.78       700     1000      520     4202     5202     2101   
                                         GEOM     BASIS   MCVARS     RHF     MCSCF     RHF  

 PROGRAMS   *        TOTAL        CI       RHF     MULTI       POP       RHF       INT
 CPU TIMES  *         2.63      0.65      0.26      0.30      0.00      0.11      0.88
 REAL TIME  *        10.42 SEC
 DISK USED  *       406.38 MB      
 SF USED    *         4.13 MB      
 GA USED    *         0.00 MB       (max)       0.00 MB       (current)
 **********************************************************************************************************************************

 CI/USERDEF energy=    -67.805667370852

        CI              RHF-SCF         MULTI           RHF-SCF 
    -67.80566737    -67.46559180    -67.46559180    -67.46559180
 **********************************************************************************************************************************
 Molpro calculation terminated
 Variable memory released
