/global/cscratch1/sd/bkincaid/cutoffs/W/250-610/runs/scf_530

     Program PWSCF v.6.4.1 starts on 17Jan2022 at 19:50: 2 

     This program is part of the open-source Quantum ESPRESSO suite
     for quantum simulation of materials; please cite
         "P. Giannozzi et al., J. Phys.:Condens. Matter 21 395502 (2009);
         "P. Giannozzi et al., J. Phys.:Condens. Matter 29 465901 (2017);
          URL http://www.quantum-espresso.org", 
     in publications or presentations arising from this work. More details at
     http://www.quantum-espresso.org/quote

     Parallel version (MPI & OpenMP), running on      32 processor cores
     Number of MPI processes:                32
     Threads/MPI process:                     1

     MPI processes distributed on     1 nodes
     R & G space division:  proc/nbgrp/npool/nimage =      32
     Reading input from scf_530.in

     Current dimensions of program PWSCF are:
     Max number of different atomic species (ntypx) = 10
     Max number of k-points (npk) =  40000
     Max angular momentum in pseudopotentials (lmaxx) =  3

     IMPORTANT: XC functional enforced from input :
     Exchange-correlation      = PBE ( 1  4  3  4 0 0)
     Any further DFT definition will be discarded
     Please, verify this is what you really want


     gamma-point specific algorithms are used

     Subspace diagonalization in iterative solution of the eigenvalue problem:
     one sub-group per band group will be used
     scalapack distributed-memory algorithm (size of sub-group:  4*  4 procs)

     Message from routine setup:
     DEPRECATED: symmetry with ibrav=0, use correct ibrav instead
 
     Parallelization info
     --------------------
     sticks:   dense  smooth     PW     G-vecs:    dense   smooth      PW
     Min        2709    2709    676               600689   600689   75072
     Max        2712    2712    678               600704   600704   75086
     Sum       86749   86749  21685             19222217 19222217 2402627
 


     bravais-lattice index     =            0
     lattice parameter (alat)  =      22.6767  a.u.
     unit-cell volume          =   11661.1222 (a.u.)^3
     number of atoms/cell      =            1
     number of atomic types    =            1
     number of electrons       =        14.00 (up:   9.00, down:   5.00)
     number of Kohn-Sham states=           12
     kinetic-energy cutoff     =     530.0000  Ry
     charge density cutoff     =    2120.0000  Ry
     convergence threshold     =      1.0E-06
     mixing beta               =       0.7000
     number of iterations used =            8  plain     mixing
     Exchange-correlation      = PBE ( 1  4  3  4 0 0)

     celldm(1)=  22.676714  celldm(2)=   0.000000  celldm(3)=   0.000000
     celldm(4)=   0.000000  celldm(5)=   0.000000  celldm(6)=   0.000000

     crystal axes: (cart. coord. in units of alat)
               a(1) = (   1.000000   0.000000   0.000000 )  
               a(2) = (   0.000000   1.000000   0.000000 )  
               a(3) = (   0.000000   0.000000   1.000000 )  

     reciprocal axes: (cart. coord. in units 2 pi/alat)
               b(1) = (  1.000000  0.000000  0.000000 )  
               b(2) = (  0.000000  1.000000  0.000000 )  
               b(3) = (  0.000000  0.000000  1.000000 )  


     PseudoPot. # 1 for W  read from file:
     ./W.upf
     MD5 check sum: 4ed05a8c0c5f577ff01fd4795b4ecf91
     Pseudo is Norm-conserving, Zval = 14.0
     Generated by new atomic code, or converted to UPF format
     Using radial grid of 1187 points,  3 beta functions with: 
                l(1) =   0
                l(2) =   2
                l(3) =   3

     atomic species   valence    mass     pseudopotential
        W             14.00   183.85000     W ( 1.00)

     Starting magnetic structure 
     atomic species   magnetization
        W            0.500

     48 Sym. Ops., with inversion, found


                                    s                        frac. trans.

      isym =  1     identity                                     

 cryst.   s( 1) = (     1          0          0      )
                  (     0          1          0      )
                  (     0          0          1      )

 cart.    s( 1) = (  1.0000000  0.0000000  0.0000000 )
                  (  0.0000000  1.0000000  0.0000000 )
                  (  0.0000000  0.0000000  1.0000000 )


      isym =  2     180 deg rotation - cart. axis [0,0,1]        

 cryst.   s( 2) = (    -1          0          0      )
                  (     0         -1          0      )
                  (     0          0          1      )

 cart.    s( 2) = ( -1.0000000  0.0000000  0.0000000 )
                  (  0.0000000 -1.0000000  0.0000000 )
                  (  0.0000000  0.0000000  1.0000000 )


      isym =  3     180 deg rotation - cart. axis [0,1,0]        

 cryst.   s( 3) = (    -1          0          0      )
                  (     0          1          0      )
                  (     0          0         -1      )

 cart.    s( 3) = ( -1.0000000  0.0000000  0.0000000 )
                  (  0.0000000  1.0000000  0.0000000 )
                  (  0.0000000  0.0000000 -1.0000000 )


      isym =  4     180 deg rotation - cart. axis [1,0,0]        

 cryst.   s( 4) = (     1          0          0      )
                  (     0         -1          0      )
                  (     0          0         -1      )

 cart.    s( 4) = (  1.0000000  0.0000000  0.0000000 )
                  (  0.0000000 -1.0000000  0.0000000 )
                  (  0.0000000  0.0000000 -1.0000000 )


      isym =  5     180 deg rotation - cart. axis [1,1,0]        

 cryst.   s( 5) = (     0          1          0      )
                  (     1          0          0      )
                  (     0          0         -1      )

 cart.    s( 5) = (  0.0000000  1.0000000  0.0000000 )
                  (  1.0000000  0.0000000  0.0000000 )
                  (  0.0000000  0.0000000 -1.0000000 )


      isym =  6     180 deg rotation - cart. axis [1,-1,0]       

 cryst.   s( 6) = (     0         -1          0      )
                  (    -1          0          0      )
                  (     0          0         -1      )

 cart.    s( 6) = (  0.0000000 -1.0000000  0.0000000 )
                  ( -1.0000000  0.0000000  0.0000000 )
                  (  0.0000000  0.0000000 -1.0000000 )


      isym =  7      90 deg rotation - cart. axis [0,0,-1]       

 cryst.   s( 7) = (     0         -1          0      )
                  (     1          0          0      )
                  (     0          0          1      )

 cart.    s( 7) = (  0.0000000  1.0000000  0.0000000 )
                  ( -1.0000000  0.0000000  0.0000000 )
                  (  0.0000000  0.0000000  1.0000000 )


      isym =  8      90 deg rotation - cart. axis [0,0,1]        

 cryst.   s( 8) = (     0          1          0      )
                  (    -1          0          0      )
                  (     0          0          1      )

 cart.    s( 8) = (  0.0000000 -1.0000000  0.0000000 )
                  (  1.0000000  0.0000000  0.0000000 )
                  (  0.0000000  0.0000000  1.0000000 )


      isym =  9     180 deg rotation - cart. axis [1,0,1]        

 cryst.   s( 9) = (     0          0          1      )
                  (     0         -1          0      )
                  (     1          0          0      )

 cart.    s( 9) = (  0.0000000  0.0000000  1.0000000 )
                  (  0.0000000 -1.0000000  0.0000000 )
                  (  1.0000000  0.0000000  0.0000000 )


      isym = 10     180 deg rotation - cart. axis [-1,0,1]       

 cryst.   s(10) = (     0          0         -1      )
                  (     0         -1          0      )
                  (    -1          0          0      )

 cart.    s(10) = (  0.0000000  0.0000000 -1.0000000 )
                  (  0.0000000 -1.0000000  0.0000000 )
                  ( -1.0000000  0.0000000  0.0000000 )


      isym = 11      90 deg rotation - cart. axis [0,1,0]        

 cryst.   s(11) = (     0          0         -1      )
                  (     0          1          0      )
                  (     1          0          0      )

 cart.    s(11) = (  0.0000000  0.0000000  1.0000000 )
                  (  0.0000000  1.0000000  0.0000000 )
                  ( -1.0000000  0.0000000  0.0000000 )


      isym = 12      90 deg rotation - cart. axis [0,-1,0]       

 cryst.   s(12) = (     0          0          1      )
                  (     0          1          0      )
                  (    -1          0          0      )

 cart.    s(12) = (  0.0000000  0.0000000 -1.0000000 )
                  (  0.0000000  1.0000000  0.0000000 )
                  (  1.0000000  0.0000000  0.0000000 )


      isym = 13     180 deg rotation - cart. axis [0,1,1]        

 cryst.   s(13) = (    -1          0          0      )
                  (     0          0          1      )
                  (     0          1          0      )

 cart.    s(13) = ( -1.0000000  0.0000000  0.0000000 )
                  (  0.0000000  0.0000000  1.0000000 )
                  (  0.0000000  1.0000000  0.0000000 )


      isym = 14     180 deg rotation - cart. axis [0,1,-1]       

 cryst.   s(14) = (    -1          0          0      )
                  (     0          0         -1      )
                  (     0         -1          0      )

 cart.    s(14) = ( -1.0000000  0.0000000  0.0000000 )
                  (  0.0000000  0.0000000 -1.0000000 )
                  (  0.0000000 -1.0000000  0.0000000 )


      isym = 15      90 deg rotation - cart. axis [-1,0,0]       

 cryst.   s(15) = (     1          0          0      )
                  (     0          0         -1      )
                  (     0          1          0      )

 cart.    s(15) = (  1.0000000  0.0000000  0.0000000 )
                  (  0.0000000  0.0000000  1.0000000 )
                  (  0.0000000 -1.0000000  0.0000000 )


      isym = 16      90 deg rotation - cart. axis [1,0,0]        

 cryst.   s(16) = (     1          0          0      )
                  (     0          0          1      )
                  (     0         -1          0      )

 cart.    s(16) = (  1.0000000  0.0000000  0.0000000 )
                  (  0.0000000  0.0000000 -1.0000000 )
                  (  0.0000000  1.0000000  0.0000000 )


      isym = 17     120 deg rotation - cart. axis [-1,-1,-1]     

 cryst.   s(17) = (     0          0          1      )
                  (     1          0          0      )
                  (     0          1          0      )

 cart.    s(17) = (  0.0000000  1.0000000  0.0000000 )
                  (  0.0000000  0.0000000  1.0000000 )
                  (  1.0000000  0.0000000  0.0000000 )


      isym = 18     120 deg rotation - cart. axis [-1,1,1]       

 cryst.   s(18) = (     0          0         -1      )
                  (    -1          0          0      )
                  (     0          1          0      )

 cart.    s(18) = (  0.0000000 -1.0000000  0.0000000 )
                  (  0.0000000  0.0000000  1.0000000 )
                  ( -1.0000000  0.0000000  0.0000000 )


      isym = 19     120 deg rotation - cart. axis [1,1,-1]       

 cryst.   s(19) = (     0          0         -1      )
                  (     1          0          0      )
                  (     0         -1          0      )

 cart.    s(19) = (  0.0000000  1.0000000  0.0000000 )
                  (  0.0000000  0.0000000 -1.0000000 )
                  ( -1.0000000  0.0000000  0.0000000 )


      isym = 20     120 deg rotation - cart. axis [1,-1,1]       

 cryst.   s(20) = (     0          0          1      )
                  (    -1          0          0      )
                  (     0         -1          0      )

 cart.    s(20) = (  0.0000000 -1.0000000  0.0000000 )
                  (  0.0000000  0.0000000 -1.0000000 )
                  (  1.0000000  0.0000000  0.0000000 )


      isym = 21     120 deg rotation - cart. axis [1,1,1]        

 cryst.   s(21) = (     0          1          0      )
                  (     0          0          1      )
                  (     1          0          0      )

 cart.    s(21) = (  0.0000000  0.0000000  1.0000000 )
                  (  1.0000000  0.0000000  0.0000000 )
                  (  0.0000000  1.0000000  0.0000000 )


      isym = 22     120 deg rotation - cart. axis [-1,1,-1]      

 cryst.   s(22) = (     0         -1          0      )
                  (     0          0         -1      )
                  (     1          0          0      )

 cart.    s(22) = (  0.0000000  0.0000000  1.0000000 )
                  ( -1.0000000  0.0000000  0.0000000 )
                  (  0.0000000 -1.0000000  0.0000000 )


      isym = 23     120 deg rotation - cart. axis [1,-1,-1]      

 cryst.   s(23) = (     0         -1          0      )
                  (     0          0          1      )
                  (    -1          0          0      )

 cart.    s(23) = (  0.0000000  0.0000000 -1.0000000 )
                  ( -1.0000000  0.0000000  0.0000000 )
                  (  0.0000000  1.0000000  0.0000000 )


      isym = 24     120 deg rotation - cart. axis [-1,-1,1]      

 cryst.   s(24) = (     0          1          0      )
                  (     0          0         -1      )
                  (    -1          0          0      )

 cart.    s(24) = (  0.0000000  0.0000000 -1.0000000 )
                  (  1.0000000  0.0000000  0.0000000 )
                  (  0.0000000 -1.0000000  0.0000000 )


      isym = 25     inversion                                    

 cryst.   s(25) = (    -1          0          0      )
                  (     0         -1          0      )
                  (     0          0         -1      )

 cart.    s(25) = ( -1.0000000  0.0000000  0.0000000 )
                  (  0.0000000 -1.0000000  0.0000000 )
                  (  0.0000000  0.0000000 -1.0000000 )


      isym = 26     inv. 180 deg rotation - cart. axis [0,0,1]   

 cryst.   s(26) = (     1          0          0      )
                  (     0          1          0      )
                  (     0          0         -1      )

 cart.    s(26) = (  1.0000000  0.0000000  0.0000000 )
                  (  0.0000000  1.0000000  0.0000000 )
                  (  0.0000000  0.0000000 -1.0000000 )


      isym = 27     inv. 180 deg rotation - cart. axis [0,1,0]   

 cryst.   s(27) = (     1          0          0      )
                  (     0         -1          0      )
                  (     0          0          1      )

 cart.    s(27) = (  1.0000000  0.0000000  0.0000000 )
                  (  0.0000000 -1.0000000  0.0000000 )
                  (  0.0000000  0.0000000  1.0000000 )


      isym = 28     inv. 180 deg rotation - cart. axis [1,0,0]   

 cryst.   s(28) = (    -1          0          0      )
                  (     0          1          0      )
                  (     0          0          1      )

 cart.    s(28) = ( -1.0000000  0.0000000  0.0000000 )
                  (  0.0000000  1.0000000  0.0000000 )
                  (  0.0000000  0.0000000  1.0000000 )


      isym = 29     inv. 180 deg rotation - cart. axis [1,1,0]   

 cryst.   s(29) = (     0         -1          0      )
                  (    -1          0          0      )
                  (     0          0          1      )

 cart.    s(29) = (  0.0000000 -1.0000000  0.0000000 )
                  ( -1.0000000  0.0000000  0.0000000 )
                  (  0.0000000  0.0000000  1.0000000 )


      isym = 30     inv. 180 deg rotation - cart. axis [1,-1,0]  

 cryst.   s(30) = (     0          1          0      )
                  (     1          0          0      )
                  (     0          0          1      )

 cart.    s(30) = (  0.0000000  1.0000000  0.0000000 )
                  (  1.0000000  0.0000000  0.0000000 )
                  (  0.0000000  0.0000000  1.0000000 )


      isym = 31     inv.  90 deg rotation - cart. axis [0,0,-1]  

 cryst.   s(31) = (     0          1          0      )
                  (    -1          0          0      )
                  (     0          0         -1      )

 cart.    s(31) = (  0.0000000 -1.0000000  0.0000000 )
                  (  1.0000000  0.0000000  0.0000000 )
                  (  0.0000000  0.0000000 -1.0000000 )


      isym = 32     inv.  90 deg rotation - cart. axis [0,0,1]   

 cryst.   s(32) = (     0         -1          0      )
                  (     1          0          0      )
                  (     0          0         -1      )

 cart.    s(32) = (  0.0000000  1.0000000  0.0000000 )
                  ( -1.0000000  0.0000000  0.0000000 )
                  (  0.0000000  0.0000000 -1.0000000 )


      isym = 33     inv. 180 deg rotation - cart. axis [1,0,1]   

 cryst.   s(33) = (     0          0         -1      )
                  (     0          1          0      )
                  (    -1          0          0      )

 cart.    s(33) = (  0.0000000  0.0000000 -1.0000000 )
                  (  0.0000000  1.0000000  0.0000000 )
                  ( -1.0000000  0.0000000  0.0000000 )


      isym = 34     inv. 180 deg rotation - cart. axis [-1,0,1]  

 cryst.   s(34) = (     0          0          1      )
                  (     0          1          0      )
                  (     1          0          0      )

 cart.    s(34) = (  0.0000000  0.0000000  1.0000000 )
                  (  0.0000000  1.0000000  0.0000000 )
                  (  1.0000000  0.0000000  0.0000000 )


      isym = 35     inv.  90 deg rotation - cart. axis [0,1,0]   

 cryst.   s(35) = (     0          0          1      )
                  (     0         -1          0      )
                  (    -1          0          0      )

 cart.    s(35) = (  0.0000000  0.0000000 -1.0000000 )
                  (  0.0000000 -1.0000000  0.0000000 )
                  (  1.0000000  0.0000000  0.0000000 )


      isym = 36     inv.  90 deg rotation - cart. axis [0,-1,0]  

 cryst.   s(36) = (     0          0         -1      )
                  (     0         -1          0      )
                  (     1          0          0      )

 cart.    s(36) = (  0.0000000  0.0000000  1.0000000 )
                  (  0.0000000 -1.0000000  0.0000000 )
                  ( -1.0000000  0.0000000  0.0000000 )


      isym = 37     inv. 180 deg rotation - cart. axis [0,1,1]   

 cryst.   s(37) = (     1          0          0      )
                  (     0          0         -1      )
                  (     0         -1          0      )

 cart.    s(37) = (  1.0000000  0.0000000  0.0000000 )
                  (  0.0000000  0.0000000 -1.0000000 )
                  (  0.0000000 -1.0000000  0.0000000 )


      isym = 38     inv. 180 deg rotation - cart. axis [0,1,-1]  

 cryst.   s(38) = (     1          0          0      )
                  (     0          0          1      )
                  (     0          1          0      )

 cart.    s(38) = (  1.0000000  0.0000000  0.0000000 )
                  (  0.0000000  0.0000000  1.0000000 )
                  (  0.0000000  1.0000000  0.0000000 )


      isym = 39     inv.  90 deg rotation - cart. axis [-1,0,0]  

 cryst.   s(39) = (    -1          0          0      )
                  (     0          0          1      )
                  (     0         -1          0      )

 cart.    s(39) = ( -1.0000000  0.0000000  0.0000000 )
                  (  0.0000000  0.0000000 -1.0000000 )
                  (  0.0000000  1.0000000  0.0000000 )


      isym = 40     inv.  90 deg rotation - cart. axis [1,0,0]   

 cryst.   s(40) = (    -1          0          0      )
                  (     0          0         -1      )
                  (     0          1          0      )

 cart.    s(40) = ( -1.0000000  0.0000000  0.0000000 )
                  (  0.0000000  0.0000000  1.0000000 )
                  (  0.0000000 -1.0000000  0.0000000 )


      isym = 41     inv. 120 deg rotation - cart. axis [-1,-1,-1]

 cryst.   s(41) = (     0          0         -1      )
                  (    -1          0          0      )
                  (     0         -1          0      )

 cart.    s(41) = (  0.0000000 -1.0000000  0.0000000 )
                  (  0.0000000  0.0000000 -1.0000000 )
                  ( -1.0000000  0.0000000  0.0000000 )


      isym = 42     inv. 120 deg rotation - cart. axis [-1,1,1]  

 cryst.   s(42) = (     0          0          1      )
                  (     1          0          0      )
                  (     0         -1          0      )

 cart.    s(42) = (  0.0000000  1.0000000  0.0000000 )
                  (  0.0000000  0.0000000 -1.0000000 )
                  (  1.0000000  0.0000000  0.0000000 )


      isym = 43     inv. 120 deg rotation - cart. axis [1,1,-1]  

 cryst.   s(43) = (     0          0          1      )
                  (    -1          0          0      )
                  (     0          1          0      )

 cart.    s(43) = (  0.0000000 -1.0000000  0.0000000 )
                  (  0.0000000  0.0000000  1.0000000 )
                  (  1.0000000  0.0000000  0.0000000 )


      isym = 44     inv. 120 deg rotation - cart. axis [1,-1,1]  

 cryst.   s(44) = (     0          0         -1      )
                  (     1          0          0      )
                  (     0          1          0      )

 cart.    s(44) = (  0.0000000  1.0000000  0.0000000 )
                  (  0.0000000  0.0000000  1.0000000 )
                  ( -1.0000000  0.0000000  0.0000000 )


      isym = 45     inv. 120 deg rotation - cart. axis [1,1,1]   

 cryst.   s(45) = (     0         -1          0      )
                  (     0          0         -1      )
                  (    -1          0          0      )

 cart.    s(45) = (  0.0000000  0.0000000 -1.0000000 )
                  ( -1.0000000  0.0000000  0.0000000 )
                  (  0.0000000 -1.0000000  0.0000000 )


      isym = 46     inv. 120 deg rotation - cart. axis [-1,1,-1] 

 cryst.   s(46) = (     0          1          0      )
                  (     0          0          1      )
                  (    -1          0          0      )

 cart.    s(46) = (  0.0000000  0.0000000 -1.0000000 )
                  (  1.0000000  0.0000000  0.0000000 )
                  (  0.0000000  1.0000000  0.0000000 )


      isym = 47     inv. 120 deg rotation - cart. axis [1,-1,-1] 

 cryst.   s(47) = (     0          1          0      )
                  (     0          0         -1      )
                  (     1          0          0      )

 cart.    s(47) = (  0.0000000  0.0000000  1.0000000 )
                  (  1.0000000  0.0000000  0.0000000 )
                  (  0.0000000 -1.0000000  0.0000000 )


      isym = 48     inv. 120 deg rotation - cart. axis [-1,-1,1] 

 cryst.   s(48) = (     0         -1          0      )
                  (     0          0          1      )
                  (     1          0          0      )

 cart.    s(48) = (  0.0000000  0.0000000  1.0000000 )
                  ( -1.0000000  0.0000000  0.0000000 )
                  (  0.0000000  1.0000000  0.0000000 )


   Cartesian axes

     site n.     atom                  positions (alat units)
         1           W   tau(   1) = (   0.5000000   0.5000000   0.5000000  )

   Crystallographic axes

     site n.     atom                  positions (cryst. coord.)
         1           W   tau(   1) = (  0.5000000  0.5000000  0.5000000  )

     number of k points=     1
                       cart. coord. in units 2pi/alat
        k(    1) = (   0.0000000   0.0000000   0.0000000), wk =   1.0000000

                       cryst. coord.
        k(    1) = (   0.0000000   0.0000000   0.0000000), wk =   1.0000000

     Dense  grid:  9611109 G-vectors     FFT dimensions: ( 360, 360, 360)

     Dynamical RAM for                 wfc:       6.87 MB

     Dynamical RAM for     wfc (w. buffer):      20.62 MB

     Dynamical RAM for           str. fact:       4.58 MB

     Dynamical RAM for           local pot:       0.00 MB

     Dynamical RAM for          nlocal pot:       7.45 MB

     Dynamical RAM for                qrad:       5.33 MB

     Dynamical RAM for          rho,v,vnew:      98.69 MB

     Dynamical RAM for               rhoin:      32.90 MB

     Dynamical RAM for            rho*nmix:     146.66 MB

     Dynamical RAM for           G-vectors:      19.48 MB

     Dynamical RAM for          h,s,v(r/c):       0.00 MB

     Dynamical RAM for          <psi|beta>:       0.00 MB

     Dynamical RAM for                 psi:      27.50 MB

     Dynamical RAM for                hpsi:      27.50 MB

     Dynamical RAM for      wfcinit/wfcrot:      18.34 MB

     Estimated static dynamical RAM per process >     416.06 MB

     Estimated max dynamical RAM per process >     471.05 MB

     Estimated total dynamical RAM >      14.72 GB
     Generating pointlists ...
     new r_m :   0.4125 (alat units)  9.3541 (a.u.) for type    1

     Initial potential from superposition of free atoms

     starting charge   11.30112, renormalised to   14.00000

     negative rho (up, down):  7.383E-03 0.000E+00
     Starting wfcs are   16 randomized atomic wfcs

     total cpu time spent up to now is       14.6 secs

     Self-consistent Calculation

     iteration #  1     ecut=   530.00 Ry     beta= 0.70
     Davidson diagonalization with overlap
     ethr =  1.00E-02,  avg # of iterations = 13.5

     negative rho (up, down):  2.663E-06 2.376E-02

     total cpu time spent up to now is       40.2 secs

     total energy              =    -127.37875616 Ry
     Harris-Foulkes estimate   =    -137.13757641 Ry
     estimated scf accuracy    <      12.61306495 Ry

     total magnetization       =     4.00 Bohr mag/cell
     absolute magnetization    =     4.09 Bohr mag/cell

     iteration #  2     ecut=   530.00 Ry     beta= 0.70
     Davidson diagonalization with overlap
     ethr =  1.00E-02,  avg # of iterations =  7.5

     negative rho (up, down):  1.556E-06 2.317E-02

     total cpu time spent up to now is       60.4 secs

     total energy              =    -134.68713868 Ry
     Harris-Foulkes estimate   =    -138.89271649 Ry
     estimated scf accuracy    <       7.28835222 Ry

     total magnetization       =     4.00 Bohr mag/cell
     absolute magnetization    =     4.00 Bohr mag/cell

     iteration #  3     ecut=   530.00 Ry     beta= 0.70
     Davidson diagonalization with overlap
     ethr =  1.00E-02,  avg # of iterations =  2.0

     negative rho (up, down):  1.380E-06 2.309E-02

     total cpu time spent up to now is       72.8 secs

     total energy              =    -134.93841594 Ry
     Harris-Foulkes estimate   =    -135.12080833 Ry
     estimated scf accuracy    <       1.30136867 Ry

     total magnetization       =     4.00 Bohr mag/cell
     absolute magnetization    =     4.20 Bohr mag/cell

     iteration #  4     ecut=   530.00 Ry     beta= 0.70
     Davidson diagonalization with overlap
     ethr =  9.30E-03,  avg # of iterations =  1.0

     negative rho (up, down):  1.350E-06 2.332E-02

     total cpu time spent up to now is       84.0 secs

     total energy              =    -135.01220800 Ry
     Harris-Foulkes estimate   =    -134.96089445 Ry
     estimated scf accuracy    <       0.79968363 Ry

     total magnetization       =     4.00 Bohr mag/cell
     absolute magnetization    =     4.29 Bohr mag/cell

     iteration #  5     ecut=   530.00 Ry     beta= 0.70
     Davidson diagonalization with overlap
     ethr =  5.71E-03,  avg # of iterations =  1.0

     negative rho (up, down):  5.218E-06 3.275E-02

     total cpu time spent up to now is       95.3 secs

     total energy              =    -134.68180529 Ry
     Harris-Foulkes estimate   =    -135.03036086 Ry
     estimated scf accuracy    <       1.08756638 Ry

     total magnetization       =     4.00 Bohr mag/cell
     absolute magnetization    =     4.19 Bohr mag/cell

     iteration #  6     ecut=   530.00 Ry     beta= 0.70
     Davidson diagonalization with overlap
     ethr =  5.71E-03,  avg # of iterations =  1.5

     negative rho (up, down):  3.007E-06 3.431E-02

     total cpu time spent up to now is      106.9 secs

     total energy              =    -134.63671065 Ry
     Harris-Foulkes estimate   =    -134.75301952 Ry
     estimated scf accuracy    <       0.60226115 Ry

     total magnetization       =     4.00 Bohr mag/cell
     absolute magnetization    =     4.20 Bohr mag/cell

     iteration #  7     ecut=   530.00 Ry     beta= 0.70
     Davidson diagonalization with overlap
     ethr =  4.30E-03,  avg # of iterations =  1.0

     negative rho (up, down):  2.964E-06 3.432E-02

     total cpu time spent up to now is      118.3 secs

     total energy              =    -134.67474026 Ry
     Harris-Foulkes estimate   =    -134.67496749 Ry
     estimated scf accuracy    <       0.31787270 Ry

     total magnetization       =     4.00 Bohr mag/cell
     absolute magnetization    =     4.07 Bohr mag/cell

     iteration #  8     ecut=   530.00 Ry     beta= 0.70
     Davidson diagonalization with overlap
     ethr =  2.27E-03,  avg # of iterations =  2.0

     negative rho (up, down):  3.035E-06 3.434E-02

     total cpu time spent up to now is      130.3 secs

     total energy              =    -134.68680929 Ry
     Harris-Foulkes estimate   =    -134.68815050 Ry
     estimated scf accuracy    <       0.29903293 Ry

     total magnetization       =     4.00 Bohr mag/cell
     absolute magnetization    =     4.02 Bohr mag/cell

     iteration #  9     ecut=   530.00 Ry     beta= 0.70
     Davidson diagonalization with overlap
     ethr =  2.14E-03,  avg # of iterations =  1.0

     negative rho (up, down):  3.045E-06 3.436E-02

     total cpu time spent up to now is      141.9 secs

     total energy              =    -134.68827434 Ry
     Harris-Foulkes estimate   =    -134.68886351 Ry
     estimated scf accuracy    <       0.29758802 Ry

     total magnetization       =     4.00 Bohr mag/cell
     absolute magnetization    =     4.02 Bohr mag/cell

     iteration # 10     ecut=   530.00 Ry     beta= 0.70
     Davidson diagonalization with overlap
     ethr =  2.13E-03,  avg # of iterations =  1.0

     negative rho (up, down):  1.795E-06 2.771E-01

     total cpu time spent up to now is      153.2 secs

     total energy              =    -134.65003912 Ry
     Harris-Foulkes estimate   =    -134.68949774 Ry
     estimated scf accuracy    <       0.29688359 Ry

     total magnetization       =     4.00 Bohr mag/cell
     absolute magnetization    =     4.02 Bohr mag/cell

     iteration # 11     ecut=   530.00 Ry     beta= 0.70
     Davidson diagonalization with overlap
     ethr =  2.12E-03,  avg # of iterations =  1.0

     negative rho (up, down):  2.397E-05 3.588E-01

     total cpu time spent up to now is      164.5 secs

     total energy              =    -134.64336264 Ry
     Harris-Foulkes estimate   =    -134.65869519 Ry
     estimated scf accuracy    <       0.16364525 Ry

     total magnetization       =     4.00 Bohr mag/cell
     absolute magnetization    =     4.01 Bohr mag/cell

     iteration # 12     ecut=   530.00 Ry     beta= 0.70
     Davidson diagonalization with overlap
     ethr =  1.17E-03,  avg # of iterations =  1.0

     negative rho (up, down):  3.607E-06 2.659E-01

     total cpu time spent up to now is      175.8 secs

     total energy              =    -134.64635344 Ry
     Harris-Foulkes estimate   =    -134.64929096 Ry
     estimated scf accuracy    <       0.07369238 Ry

     total magnetization       =     4.00 Bohr mag/cell
     absolute magnetization    =     4.03 Bohr mag/cell

     iteration # 13     ecut=   530.00 Ry     beta= 0.70
     Davidson diagonalization with overlap
     ethr =  5.26E-04,  avg # of iterations =  2.0

     negative rho (up, down):  9.990E-04 6.689E-01

     total cpu time spent up to now is      187.4 secs

     total energy              =    -134.65266736 Ry
     Harris-Foulkes estimate   =    -134.65477964 Ry
     estimated scf accuracy    <       0.08325657 Ry

     total magnetization       =     4.00 Bohr mag/cell
     absolute magnetization    =     4.02 Bohr mag/cell

     iteration # 14     ecut=   530.00 Ry     beta= 0.70
     Davidson diagonalization with overlap
     ethr =  5.26E-04,  avg # of iterations =  2.0

     negative rho (up, down):  4.960E-05 3.509E-01

     total cpu time spent up to now is      199.2 secs

     total energy              =    -134.67250054 Ry
     Harris-Foulkes estimate   =    -134.67671095 Ry
     estimated scf accuracy    <       0.26924710 Ry

     total magnetization       =     4.00 Bohr mag/cell
     absolute magnetization    =     4.05 Bohr mag/cell

     iteration # 15     ecut=   530.00 Ry     beta= 0.70
     Davidson diagonalization with overlap
     ethr =  5.26E-04,  avg # of iterations =  1.0

     negative rho (up, down):  7.082E-05 4.105E-01

     total cpu time spent up to now is      210.5 secs

     total energy              =    -134.67141187 Ry
     Harris-Foulkes estimate   =    -134.67792286 Ry
     estimated scf accuracy    <       0.13146101 Ry

     total magnetization       =     4.00 Bohr mag/cell
     absolute magnetization    =     4.11 Bohr mag/cell

     iteration # 16     ecut=   530.00 Ry     beta= 0.70
     Davidson diagonalization with overlap
     ethr =  5.26E-04,  avg # of iterations =  1.0

     negative rho (up, down):  5.643E-07 2.787E-02

     total cpu time spent up to now is      222.0 secs

     total energy              =    -134.66648064 Ry
     Harris-Foulkes estimate   =    -134.67196999 Ry
     estimated scf accuracy    <       0.12871274 Ry

     total magnetization       =     4.00 Bohr mag/cell
     absolute magnetization    =     4.09 Bohr mag/cell

     iteration # 17     ecut=   530.00 Ry     beta= 0.70
     Davidson diagonalization with overlap
     ethr =  5.26E-04,  avg # of iterations =  2.0

     negative rho (up, down):  2.654E-02 1.800E-01

     total cpu time spent up to now is      233.7 secs

     total energy              =    -134.66728064 Ry
     Harris-Foulkes estimate   =    -134.68226928 Ry
     estimated scf accuracy    <       0.07293694 Ry

     total magnetization       =     4.00 Bohr mag/cell
     absolute magnetization    =     4.01 Bohr mag/cell

     iteration # 18     ecut=   530.00 Ry     beta= 0.70
     Davidson diagonalization with overlap
     ethr =  5.21E-04,  avg # of iterations =  1.0

     negative rho (up, down):  2.921E-03 4.684E-01

     total cpu time spent up to now is      244.9 secs

     total energy              =    -134.68264065 Ry
     Harris-Foulkes estimate   =    -134.68358703 Ry
     estimated scf accuracy    <       0.04664989 Ry

     total magnetization       =     4.00 Bohr mag/cell
     absolute magnetization    =     4.05 Bohr mag/cell

     iteration # 19     ecut=   530.00 Ry     beta= 0.70
     Davidson diagonalization with overlap
     ethr =  3.33E-04,  avg # of iterations =  1.0

     negative rho (up, down):  1.320E-08 4.510E-03

     total cpu time spent up to now is      256.3 secs

     total energy              =    -134.68533101 Ry
     Harris-Foulkes estimate   =    -134.68399870 Ry
     estimated scf accuracy    <       0.02346485 Ry

     total magnetization       =     4.00 Bohr mag/cell
     absolute magnetization    =     4.06 Bohr mag/cell

     iteration # 20     ecut=   530.00 Ry     beta= 0.70
     Davidson diagonalization with overlap
     ethr =  1.68E-04,  avg # of iterations =  1.0

     negative rho (up, down):  6.253E-09 3.831E-03

     total cpu time spent up to now is      267.8 secs

     total energy              =    -134.68784280 Ry
     Harris-Foulkes estimate   =    -134.68635595 Ry
     estimated scf accuracy    <       0.01185700 Ry

     total magnetization       =     4.00 Bohr mag/cell
     absolute magnetization    =     4.09 Bohr mag/cell

     iteration # 21     ecut=   530.00 Ry     beta= 0.70
     Davidson diagonalization with overlap
     ethr =  8.47E-05,  avg # of iterations =  2.0

     negative rho (up, down):  2.146E-08 3.487E-03

     total cpu time spent up to now is      279.7 secs

     total energy              =    -134.69033001 Ry
     Harris-Foulkes estimate   =    -134.68858648 Ry
     estimated scf accuracy    <       0.00683524 Ry

     total magnetization       =     4.00 Bohr mag/cell
     absolute magnetization    =     4.13 Bohr mag/cell

     iteration # 22     ecut=   530.00 Ry     beta= 0.70
     Davidson diagonalization with overlap
     ethr =  4.88E-05,  avg # of iterations =  2.0

     negative rho (up, down):  1.284E-09 1.256E-03

     total cpu time spent up to now is      291.7 secs

     total energy              =    -134.69345043 Ry
     Harris-Foulkes estimate   =    -134.69126601 Ry
     estimated scf accuracy    <       0.00254369 Ry

     total magnetization       =     4.00 Bohr mag/cell
     absolute magnetization    =     4.17 Bohr mag/cell

     iteration # 23     ecut=   530.00 Ry     beta= 0.70
     Davidson diagonalization with overlap
     ethr =  1.82E-05,  avg # of iterations =  8.0

     negative rho (up, down):  9.856E-09 5.409E-04

     total cpu time spent up to now is      306.7 secs

     total energy              =    -134.69451137 Ry
     Harris-Foulkes estimate   =    -134.69394587 Ry
     estimated scf accuracy    <       0.00263452 Ry

     total magnetization       =     4.00 Bohr mag/cell
     absolute magnetization    =     4.20 Bohr mag/cell

     iteration # 24     ecut=   530.00 Ry     beta= 0.70
     Davidson diagonalization with overlap
     ethr =  1.82E-05,  avg # of iterations =  1.0

     negative rho (up, down):  1.315E-08 7.401E-04

     total cpu time spent up to now is      318.2 secs

     total energy              =    -134.69618795 Ry
     Harris-Foulkes estimate   =    -134.69466712 Ry
     estimated scf accuracy    <       0.00212228 Ry

     total magnetization       =     4.00 Bohr mag/cell
     absolute magnetization    =     4.22 Bohr mag/cell

     iteration # 25     ecut=   530.00 Ry     beta= 0.70
     Davidson diagonalization with overlap
     ethr =  1.52E-05,  avg # of iterations =  4.0

     negative rho (up, down):  1.147E-08 9.460E-04

     total cpu time spent up to now is      330.8 secs

     total energy              =    -134.69724088 Ry
     Harris-Foulkes estimate   =    -134.69674939 Ry
     estimated scf accuracy    <       0.00091047 Ry

     total magnetization       =     4.00 Bohr mag/cell
     absolute magnetization    =     4.27 Bohr mag/cell

     iteration # 26     ecut=   530.00 Ry     beta= 0.70
     Davidson diagonalization with overlap
     ethr =  6.50E-06,  avg # of iterations =  4.0

     negative rho (up, down):  4.196E-10 6.468E-04

     total cpu time spent up to now is      344.8 secs

     total energy              =    -134.69780362 Ry
     Harris-Foulkes estimate   =    -134.69739093 Ry
     estimated scf accuracy    <       0.00052984 Ry

     total magnetization       =     4.00 Bohr mag/cell
     absolute magnetization    =     4.29 Bohr mag/cell

     iteration # 27     ecut=   530.00 Ry     beta= 0.70
     Davidson diagonalization with overlap
     ethr =  3.78E-06,  avg # of iterations =  3.5

     negative rho (up, down):  1.442E-11 2.940E-04

     total cpu time spent up to now is      359.3 secs

     total energy              =    -134.69857749 Ry
     Harris-Foulkes estimate   =    -134.69855794 Ry
     estimated scf accuracy    <       0.00003501 Ry

     total magnetization       =     4.00 Bohr mag/cell
     absolute magnetization    =     4.35 Bohr mag/cell

     iteration # 28     ecut=   530.00 Ry     beta= 0.70
     Davidson diagonalization with overlap
     ethr =  2.50E-07,  avg # of iterations =  3.0

     negative rho (up, down):  0.000E+00 1.447E-02

     total cpu time spent up to now is      372.3 secs

     total energy              =    -134.69860277 Ry
     Harris-Foulkes estimate   =    -134.69859183 Ry
     estimated scf accuracy    <       0.00001348 Ry

     total magnetization       =     4.00 Bohr mag/cell
     absolute magnetization    =     4.35 Bohr mag/cell

     iteration # 29     ecut=   530.00 Ry     beta= 0.70
     Davidson diagonalization with overlap
     ethr =  9.63E-08,  avg # of iterations =  3.5

     negative rho (up, down):  0.000E+00 7.897E-03

     total cpu time spent up to now is      385.1 secs

     total energy              =    -134.69860826 Ry
     Harris-Foulkes estimate   =    -134.69860775 Ry
     estimated scf accuracy    <       0.00000381 Ry

     total magnetization       =     4.00 Bohr mag/cell
     absolute magnetization    =     4.36 Bohr mag/cell

     iteration # 30     ecut=   530.00 Ry     beta= 0.70
     Davidson diagonalization with overlap
     ethr =  2.72E-08,  avg # of iterations =  3.0
 
     Magnetic moment per site:
     atom:    1    charge:   13.9994    magn:    4.0001    constr:    0.0000

     total cpu time spent up to now is      397.1 secs

     End of self-consistent calculation

 ------ SPIN UP ------------


          k = 0.0000 0.0000 0.0000 (****** PWs)   bands (ev):

   -77.8175 -42.9035 -42.8752 -42.8746  -5.7623  -4.7922  -4.7910  -4.7731
    -4.7730  -3.9252  -1.2468  -1.2465

     occupation numbers 
     1.0000   1.0000   1.0000   1.0000   1.0000   1.0000   1.0000   1.0000
     1.0000   0.0000   0.0000   0.0000

 ------ SPIN DOWN ----------


          k = 0.0000 0.0000 0.0000 (****** PWs)   bands (ev):

   -76.2711 -41.3583 -40.5166 -40.5146  -4.4838  -2.8890  -2.2456  -2.2452
    -1.7651  -1.7642  -0.8700  -0.2241

     occupation numbers 
     1.0000   1.0000   1.0000   1.0000   1.0000   0.0000   0.0000   0.0000
     0.0000   0.0000   0.0000   0.0000

     highest occupied, lowest unoccupied level (ev):    -4.4838   -3.9252

!    total energy              =    -134.69860984 Ry
     Harris-Foulkes estimate   =    -134.69860964 Ry
     estimated scf accuracy    <       0.00000031 Ry

     The total energy is the sum of the following terms:

     one-electron contribution =    -177.77936958 Ry
     hartree contribution      =      82.76486980 Ry
     xc contribution           =     -15.16070178 Ry
     ewald contribution        =     -24.52340829 Ry

     total magnetization       =     4.00 Bohr mag/cell
     absolute magnetization    =     4.36 Bohr mag/cell

     convergence has been achieved in  30 iterations

     Writing output data file pwscf.save/
 
     init_run     :     13.82s CPU     14.41s WALL (       1 calls)
     electrons    :    373.34s CPU    383.78s WALL (       1 calls)

     Called by init_run:
     wfcinit      :      2.98s CPU      3.10s WALL (       1 calls)
     wfcinit:atom :      0.04s CPU      0.06s WALL (       2 calls)
     wfcinit:wfcr :      2.86s CPU      2.94s WALL (       2 calls)
     potinit      :      3.60s CPU      3.87s WALL (       1 calls)
     hinit0       :      0.43s CPU      0.52s WALL (       1 calls)

     Called by electrons:
     c_bands      :    179.22s CPU    181.63s WALL (      30 calls)
     sum_band     :     62.39s CPU     62.56s WALL (      30 calls)
     v_of_rho     :    100.81s CPU    105.31s WALL (      31 calls)
     v_h          :      7.50s CPU      7.53s WALL (      31 calls)
     v_xc         :     93.31s CPU     97.79s WALL (      31 calls)
     mix_rho      :     30.53s CPU     33.23s WALL (      30 calls)

     Called by c_bands:
     init_us_2    :      1.71s CPU      1.73s WALL (     122 calls)
     regterg      :    176.09s CPU    178.48s WALL (      60 calls)

     Called by sum_band:

     Called by *egterg:
     h_psi        :    164.80s CPU    165.19s WALL (     219 calls)
     g_psi        :      0.45s CPU      0.45s WALL (     157 calls)
     rdiaghg      :      0.24s CPU      0.25s WALL (     217 calls)
     regterg:over :      2.95s CPU      2.95s WALL (     157 calls)
     regterg:upda :      5.83s CPU      5.90s WALL (     157 calls)
     regterg:last :      1.94s CPU      1.94s WALL (      66 calls)
     rdiaghg:chol :      0.05s CPU      0.05s WALL (     217 calls)
     rdiaghg:inve :      0.01s CPU      0.01s WALL (     217 calls)
     rdiaghg:para :      0.03s CPU      0.03s WALL (     434 calls)

     Called by h_psi:
     h_psi:pot    :    163.85s CPU    164.24s WALL (     219 calls)
     h_psi:calbec :      0.86s CPU      0.88s WALL (     219 calls)
     vloc_psi     :    161.76s CPU    162.13s WALL (     219 calls)
     add_vuspsi   :      1.23s CPU      1.23s WALL (     219 calls)

     General routines
     calbec       :      0.85s CPU      0.88s WALL (     219 calls)
     fft          :     85.60s CPU     86.41s WALL (     461 calls)
     ffts         :      8.71s CPU      8.72s WALL (      60 calls)
     fftw         :    159.30s CPU    159.74s WALL (    2272 calls)
 
     Parallel routines
     fft_scatt_xy :     45.01s CPU     45.09s WALL (    2793 calls)
     fft_scatt_yz :     90.75s CPU     91.59s WALL (    2793 calls)
 
     PWSCF        :   6m27.95s CPU   6m40.86s WALL

 
   This run was terminated on:  19:56:43  17Jan2022            

=------------------------------------------------------------------------------=
   JOB DONE.
=------------------------------------------------------------------------------=
