 CRYSTAL
 PRIMVEC
    12.00000000    0.00000000    0.00000000
     0.00000000   12.00000000    0.00000000
     0.00000000    0.00000000   12.00000000
 PRIMCOORD
   1 1
    42   6.00000000    6.00000000    6.00000000
