/global/cscratch1/sd/bkincaid/cutoffs/Mo/1000/runs/scf_1000

     Program PWSCF v.6.4.1 starts on 17Jan2022 at 15: 7:22 

     This program is part of the open-source Quantum ESPRESSO suite
     for quantum simulation of materials; please cite
         "P. Giannozzi et al., J. Phys.:Condens. Matter 21 395502 (2009);
         "P. Giannozzi et al., J. Phys.:Condens. Matter 29 465901 (2017);
          URL http://www.quantum-espresso.org", 
     in publications or presentations arising from this work. More details at
     http://www.quantum-espresso.org/quote

     Parallel version (MPI & OpenMP), running on      32 processor cores
     Number of MPI processes:                32
     Threads/MPI process:                     1

     MPI processes distributed on     1 nodes
     R & G space division:  proc/nbgrp/npool/nimage =      32
     Reading input from scf_1000.in

     Current dimensions of program PWSCF are:
     Max number of different atomic species (ntypx) = 10
     Max number of k-points (npk) =  40000
     Max angular momentum in pseudopotentials (lmaxx) =  3

     IMPORTANT: XC functional enforced from input :
     Exchange-correlation      = PBE ( 1  4  3  4 0 0)
     Any further DFT definition will be discarded
     Please, verify this is what you really want


     gamma-point specific algorithms are used

     Subspace diagonalization in iterative solution of the eigenvalue problem:
     one sub-group per band group will be used
     scalapack distributed-memory algorithm (size of sub-group:  4*  4 procs)

     Message from routine setup:
     DEPRECATED: symmetry with ibrav=0, use correct ibrav instead
 
     Parallelization info
     --------------------
     sticks:   dense  smooth     PW     G-vecs:    dense   smooth      PW
     Min        5114    5114   1278              1556746  1556746  194594
     Max        5116    5116   1282              1556756  1556756  194604
     Sum      163693  163693  40945             49815989 49815989 6227117
 


     bravais-lattice index     =            0
     lattice parameter (alat)  =      22.6767  a.u.
     unit-cell volume          =   11661.1222 (a.u.)^3
     number of atoms/cell      =            1
     number of atomic types    =            1
     number of electrons       =        14.00 (up:  10.00, down:   4.00)
     number of Kohn-Sham states=           12
     kinetic-energy cutoff     =    1000.0000  Ry
     charge density cutoff     =    4000.0000  Ry
     convergence threshold     =      1.0E-06
     mixing beta               =       0.7000
     number of iterations used =            8  plain     mixing
     Exchange-correlation      = PBE ( 1  4  3  4 0 0)

     celldm(1)=  22.676714  celldm(2)=   0.000000  celldm(3)=   0.000000
     celldm(4)=   0.000000  celldm(5)=   0.000000  celldm(6)=   0.000000

     crystal axes: (cart. coord. in units of alat)
               a(1) = (   1.000000   0.000000   0.000000 )  
               a(2) = (   0.000000   1.000000   0.000000 )  
               a(3) = (   0.000000   0.000000   1.000000 )  

     reciprocal axes: (cart. coord. in units 2 pi/alat)
               b(1) = (  1.000000  0.000000  0.000000 )  
               b(2) = (  0.000000  1.000000  0.000000 )  
               b(3) = (  0.000000  0.000000  1.000000 )  


     PseudoPot. # 1 for Mo read from file:
     ./Mo.upf
     MD5 check sum: 8a384037cce4b47caa47c893dc3d0248
     Pseudo is Norm-conserving, Zval = 14.0
     Generated by new atomic code, or converted to UPF format
     Using radial grid of 1172 points,  2 beta functions with: 
                l(1) =   1
                l(2) =   2

     atomic species   valence    mass     pseudopotential
        Mo            14.00    95.94000     Mo( 1.00)

     Starting magnetic structure 
     atomic species   magnetization
        Mo           0.500

     48 Sym. Ops., with inversion, found


                                    s                        frac. trans.

      isym =  1     identity                                     

 cryst.   s( 1) = (     1          0          0      )
                  (     0          1          0      )
                  (     0          0          1      )

 cart.    s( 1) = (  1.0000000  0.0000000  0.0000000 )
                  (  0.0000000  1.0000000  0.0000000 )
                  (  0.0000000  0.0000000  1.0000000 )


      isym =  2     180 deg rotation - cart. axis [0,0,1]        

 cryst.   s( 2) = (    -1          0          0      )
                  (     0         -1          0      )
                  (     0          0          1      )

 cart.    s( 2) = ( -1.0000000  0.0000000  0.0000000 )
                  (  0.0000000 -1.0000000  0.0000000 )
                  (  0.0000000  0.0000000  1.0000000 )


      isym =  3     180 deg rotation - cart. axis [0,1,0]        

 cryst.   s( 3) = (    -1          0          0      )
                  (     0          1          0      )
                  (     0          0         -1      )

 cart.    s( 3) = ( -1.0000000  0.0000000  0.0000000 )
                  (  0.0000000  1.0000000  0.0000000 )
                  (  0.0000000  0.0000000 -1.0000000 )


      isym =  4     180 deg rotation - cart. axis [1,0,0]        

 cryst.   s( 4) = (     1          0          0      )
                  (     0         -1          0      )
                  (     0          0         -1      )

 cart.    s( 4) = (  1.0000000  0.0000000  0.0000000 )
                  (  0.0000000 -1.0000000  0.0000000 )
                  (  0.0000000  0.0000000 -1.0000000 )


      isym =  5     180 deg rotation - cart. axis [1,1,0]        

 cryst.   s( 5) = (     0          1          0      )
                  (     1          0          0      )
                  (     0          0         -1      )

 cart.    s( 5) = (  0.0000000  1.0000000  0.0000000 )
                  (  1.0000000  0.0000000  0.0000000 )
                  (  0.0000000  0.0000000 -1.0000000 )


      isym =  6     180 deg rotation - cart. axis [1,-1,0]       

 cryst.   s( 6) = (     0         -1          0      )
                  (    -1          0          0      )
                  (     0          0         -1      )

 cart.    s( 6) = (  0.0000000 -1.0000000  0.0000000 )
                  ( -1.0000000  0.0000000  0.0000000 )
                  (  0.0000000  0.0000000 -1.0000000 )


      isym =  7      90 deg rotation - cart. axis [0,0,-1]       

 cryst.   s( 7) = (     0         -1          0      )
                  (     1          0          0      )
                  (     0          0          1      )

 cart.    s( 7) = (  0.0000000  1.0000000  0.0000000 )
                  ( -1.0000000  0.0000000  0.0000000 )
                  (  0.0000000  0.0000000  1.0000000 )


      isym =  8      90 deg rotation - cart. axis [0,0,1]        

 cryst.   s( 8) = (     0          1          0      )
                  (    -1          0          0      )
                  (     0          0          1      )

 cart.    s( 8) = (  0.0000000 -1.0000000  0.0000000 )
                  (  1.0000000  0.0000000  0.0000000 )
                  (  0.0000000  0.0000000  1.0000000 )


      isym =  9     180 deg rotation - cart. axis [1,0,1]        

 cryst.   s( 9) = (     0          0          1      )
                  (     0         -1          0      )
                  (     1          0          0      )

 cart.    s( 9) = (  0.0000000  0.0000000  1.0000000 )
                  (  0.0000000 -1.0000000  0.0000000 )
                  (  1.0000000  0.0000000  0.0000000 )


      isym = 10     180 deg rotation - cart. axis [-1,0,1]       

 cryst.   s(10) = (     0          0         -1      )
                  (     0         -1          0      )
                  (    -1          0          0      )

 cart.    s(10) = (  0.0000000  0.0000000 -1.0000000 )
                  (  0.0000000 -1.0000000  0.0000000 )
                  ( -1.0000000  0.0000000  0.0000000 )


      isym = 11      90 deg rotation - cart. axis [0,1,0]        

 cryst.   s(11) = (     0          0         -1      )
                  (     0          1          0      )
                  (     1          0          0      )

 cart.    s(11) = (  0.0000000  0.0000000  1.0000000 )
                  (  0.0000000  1.0000000  0.0000000 )
                  ( -1.0000000  0.0000000  0.0000000 )


      isym = 12      90 deg rotation - cart. axis [0,-1,0]       

 cryst.   s(12) = (     0          0          1      )
                  (     0          1          0      )
                  (    -1          0          0      )

 cart.    s(12) = (  0.0000000  0.0000000 -1.0000000 )
                  (  0.0000000  1.0000000  0.0000000 )
                  (  1.0000000  0.0000000  0.0000000 )


      isym = 13     180 deg rotation - cart. axis [0,1,1]        

 cryst.   s(13) = (    -1          0          0      )
                  (     0          0          1      )
                  (     0          1          0      )

 cart.    s(13) = ( -1.0000000  0.0000000  0.0000000 )
                  (  0.0000000  0.0000000  1.0000000 )
                  (  0.0000000  1.0000000  0.0000000 )


      isym = 14     180 deg rotation - cart. axis [0,1,-1]       

 cryst.   s(14) = (    -1          0          0      )
                  (     0          0         -1      )
                  (     0         -1          0      )

 cart.    s(14) = ( -1.0000000  0.0000000  0.0000000 )
                  (  0.0000000  0.0000000 -1.0000000 )
                  (  0.0000000 -1.0000000  0.0000000 )


      isym = 15      90 deg rotation - cart. axis [-1,0,0]       

 cryst.   s(15) = (     1          0          0      )
                  (     0          0         -1      )
                  (     0          1          0      )

 cart.    s(15) = (  1.0000000  0.0000000  0.0000000 )
                  (  0.0000000  0.0000000  1.0000000 )
                  (  0.0000000 -1.0000000  0.0000000 )


      isym = 16      90 deg rotation - cart. axis [1,0,0]        

 cryst.   s(16) = (     1          0          0      )
                  (     0          0          1      )
                  (     0         -1          0      )

 cart.    s(16) = (  1.0000000  0.0000000  0.0000000 )
                  (  0.0000000  0.0000000 -1.0000000 )
                  (  0.0000000  1.0000000  0.0000000 )


      isym = 17     120 deg rotation - cart. axis [-1,-1,-1]     

 cryst.   s(17) = (     0          0          1      )
                  (     1          0          0      )
                  (     0          1          0      )

 cart.    s(17) = (  0.0000000  1.0000000  0.0000000 )
                  (  0.0000000  0.0000000  1.0000000 )
                  (  1.0000000  0.0000000  0.0000000 )


      isym = 18     120 deg rotation - cart. axis [-1,1,1]       

 cryst.   s(18) = (     0          0         -1      )
                  (    -1          0          0      )
                  (     0          1          0      )

 cart.    s(18) = (  0.0000000 -1.0000000  0.0000000 )
                  (  0.0000000  0.0000000  1.0000000 )
                  ( -1.0000000  0.0000000  0.0000000 )


      isym = 19     120 deg rotation - cart. axis [1,1,-1]       

 cryst.   s(19) = (     0          0         -1      )
                  (     1          0          0      )
                  (     0         -1          0      )

 cart.    s(19) = (  0.0000000  1.0000000  0.0000000 )
                  (  0.0000000  0.0000000 -1.0000000 )
                  ( -1.0000000  0.0000000  0.0000000 )


      isym = 20     120 deg rotation - cart. axis [1,-1,1]       

 cryst.   s(20) = (     0          0          1      )
                  (    -1          0          0      )
                  (     0         -1          0      )

 cart.    s(20) = (  0.0000000 -1.0000000  0.0000000 )
                  (  0.0000000  0.0000000 -1.0000000 )
                  (  1.0000000  0.0000000  0.0000000 )


      isym = 21     120 deg rotation - cart. axis [1,1,1]        

 cryst.   s(21) = (     0          1          0      )
                  (     0          0          1      )
                  (     1          0          0      )

 cart.    s(21) = (  0.0000000  0.0000000  1.0000000 )
                  (  1.0000000  0.0000000  0.0000000 )
                  (  0.0000000  1.0000000  0.0000000 )


      isym = 22     120 deg rotation - cart. axis [-1,1,-1]      

 cryst.   s(22) = (     0         -1          0      )
                  (     0          0         -1      )
                  (     1          0          0      )

 cart.    s(22) = (  0.0000000  0.0000000  1.0000000 )
                  ( -1.0000000  0.0000000  0.0000000 )
                  (  0.0000000 -1.0000000  0.0000000 )


      isym = 23     120 deg rotation - cart. axis [1,-1,-1]      

 cryst.   s(23) = (     0         -1          0      )
                  (     0          0          1      )
                  (    -1          0          0      )

 cart.    s(23) = (  0.0000000  0.0000000 -1.0000000 )
                  ( -1.0000000  0.0000000  0.0000000 )
                  (  0.0000000  1.0000000  0.0000000 )


      isym = 24     120 deg rotation - cart. axis [-1,-1,1]      

 cryst.   s(24) = (     0          1          0      )
                  (     0          0         -1      )
                  (    -1          0          0      )

 cart.    s(24) = (  0.0000000  0.0000000 -1.0000000 )
                  (  1.0000000  0.0000000  0.0000000 )
                  (  0.0000000 -1.0000000  0.0000000 )


      isym = 25     inversion                                    

 cryst.   s(25) = (    -1          0          0      )
                  (     0         -1          0      )
                  (     0          0         -1      )

 cart.    s(25) = ( -1.0000000  0.0000000  0.0000000 )
                  (  0.0000000 -1.0000000  0.0000000 )
                  (  0.0000000  0.0000000 -1.0000000 )


      isym = 26     inv. 180 deg rotation - cart. axis [0,0,1]   

 cryst.   s(26) = (     1          0          0      )
                  (     0          1          0      )
                  (     0          0         -1      )

 cart.    s(26) = (  1.0000000  0.0000000  0.0000000 )
                  (  0.0000000  1.0000000  0.0000000 )
                  (  0.0000000  0.0000000 -1.0000000 )


      isym = 27     inv. 180 deg rotation - cart. axis [0,1,0]   

 cryst.   s(27) = (     1          0          0      )
                  (     0         -1          0      )
                  (     0          0          1      )

 cart.    s(27) = (  1.0000000  0.0000000  0.0000000 )
                  (  0.0000000 -1.0000000  0.0000000 )
                  (  0.0000000  0.0000000  1.0000000 )


      isym = 28     inv. 180 deg rotation - cart. axis [1,0,0]   

 cryst.   s(28) = (    -1          0          0      )
                  (     0          1          0      )
                  (     0          0          1      )

 cart.    s(28) = ( -1.0000000  0.0000000  0.0000000 )
                  (  0.0000000  1.0000000  0.0000000 )
                  (  0.0000000  0.0000000  1.0000000 )


      isym = 29     inv. 180 deg rotation - cart. axis [1,1,0]   

 cryst.   s(29) = (     0         -1          0      )
                  (    -1          0          0      )
                  (     0          0          1      )

 cart.    s(29) = (  0.0000000 -1.0000000  0.0000000 )
                  ( -1.0000000  0.0000000  0.0000000 )
                  (  0.0000000  0.0000000  1.0000000 )


      isym = 30     inv. 180 deg rotation - cart. axis [1,-1,0]  

 cryst.   s(30) = (     0          1          0      )
                  (     1          0          0      )
                  (     0          0          1      )

 cart.    s(30) = (  0.0000000  1.0000000  0.0000000 )
                  (  1.0000000  0.0000000  0.0000000 )
                  (  0.0000000  0.0000000  1.0000000 )


      isym = 31     inv.  90 deg rotation - cart. axis [0,0,-1]  

 cryst.   s(31) = (     0          1          0      )
                  (    -1          0          0      )
                  (     0          0         -1      )

 cart.    s(31) = (  0.0000000 -1.0000000  0.0000000 )
                  (  1.0000000  0.0000000  0.0000000 )
                  (  0.0000000  0.0000000 -1.0000000 )


      isym = 32     inv.  90 deg rotation - cart. axis [0,0,1]   

 cryst.   s(32) = (     0         -1          0      )
                  (     1          0          0      )
                  (     0          0         -1      )

 cart.    s(32) = (  0.0000000  1.0000000  0.0000000 )
                  ( -1.0000000  0.0000000  0.0000000 )
                  (  0.0000000  0.0000000 -1.0000000 )


      isym = 33     inv. 180 deg rotation - cart. axis [1,0,1]   

 cryst.   s(33) = (     0          0         -1      )
                  (     0          1          0      )
                  (    -1          0          0      )

 cart.    s(33) = (  0.0000000  0.0000000 -1.0000000 )
                  (  0.0000000  1.0000000  0.0000000 )
                  ( -1.0000000  0.0000000  0.0000000 )


      isym = 34     inv. 180 deg rotation - cart. axis [-1,0,1]  

 cryst.   s(34) = (     0          0          1      )
                  (     0          1          0      )
                  (     1          0          0      )

 cart.    s(34) = (  0.0000000  0.0000000  1.0000000 )
                  (  0.0000000  1.0000000  0.0000000 )
                  (  1.0000000  0.0000000  0.0000000 )


      isym = 35     inv.  90 deg rotation - cart. axis [0,1,0]   

 cryst.   s(35) = (     0          0          1      )
                  (     0         -1          0      )
                  (    -1          0          0      )

 cart.    s(35) = (  0.0000000  0.0000000 -1.0000000 )
                  (  0.0000000 -1.0000000  0.0000000 )
                  (  1.0000000  0.0000000  0.0000000 )


      isym = 36     inv.  90 deg rotation - cart. axis [0,-1,0]  

 cryst.   s(36) = (     0          0         -1      )
                  (     0         -1          0      )
                  (     1          0          0      )

 cart.    s(36) = (  0.0000000  0.0000000  1.0000000 )
                  (  0.0000000 -1.0000000  0.0000000 )
                  ( -1.0000000  0.0000000  0.0000000 )


      isym = 37     inv. 180 deg rotation - cart. axis [0,1,1]   

 cryst.   s(37) = (     1          0          0      )
                  (     0          0         -1      )
                  (     0         -1          0      )

 cart.    s(37) = (  1.0000000  0.0000000  0.0000000 )
                  (  0.0000000  0.0000000 -1.0000000 )
                  (  0.0000000 -1.0000000  0.0000000 )


      isym = 38     inv. 180 deg rotation - cart. axis [0,1,-1]  

 cryst.   s(38) = (     1          0          0      )
                  (     0          0          1      )
                  (     0          1          0      )

 cart.    s(38) = (  1.0000000  0.0000000  0.0000000 )
                  (  0.0000000  0.0000000  1.0000000 )
                  (  0.0000000  1.0000000  0.0000000 )


      isym = 39     inv.  90 deg rotation - cart. axis [-1,0,0]  

 cryst.   s(39) = (    -1          0          0      )
                  (     0          0          1      )
                  (     0         -1          0      )

 cart.    s(39) = ( -1.0000000  0.0000000  0.0000000 )
                  (  0.0000000  0.0000000 -1.0000000 )
                  (  0.0000000  1.0000000  0.0000000 )


      isym = 40     inv.  90 deg rotation - cart. axis [1,0,0]   

 cryst.   s(40) = (    -1          0          0      )
                  (     0          0         -1      )
                  (     0          1          0      )

 cart.    s(40) = ( -1.0000000  0.0000000  0.0000000 )
                  (  0.0000000  0.0000000  1.0000000 )
                  (  0.0000000 -1.0000000  0.0000000 )


      isym = 41     inv. 120 deg rotation - cart. axis [-1,-1,-1]

 cryst.   s(41) = (     0          0         -1      )
                  (    -1          0          0      )
                  (     0         -1          0      )

 cart.    s(41) = (  0.0000000 -1.0000000  0.0000000 )
                  (  0.0000000  0.0000000 -1.0000000 )
                  ( -1.0000000  0.0000000  0.0000000 )


      isym = 42     inv. 120 deg rotation - cart. axis [-1,1,1]  

 cryst.   s(42) = (     0          0          1      )
                  (     1          0          0      )
                  (     0         -1          0      )

 cart.    s(42) = (  0.0000000  1.0000000  0.0000000 )
                  (  0.0000000  0.0000000 -1.0000000 )
                  (  1.0000000  0.0000000  0.0000000 )


      isym = 43     inv. 120 deg rotation - cart. axis [1,1,-1]  

 cryst.   s(43) = (     0          0          1      )
                  (    -1          0          0      )
                  (     0          1          0      )

 cart.    s(43) = (  0.0000000 -1.0000000  0.0000000 )
                  (  0.0000000  0.0000000  1.0000000 )
                  (  1.0000000  0.0000000  0.0000000 )


      isym = 44     inv. 120 deg rotation - cart. axis [1,-1,1]  

 cryst.   s(44) = (     0          0         -1      )
                  (     1          0          0      )
                  (     0          1          0      )

 cart.    s(44) = (  0.0000000  1.0000000  0.0000000 )
                  (  0.0000000  0.0000000  1.0000000 )
                  ( -1.0000000  0.0000000  0.0000000 )


      isym = 45     inv. 120 deg rotation - cart. axis [1,1,1]   

 cryst.   s(45) = (     0         -1          0      )
                  (     0          0         -1      )
                  (    -1          0          0      )

 cart.    s(45) = (  0.0000000  0.0000000 -1.0000000 )
                  ( -1.0000000  0.0000000  0.0000000 )
                  (  0.0000000 -1.0000000  0.0000000 )


      isym = 46     inv. 120 deg rotation - cart. axis [-1,1,-1] 

 cryst.   s(46) = (     0          1          0      )
                  (     0          0          1      )
                  (    -1          0          0      )

 cart.    s(46) = (  0.0000000  0.0000000 -1.0000000 )
                  (  1.0000000  0.0000000  0.0000000 )
                  (  0.0000000  1.0000000  0.0000000 )


      isym = 47     inv. 120 deg rotation - cart. axis [1,-1,-1] 

 cryst.   s(47) = (     0          1          0      )
                  (     0          0         -1      )
                  (     1          0          0      )

 cart.    s(47) = (  0.0000000  0.0000000  1.0000000 )
                  (  1.0000000  0.0000000  0.0000000 )
                  (  0.0000000 -1.0000000  0.0000000 )


      isym = 48     inv. 120 deg rotation - cart. axis [-1,-1,1] 

 cryst.   s(48) = (     0         -1          0      )
                  (     0          0          1      )
                  (     1          0          0      )

 cart.    s(48) = (  0.0000000  0.0000000  1.0000000 )
                  ( -1.0000000  0.0000000  0.0000000 )
                  (  0.0000000  1.0000000  0.0000000 )


   Cartesian axes

     site n.     atom                  positions (alat units)
         1           Mo  tau(   1) = (   0.5000000   0.5000000   0.5000000  )

   Crystallographic axes

     site n.     atom                  positions (cryst. coord.)
         1           Mo  tau(   1) = (  0.5000000  0.5000000  0.5000000  )

     number of k points=     1
                       cart. coord. in units 2pi/alat
        k(    1) = (   0.0000000   0.0000000   0.0000000), wk =   1.0000000

                       cryst. coord.
        k(    1) = (   0.0000000   0.0000000   0.0000000), wk =   1.0000000

     Dense  grid: 24907995 G-vectors     FFT dimensions: ( 480, 480, 480)

     Dynamical RAM for                 wfc:      17.82 MB

     Dynamical RAM for     wfc (w. buffer):      53.45 MB

     Dynamical RAM for           str. fact:      11.88 MB

     Dynamical RAM for           local pot:       0.00 MB

     Dynamical RAM for          nlocal pot:      11.88 MB

     Dynamical RAM for                qrad:       2.61 MB

     Dynamical RAM for          rho,v,vnew:     229.47 MB

     Dynamical RAM for               rhoin:      76.49 MB

     Dynamical RAM for            rho*nmix:     380.07 MB

     Dynamical RAM for           G-vectors:      50.48 MB

     Dynamical RAM for          h,s,v(r/c):       0.00 MB

     Dynamical RAM for          <psi|beta>:       0.00 MB

     Dynamical RAM for                 psi:      71.26 MB

     Dynamical RAM for                hpsi:      71.26 MB

     Dynamical RAM for      wfcinit/wfcrot:      35.64 MB

     Estimated static dynamical RAM per process >     998.27 MB

     Estimated max dynamical RAM per process >       1.11 GB

     Estimated total dynamical RAM >      35.65 GB
     Generating pointlists ...
     new r_m :   0.4125 (alat units)  9.3541 (a.u.) for type    1

     Initial potential from superposition of free atoms

     starting charge   11.99998, renormalised to   14.00000

     negative rho (up, down):  1.859E-02 0.000E+00
     Starting wfcs are    9 randomized atomic wfcs +    3 random wfcs

     total cpu time spent up to now is       38.7 secs

     Self-consistent Calculation

     iteration #  1     ecut=  1000.00 Ry     beta= 0.70
     Davidson diagonalization with overlap
     ethr =  1.00E-02,  avg # of iterations = 10.5

     negative rho (up, down):  7.564E-08 4.464E-01

     total cpu time spent up to now is       94.2 secs

     total energy              =    -127.05611600 Ry
     Harris-Foulkes estimate   =    -138.52062487 Ry
     estimated scf accuracy    <      14.75856760 Ry

     total magnetization       =     6.00 Bohr mag/cell
     absolute magnetization    =     6.02 Bohr mag/cell

     iteration #  2     ecut=  1000.00 Ry     beta= 0.70
     Davidson diagonalization with overlap
     ethr =  1.00E-02,  avg # of iterations =  7.0

     negative rho (up, down):  0.000E+00 4.456E-01

     total cpu time spent up to now is      138.1 secs

     total energy              =    -135.85220018 Ry
     Harris-Foulkes estimate   =    -139.85664832 Ry
     estimated scf accuracy    <       6.77441464 Ry

     total magnetization       =     6.00 Bohr mag/cell
     absolute magnetization    =     6.00 Bohr mag/cell

     iteration #  3     ecut=  1000.00 Ry     beta= 0.70
     Davidson diagonalization with overlap
     ethr =  1.00E-02,  avg # of iterations =  2.0

     negative rho (up, down):  0.000E+00 4.455E-01

     total cpu time spent up to now is      167.1 secs

     total energy              =    -136.08468274 Ry
     Harris-Foulkes estimate   =    -136.33741240 Ry
     estimated scf accuracy    <       1.11057373 Ry

     total magnetization       =     6.00 Bohr mag/cell
     absolute magnetization    =     6.00 Bohr mag/cell

     iteration #  4     ecut=  1000.00 Ry     beta= 0.70
     Davidson diagonalization with overlap
     ethr =  7.93E-03,  avg # of iterations =  1.0

     negative rho (up, down):  6.798E-07 4.519E-01

     total cpu time spent up to now is      193.5 secs

     total energy              =    -135.61096538 Ry
     Harris-Foulkes estimate   =    -136.09635165 Ry
     estimated scf accuracy    <       0.72261326 Ry

     total magnetization       =     6.00 Bohr mag/cell
     absolute magnetization    =     6.00 Bohr mag/cell

     iteration #  5     ecut=  1000.00 Ry     beta= 0.70
     Davidson diagonalization with overlap
     ethr =  5.16E-03,  avg # of iterations =  2.5

     negative rho (up, down):  3.155E-07 4.761E-01

     total cpu time spent up to now is      223.3 secs

     total energy              =    -135.74810023 Ry
     Harris-Foulkes estimate   =    -135.74529050 Ry
     estimated scf accuracy    <       0.01573459 Ry

     total magnetization       =     6.00 Bohr mag/cell
     absolute magnetization    =     6.00 Bohr mag/cell

     iteration #  6     ecut=  1000.00 Ry     beta= 0.70
     Davidson diagonalization with overlap
     ethr =  1.12E-04,  avg # of iterations = 13.5

     negative rho (up, down):  1.501E-07 4.532E-01

     total cpu time spent up to now is      277.7 secs

     total energy              =    -136.08336643 Ry
     Harris-Foulkes estimate   =    -136.06890396 Ry
     estimated scf accuracy    <       0.15432061 Ry

     total magnetization       =     6.00 Bohr mag/cell
     absolute magnetization    =     6.00 Bohr mag/cell

     iteration #  7     ecut=  1000.00 Ry     beta= 0.70
     Davidson diagonalization with overlap
     ethr =  1.12E-04,  avg # of iterations =  1.5

     negative rho (up, down):  2.462E-07 4.568E-01

     total cpu time spent up to now is      305.1 secs

     total energy              =    -136.11091329 Ry
     Harris-Foulkes estimate   =    -136.08374372 Ry
     estimated scf accuracy    <       0.15633886 Ry

     total magnetization       =     6.00 Bohr mag/cell
     absolute magnetization    =     6.00 Bohr mag/cell

     iteration #  8     ecut=  1000.00 Ry     beta= 0.70
     Davidson diagonalization with overlap
     ethr =  1.12E-04,  avg # of iterations =  4.0

     negative rho (up, down):  1.273E-07 8.047E-01

     total cpu time spent up to now is      339.3 secs

     total energy              =    -135.98789942 Ry
     Harris-Foulkes estimate   =    -136.11995674 Ry
     estimated scf accuracy    <       0.40269674 Ry

     total magnetization       =     6.00 Bohr mag/cell
     absolute magnetization    =     6.00 Bohr mag/cell

     iteration #  9     ecut=  1000.00 Ry     beta= 0.70
     Davidson diagonalization with overlap
     ethr =  1.12E-04,  avg # of iterations =  5.5

     negative rho (up, down):  2.582E-03 4.485E-01

     total cpu time spent up to now is      378.4 secs

     total energy              =    -136.04357164 Ry
     Harris-Foulkes estimate   =    -136.04198347 Ry
     estimated scf accuracy    <       0.00951155 Ry

     total magnetization       =     6.00 Bohr mag/cell
     absolute magnetization    =     6.00 Bohr mag/cell

     iteration # 10     ecut=  1000.00 Ry     beta= 0.70
     Davidson diagonalization with overlap
     ethr =  6.79E-05,  avg # of iterations =  1.5

     negative rho (up, down):  1.140E-02 4.503E-01

     total cpu time spent up to now is      406.3 secs

     total energy              =    -136.04524305 Ry
     Harris-Foulkes estimate   =    -136.04414631 Ry
     estimated scf accuracy    <       0.00379583 Ry

     total magnetization       =     6.00 Bohr mag/cell
     absolute magnetization    =     6.00 Bohr mag/cell

     iteration # 11     ecut=  1000.00 Ry     beta= 0.70
     Davidson diagonalization with overlap
     ethr =  2.71E-05,  avg # of iterations =  7.5

     negative rho (up, down):  1.102E-09 4.824E-01

     total cpu time spent up to now is      449.7 secs

     total energy              =    -136.04211917 Ry
     Harris-Foulkes estimate   =    -136.04914711 Ry
     estimated scf accuracy    <       0.02943632 Ry

     total magnetization       =     6.00 Bohr mag/cell
     absolute magnetization    =     6.00 Bohr mag/cell

     iteration # 12     ecut=  1000.00 Ry     beta= 0.70
     Davidson diagonalization with overlap
     ethr =  2.71E-05,  avg # of iterations =  3.5

     negative rho (up, down):  0.000E+00 4.282E-01

     total cpu time spent up to now is      484.0 secs

     total energy              =    -136.04317436 Ry
     Harris-Foulkes estimate   =    -136.04397604 Ry
     estimated scf accuracy    <       0.00426280 Ry

     total magnetization       =     6.00 Bohr mag/cell
     absolute magnetization    =     6.00 Bohr mag/cell

     iteration # 13     ecut=  1000.00 Ry     beta= 0.70
     Davidson diagonalization with overlap
     ethr =  2.71E-05,  avg # of iterations =  1.0

     negative rho (up, down):  1.075E-05 4.466E-01

     total cpu time spent up to now is      511.0 secs

     total energy              =    -136.04284893 Ry
     Harris-Foulkes estimate   =    -136.04325668 Ry
     estimated scf accuracy    <       0.00276594 Ry

     total magnetization       =     6.00 Bohr mag/cell
     absolute magnetization    =     6.00 Bohr mag/cell

     iteration # 14     ecut=  1000.00 Ry     beta= 0.70
     Davidson diagonalization with overlap
     ethr =  1.98E-05,  avg # of iterations =  1.5

     negative rho (up, down):  1.673E-05 4.278E-01

     total cpu time spent up to now is      538.6 secs

     total energy              =    -136.04252326 Ry
     Harris-Foulkes estimate   =    -136.04298509 Ry
     estimated scf accuracy    <       0.00108365 Ry

     total magnetization       =     6.00 Bohr mag/cell
     absolute magnetization    =     6.00 Bohr mag/cell

     iteration # 15     ecut=  1000.00 Ry     beta= 0.70
     Davidson diagonalization with overlap
     ethr =  7.74E-06,  avg # of iterations =  4.5

     negative rho (up, down):  5.744E-05 4.429E-01

     total cpu time spent up to now is      575.2 secs

     total energy              =    -136.04305652 Ry
     Harris-Foulkes estimate   =    -136.04302441 Ry
     estimated scf accuracy    <       0.00012244 Ry

     total magnetization       =     6.00 Bohr mag/cell
     absolute magnetization    =     6.00 Bohr mag/cell

     iteration # 16     ecut=  1000.00 Ry     beta= 0.70
     Davidson diagonalization with overlap
     ethr =  8.75E-07,  avg # of iterations =  3.5

     negative rho (up, down):  0.000E+00 4.310E-01

     total cpu time spent up to now is      605.3 secs

     total energy              =    -136.04295871 Ry
     Harris-Foulkes estimate   =    -136.04306257 Ry
     estimated scf accuracy    <       0.00007229 Ry

     total magnetization       =     6.00 Bohr mag/cell
     absolute magnetization    =     6.00 Bohr mag/cell

     iteration # 17     ecut=  1000.00 Ry     beta= 0.70
     Davidson diagonalization with overlap
     ethr =  5.16E-07,  avg # of iterations =  3.0

     negative rho (up, down):  0.000E+00 4.493E-01

     total cpu time spent up to now is      634.4 secs

     total energy              =    -136.04291392 Ry
     Harris-Foulkes estimate   =    -136.04296157 Ry
     estimated scf accuracy    <       0.00003597 Ry

     total magnetization       =     6.00 Bohr mag/cell
     absolute magnetization    =     6.00 Bohr mag/cell

     iteration # 18     ecut=  1000.00 Ry     beta= 0.70
     Davidson diagonalization with overlap
     ethr =  2.57E-07,  avg # of iterations =  2.0

     negative rho (up, down):  0.000E+00 4.069E-07
 
     Magnetic moment per site:
     atom:    1    charge:   13.9991    magn:    5.9991    constr:    0.0000

     total cpu time spent up to now is      661.1 secs

     End of self-consistent calculation

 ------ SPIN UP ------------


          k = 0.0000 0.0000 0.0000 (****** PWs)   bands (ev):

   -64.8688 -39.1947 -39.1937 -39.1935  -4.4203  -4.2656  -4.2654  -4.2653
    -4.2649  -4.2648  -1.0752  -1.0744

     occupation numbers 
     1.0000   1.0000   1.0000   1.0000   1.0000   1.0000   1.0000   1.0000
     1.0000   1.0000   0.0000   0.0000

 ------ SPIN DOWN ----------


          k = 0.0000 0.0000 0.0000 (****** PWs)   bands (ev):

   -62.0382 -36.1074 -36.1066 -36.1061  -1.4469  -0.8414  -0.8404  -0.8397
    -0.8396  -0.8393   0.2372   0.9237

     occupation numbers 
     1.0000   1.0000   1.0000   1.0000   0.0000   0.0000   0.0000   0.0000
     0.0000   0.0000   0.0000   0.0000

     highest occupied, lowest unoccupied level (ev):    -4.2648   -1.4469

!    total energy              =    -136.04285571 Ry
     Harris-Foulkes estimate   =    -136.04292452 Ry
     estimated scf accuracy    <       0.00000087 Ry

     The total energy is the sum of the following terms:

     one-electron contribution =    -184.09395768 Ry
     hartree contribution      =      88.45644499 Ry
     xc contribution           =     -15.88193474 Ry
     ewald contribution        =     -24.52340829 Ry

     total magnetization       =     6.00 Bohr mag/cell
     absolute magnetization    =     6.00 Bohr mag/cell

     convergence has been achieved in  18 iterations

     Writing output data file pwscf.save/
 
     init_run     :     37.05s CPU     38.63s WALL (       1 calls)
     electrons    :    609.52s CPU    625.35s WALL (       1 calls)

     Called by init_run:
     wfcinit      :      5.32s CPU      5.88s WALL (       1 calls)
     wfcinit:atom :      0.07s CPU      0.24s WALL (       2 calls)
     wfcinit:wfcr :      5.15s CPU      5.52s WALL (       2 calls)
     potinit      :      8.28s CPU      8.70s WALL (       1 calls)
     hinit0       :      0.65s CPU      0.98s WALL (       1 calls)

     Called by electrons:
     c_bands      :    337.92s CPU    341.17s WALL (      18 calls)
     sum_band     :     90.06s CPU     90.49s WALL (      18 calls)
     v_of_rho     :    141.25s CPU    147.80s WALL (      19 calls)
     v_h          :     10.69s CPU     10.88s WALL (      19 calls)
     v_xc         :    130.56s CPU    136.92s WALL (      19 calls)
     mix_rho      :     41.97s CPU     45.91s WALL (      18 calls)

     Called by c_bands:
     init_us_2    :      1.57s CPU      1.58s WALL (      74 calls)
     regterg      :    335.12s CPU    338.34s WALL (      36 calls)

     Called by sum_band:

     Called by *egterg:
     h_psi        :    305.96s CPU    306.60s WALL (     189 calls)
     g_psi        :      1.18s CPU      1.18s WALL (     151 calls)
     rdiaghg      :      0.20s CPU      0.21s WALL (     187 calls)
     regterg:over :      7.61s CPU      7.62s WALL (     151 calls)
     regterg:upda :     15.89s CPU     16.53s WALL (     151 calls)
     regterg:last :      4.48s CPU      4.49s WALL (      46 calls)
     rdiaghg:chol :      0.03s CPU      0.04s WALL (     187 calls)
     rdiaghg:inve :      0.01s CPU      0.01s WALL (     187 calls)
     rdiaghg:para :      0.02s CPU      0.02s WALL (     374 calls)

     Called by h_psi:
     h_psi:pot    :    303.83s CPU    304.47s WALL (     189 calls)
     h_psi:calbec :      1.27s CPU      1.27s WALL (     189 calls)
     vloc_psi     :    300.48s CPU    301.11s WALL (     189 calls)
     add_vuspsi   :      2.09s CPU      2.09s WALL (     189 calls)

     General routines
     calbec       :      1.26s CPU      1.27s WALL (     189 calls)
     fft          :    119.55s CPU    120.71s WALL (     281 calls)
     ffts         :     12.77s CPU     12.81s WALL (      36 calls)
     fftw         :    282.78s CPU    283.65s WALL (    1698 calls)
 
     Parallel routines
     fft_scatt_xy :     71.86s CPU     71.92s WALL (    2015 calls)
     fft_scatt_yz :    152.18s CPU    153.48s WALL (    2015 calls)
 
     PWSCF        :  10m48.84s CPU  11m10.40s WALL

 
   This run was terminated on:  15:18:33  17Jan2022            

=------------------------------------------------------------------------------=
   JOB DONE.
=------------------------------------------------------------------------------=
