
 Primary working directories    : /global/cscratch1/sd/haihan
 Secondary working directories  : /global/cscratch1/sd/haihan
 Wavefunction directory         : /global/homes/h/haihan/wfu/
 Main file repository           : /global/cscratch1/sd/haihan/

 SHA1      : 19cd028119e0e09f93f0674bd8af7968d9b3eff6
 NAME      : 2015.1.36
 ARCHNAME  : linux/x86_64
 FC        : /opt/cray/pe/craype/2.5.14/bin/ftn
 BLASLIB   : -L/opt/intel/compilers_and_libraries_2018.1.163/linux/mkl/lib/intel64 -Wl,-_start-group -lmkl_intel_ilp64 -lmkl_intel_thread -lmkl_core -Wl,-_end-group -liomp5
 id        : lbl

 Nodes     nprocs
 nid00888    15
 Number of processes for MPI-2 version of Molpro:   nprocs(total)=   16   nprocs(compute)=   15   nprocs(helper)=    1

 Using customized tuning parameters: mindgm=7; mindgv=16; mindgc=1; mindgr=1; noblas=0; minvec=7
 default implementation of scratch files=sf  

 ***,W
 memory,512,m
 
 gthresh,twoint=1.e-12
 gprint,basis,orbitals
 
 angstrom
 geometry={
 1                                                                               ! Number of atoms
 W 0.0 0.0 0.0
 }
 
                                                                                 !!! Initial guesses from STU
 s_par=[1.403900]
 p_par=[1.978700]
 d_par=[1.339800]
 f_par=[1.286100]
 
 proc opt_basis
 
 basis={
 Including file /global/u2/h/haihan/Research/HZECP/W_basis/core_dz/ecp.molpro
 Including file /global/u2/h/haihan/Research/HZECP/W_basis/core_dz/basis.molpro
 
 s,W,s_par(1)
 p,W,p_par(1)
 d,W,d_par(1)
 f,W,f_par(1)
 
 }
 
 {rhf
  start,atden
  print,orbitals=2
  wf,14,1,4
  occ,3,1,1,1,1,1,1,0
  closed,2,1,1,0,1,0,0,0
  sym,1,1,1,3,2
  orbital,4202.2
 }
 pop
 {multi
  start,4202.2
  occ,4,1,1,1,1,1,1,0
  closed,2,1,1,0,1,0,0,0
  wf,14,1,4;state,2
  wf,14,4,4;state,1
  wf,14,6,4;state,1
  wf,14,7,4;state,1
  natorb,ci,print
  orbital,5202.2
 }
 {rhf,nitord=1,maxit=0
  start,5202.2
  wf,14,1,4
  occ,3,1,1,1,1,1,1,0
  closed,2,1,1,0,1,0,0,0
 }
 
 data,rename,4202.2,4302.2
 data,rename,5202.2,5302.2
 
 {ci;maxit,100;core}
 eval=energy
 
 endproc
 
 {minimize,eval, s_par(1),p_par(1),d_par(1),f_par(1)
 method,bfgs,proc=opt_basis,thresh=5e-5,vstep=1e-3
 maxit,100}
 

 Variables initialized (889), CPU time= 0.00 sec
 Commands  initialized (702), CPU time= 0.01 sec, 572 directives.
 Default parameters read. Elapsed time= 0.22 sec

 Checking input...
 Passed
1


                                         ***  PROGRAM SYSTEM MOLPRO  ***
                                       Copyright, TTI GmbH Stuttgart, 2015
                                    Version 2015.1 linked Dec 29 2018 15:55:43


 **********************************************************************************************************************************
 LABEL *   W                                                                             
  64 bit mpp version                                                                     DATE: 09-Dec-21          TIME: 14:29:03  
 **********************************************************************************************************************************

 SHA1:             19cd028119e0e09f93f0674bd8af7968d9b3eff6
 **********************************************************************************************************************************

 THRESHOLDS:

 ZERO    =  1.00D-12  ONEINT  =  1.00D-12  TWOINT  =  1.00D-12  PREFAC  =  1.00D-14  LOCALI  =  1.00D-09  EORDER  =  1.00D-04
 ENERGY  =  0.00D+00  ETEST   =  0.00D+00  EDENS   =  0.00D+00  THRDEDEF=  1.00D-06  GRADIENT=  1.00D-02  STEP    =  1.00D-03
 ORBITAL =  1.00D-05  CIVEC   =  1.00D-05  COEFF   =  1.00D-04  PRINTCI =  5.00D-02  PUNCHCI =  9.90D+01  OPTGRAD =  3.00D-04
 OPTENERG=  1.00D-06  OPTSTEP =  3.00D-04  THRGRAD =  1.00D-10  COMPRESS=  1.00D-11  VARMIN  =  1.00D-07  VARMAX  =  1.00D-03
 THRDOUB =  0.00D+00  THRDIV  =  1.00D-05  THRRED  =  1.00D-07  THRPSP  =  1.00D+00  THRDC   =  1.00D-10  THRCS   =  1.00D-10
 THRNRM  =  1.00D-08  THREQ   =  0.00D+00  THRDE   =  1.00D+00  THRREF  =  1.00D-05  SPARFAC =  1.00D+00  THRDLP  =  1.00D-07
 THRDIA  =  1.00D-10  THRDLS  =  1.00D-07  THRGPS  =  0.00D+00  THRKEX  =  0.00D+00  THRDIS  =  2.00D-01  THRVAR  =  1.00D-10
 THRLOC  =  1.00D-06  THRGAP  =  1.00D-06  THRLOCT = -1.00D+00  THRGAPT = -1.00D+00  THRORB  =  1.00D-06  THRMLTP =  0.00D+00
 THRCPQCI=  1.00D-10  KEXTA   =  0.00D+00  THRCOARS=  0.00D+00  SYMTOL  =  1.00D-06  GRADTOL =  1.00D-06  THROVL  =  1.00D-08
 THRORTH =  1.00D-08  GRID    =  1.00D-06  GRIDMAX =  1.00D-03  DTMAX   =  0.00D+00  THROCCDE=  1.00D-01  THROCCDE=  1.00D-01



 ZUNIT=ANG
 

Geometry recognized as XYZ

 SETTING S_PAR          =         1.40390000                                  
 SETTING P_PAR          =         1.97870000                                  
 SETTING D_PAR          =         1.33980000                                  
 SETTING F_PAR          =         1.28610000                                  

 Variable memory set to  512000000 words,  buffer space   230000 words



 PROGRAM * MINIMIZE (General minimization)     Authors: H.-J. Werner, P.J. Knowles, K.A. Peterson

 Minimize EVAL with respect to:        S_PAR(1)  P_PAR(1)  D_PAR(1)  F_PAR(1)  
 Method BFGS will be used
 Variables are optimized in the space of (x/x0)


 Minimization using procedure=OPT_BASIS

 *** Long output written to logfile /global/u2/h/haihan/Research/HZECP/W_basis/core_dz/atom.log ***


 BFGS update of inverse hessian 

 PROGRAM * MINIMIZE (General minimization)     Authors: H.-J. Werner, P.J. Knowles, K.A. Peterson


 Results for BFGS iteration    1       Current function value  =        -66.989980209
                                     Previous function value =          0.000000000
 Current variables and gradients:
 BFGS       S_PAR(1)                  1.403900       -0.0003294
 BFGS       P_PAR(1)                  1.978700        0.0012481
 BFGS       D_PAR(1)                  1.339800        0.0057509
 BFGS       F_PAR(1)                  1.286100       -0.0033654

 BFGS update of inverse hessian 

 Results for BFGS iteration    2       Current function value  =        -66.990251035
                                     Previous function value =        -66.989980209
 Current variables and gradients:
 BFGS       S_PAR(1)                  1.408503       -0.0003184
 BFGS       P_PAR(1)                  1.954117        0.0011712
 BFGS       D_PAR(1)                  1.263101       -0.0007862
 BFGS       F_PAR(1)                  1.329185       -0.0026103

 BFGS update of inverse hessian 

 Results for BFGS iteration    3       Current function value  =        -66.990350216
                                     Previous function value =        -66.990251035
 Current variables and gradients:
 BFGS       S_PAR(1)                  1.414681       -0.0003056
 BFGS       P_PAR(1)                  1.921921        0.0010791
 BFGS       D_PAR(1)                  1.257335       -0.0014844
 BFGS       F_PAR(1)                  1.377562       -0.0018723

 BFGS update of inverse hessian 

 Results for BFGS iteration    4       Current function value  =        -66.990502181
                                     Previous function value =        -66.990350216
 Current variables and gradients:
 BFGS       S_PAR(1)                  1.437046       -0.0002611
 BFGS       P_PAR(1)                  1.808517        0.0006565
 BFGS       D_PAR(1)                  1.272822       -0.0001809
 BFGS       F_PAR(1)                  1.523916        0.0003342

 BFGS update of inverse hessian 

 Results for BFGS iteration    5       Current function value  =        -66.990508164
                                     Previous function value =        -66.990502181
 Current variables and gradients:
 BFGS       S_PAR(1)                  1.441410       -0.0002526
 BFGS       P_PAR(1)                  1.792027        0.0005790
 BFGS       D_PAR(1)                  1.274456       -0.0000227
 BFGS       F_PAR(1)                  1.524265        0.0003366

 BFGS update of inverse hessian 

 Results for BFGS iteration    6       Current function value  =        -66.990530682
                                     Previous function value =        -66.990508164
 Current variables and gradients:
 BFGS       S_PAR(1)                  1.477445       -0.0001841
 BFGS       P_PAR(1)                  1.667319       -0.0001557
 BFGS       D_PAR(1)                  1.278203        0.0003646
 BFGS       F_PAR(1)                  1.508585        0.0000927

 BFGS update of inverse hessian 

 Results for BFGS iteration    7       Current function value  =        -66.990532055
                                     Previous function value =        -66.990530682
 Current variables and gradients:
 BFGS       S_PAR(1)                  1.476716       -0.0001854
 BFGS       P_PAR(1)                  1.681480       -0.0000579
 BFGS       D_PAR(1)                  1.275560        0.0001193
 BFGS       F_PAR(1)                  1.502895        0.0000106

 BFGS update of inverse hessian 

 Results for BFGS iteration    8       Current function value  =        -66.990532715
                                     Previous function value =        -66.990532055
 Current variables and gradients:
 BFGS       S_PAR(1)                  1.481460       -0.0001768
 BFGS       P_PAR(1)                  1.682689       -0.0000496
 BFGS       D_PAR(1)                  1.273652       -0.0000611
 BFGS       F_PAR(1)                  1.499828       -0.0000329

 BFGS update of inverse hessian 

 Results for BFGS iteration    9       Current function value  =        -66.990533851
                                     Previous function value =        -66.990532715
 Current variables and gradients:
 BFGS       S_PAR(1)                  1.493966       -0.0001544
 BFGS       P_PAR(1)                  1.684106       -0.0000400
 BFGS       D_PAR(1)                  1.271566       -0.0002614
 BFGS       F_PAR(1)                  1.496934       -0.0000735

 BFGS update of inverse hessian 

 Results for BFGS iteration   10       Current function value  =        -66.990535929
                                     Previous function value =        -66.990533851
 Current variables and gradients:
 BFGS       S_PAR(1)                  1.523223       -0.0001043
 BFGS       P_PAR(1)                  1.686660       -0.0000230
 BFGS       D_PAR(1)                  1.269712       -0.0004417
 BFGS       F_PAR(1)                  1.494558       -0.0001067

 BFGS update of inverse hessian 

 Results for BFGS iteration   11       Current function value  =        -66.990538190
                                     Previous function value =        -66.990535929
 Current variables and gradients:
 BFGS       S_PAR(1)                  1.563533       -0.0000402
 BFGS       P_PAR(1)                  1.689495       -0.0000043
 BFGS       D_PAR(1)                  1.270056       -0.0004095
 BFGS       F_PAR(1)                  1.495482       -0.0000933

 BFGS update of inverse hessian 

 Results for BFGS iteration   12       Current function value  =        -66.990539299
                                     Previous function value =        -66.990538190
 Current variables and gradients:
 BFGS       S_PAR(1)                  1.590268       -0.0000006
 BFGS       P_PAR(1)                  1.690659        0.0000032
 BFGS       D_PAR(1)                  1.272467       -0.0001777
 BFGS       F_PAR(1)                  1.499328       -0.0000388

 BFGS update of inverse hessian 

 Results for BFGS iteration   13       Current function value  =        -66.990539454
                                     Previous function value =        -66.990539299
 Current variables and gradients:
 BFGS       S_PAR(1)                  1.593477        0.0000040
 BFGS       P_PAR(1)                  1.690404        0.0000014
 BFGS       D_PAR(1)                  1.273969       -0.0000345
 BFGS       F_PAR(1)                  1.501582       -0.0000070

 PROGRAM * MINIMIZE (General minimization)     Authors: H.-J. Werner, P.J. Knowles, K.A. Peterson


 Minimization of EVAL using the BFGS method has converged after   13 iterations


 Running procedure=OPT_BASIS
 SETTING BASIS          =    USERDEF


 Current variables in basis input:

 Set= 1  S_PAR(1)            =       1.59347654
 Set= 1  P_PAR(1)            =       1.69040364
 Set= 1  D_PAR(1)            =       1.27396918
 Set= 1  F_PAR(1)            =       1.50158166

 Recomputing integrals since basis changed


 Using spherical harmonics



 PROGRAM * SEWARD (Integral evaluation for generally contracted gaussian basis sets)     Author: Roland Lindh, 1990

 Geometry written to block  1 of record 700

 Orientation using atomic masses  
 Molecule type: Atom
 Symmetry elements: X,Y,Z
 Rotational constants:       0.0000000      0.0000000      0.0000000 GHz  (calculated with average atomic masses)

 Point group  D2h 



 ATOMIC COORDINATES

 NR  ATOM    CHARGE       X              Y              Z

   1  W      14.00    0.000000000    0.000000000    0.000000000


          W   CORE POTENTIAL

          g POTENTIAL

 POWERS             1              3              2              2
 EXPONENTIALS   10.18896       9.478240       10.14688       5.491651    
 COEFFICIENTS   14.00000       142.6454      -100.0787     -0.9415780    

          s - g POTENTIAL

 POWERS             2              2
 EXPONENTIALS   11.27396       8.410924    
 COEFFICIENTS   420.4798       39.58494    

          p - g POTENTIAL

 POWERS             2              2              4
 EXPONENTIALS   8.517824       1.608091       10.07349    
 COEFFICIENTS   320.8772     -0.4728210      0.1129290    

          d - g POTENTIAL

 POWERS             2              2              4
 EXPONENTIALS   6.059286       1.104853       6.262477    
 COEFFICIENTS   158.0780     -0.2832990     -0.4594900    

          f - g POTENTIAL

 POWERS             2              2
 EXPONENTIALS   2.075342       1.845947    
 COEFFICIENTS   7.745405       6.916005    


 BASIS DATA

   Nr Sym  Nuc  Type         Exponents   Contraction coefficients

    1.1 Ag    1  1s          74.376481    -0.001943    0.000543   -0.000723    0.000000
    2.1 Ag                   39.115990     0.017833   -0.005268    0.007492    0.000000
    3.1 Ag                   20.571835    -0.117540    0.036666   -0.054596    0.000000
    4.1 Ag                   10.819115     0.471463   -0.153622    0.233521    0.000000
                              5.689976    -0.655046    0.225025   -0.341100    0.000000
                              2.992465    -0.399173    0.140074   -0.249111    0.000000
                              1.573794     0.440734   -0.169850    0.263863    0.000000
                              0.827688     0.743098   -0.392735    0.951309    0.000000
                              0.435297     0.261234   -0.230076    0.314455    0.000000
                              0.228931     0.028154    0.050209   -1.462869    0.000000
                              0.120399    -0.001891    0.441577   -0.753064    0.000000
                              0.063320     0.001524    0.452557    0.479974    0.000000
                              0.033301    -0.000367    0.285977    0.913763    1.000000
    5.1 Ag    1  1s           1.593477     1.000000
    6.1 Ag    1  3d0         61.907933    -0.000024
                             32.585172     0.000233
                             17.151169    -0.002245
                              9.027499     0.020877
                              4.751614    -0.090172
                              2.501007     0.023170
                              1.316402     0.205899
                              0.692887     0.321552
                              0.364700     0.323472
                              0.191960     0.230789
                              0.101038     0.111668
                              0.053181     0.026522
                              0.027992     0.001600
    7.1 Ag    1  3d2+        61.907933    -0.000024
                             32.585172     0.000233
                             17.151169    -0.002245
                              9.027499     0.020877
                              4.751614    -0.090172
                              2.501007     0.023170
                              1.316402     0.205899
                              0.692887     0.321552
                              0.364700     0.323472
                              0.191960     0.230789
                              0.101038     0.111668
                              0.053181     0.026522
                              0.027992     0.001600
    8.1 Ag    1  3d0         61.907933     0.000005
                             32.585172    -0.000160
                             17.151169     0.002296
                              9.027499    -0.024432
                              4.751614     0.112596
                              2.501007    -0.039514
                              1.316402    -0.295539
                              0.692887    -0.461445
                              0.364700    -0.080208
                              0.191960     0.499620
                              0.101038     0.418172
                              0.053181     0.115203
                              0.027992     0.006691
    9.1 Ag    1  3d2+        61.907933     0.000005
                             32.585172    -0.000160
                             17.151169     0.002296
                              9.027499    -0.024432
                              4.751614     0.112596
                              2.501007    -0.039514
                              1.316402    -0.295539
                              0.692887    -0.461445
                              0.364700    -0.080208
                              0.191960     0.499620
                              0.101038     0.418172
                              0.053181     0.115203
                              0.027992     0.006691
   10.1 Ag    1  3d0         61.907933     0.000000
                             32.585172     0.000000
                             17.151169     0.000000
                              9.027499     0.000000
                              4.751614     0.000000
                              2.501007     0.000000
                              1.316402     0.000000
                              0.692887     0.000000
                              0.364700     0.000000
                              0.191960     0.000000
                              0.101038     0.000000
                              0.053181     0.000000
                              0.027992     1.000000
   11.1 Ag    1  3d2+        61.907933     0.000000
                             32.585172     0.000000
                             17.151169     0.000000
                              9.027499     0.000000
                              4.751614     0.000000
                              2.501007     0.000000
                              1.316402     0.000000
                              0.692887     0.000000
                              0.364700     0.000000
                              0.191960     0.000000
                              0.101038     0.000000
                              0.053181     0.000000
                              0.027992     1.000000
   12.1 Ag    1  3d0          1.273969     1.000000
   13.1 Ag    1  3d2+         1.273969     1.000000
    1.2 B3u   1  2px         70.819882    -0.000490    0.000163    0.000303    0.000000
    2.2 B3u                  37.221301     0.003813   -0.001343   -0.002446    0.000000
    3.2 B3u                  19.562660    -0.025616    0.009623    0.017437    0.000000
    4.2 B3u                  10.281684     0.138740   -0.054556   -0.100369    0.000000
                              5.403817    -0.324560    0.133038    0.254215    0.000000
                              2.840122    -0.052031    0.016039    0.008313    0.000000
                              1.492703     0.389641   -0.166103   -0.306300    0.000000
                              0.784530     0.505922   -0.285080   -0.886702    0.000000
                              0.412331     0.253444   -0.196871    0.536764    0.000000
                              0.216712     0.053377    0.313765    1.436864    0.000000
                              0.113899     0.005287    0.600814   -0.560326    0.000000
                              0.059863     0.001309    0.278010   -0.664182    0.000000
                              0.031462    -0.000050    0.026886   -0.091688    1.000000
    5.2 B3u   1  2px          1.690404     1.000000
    6.2 B3u   1  4f1+         0.820464     1.000000
    7.2 B3u   1  4f3+         0.820464     1.000000
    8.2 B3u   1  4f1+         1.501582     1.000000
    9.2 B3u   1  4f3+         1.501582     1.000000
    1.3 B2u   1  2py         70.819882    -0.000490    0.000163    0.000303    0.000000
    2.3 B2u                  37.221301     0.003813   -0.001343   -0.002446    0.000000
    3.3 B2u                  19.562660    -0.025616    0.009623    0.017437    0.000000
    4.3 B2u                  10.281684     0.138740   -0.054556   -0.100369    0.000000
                              5.403817    -0.324560    0.133038    0.254215    0.000000
                              2.840122    -0.052031    0.016039    0.008313    0.000000
                              1.492703     0.389641   -0.166103   -0.306300    0.000000
                              0.784530     0.505922   -0.285080   -0.886702    0.000000
                              0.412331     0.253444   -0.196871    0.536764    0.000000
                              0.216712     0.053377    0.313765    1.436864    0.000000
                              0.113899     0.005287    0.600814   -0.560326    0.000000
                              0.059863     0.001309    0.278010   -0.664182    0.000000
                              0.031462    -0.000050    0.026886   -0.091688    1.000000
    5.3 B2u   1  2py          1.690404     1.000000
    6.3 B2u   1  4f1-         0.820464     1.000000
    7.3 B2u   1  4f3-         0.820464     1.000000
    8.3 B2u   1  4f1-         1.501582     1.000000
    9.3 B2u   1  4f3-         1.501582     1.000000
    1.4 B1g   1  3d2-        61.907933    -0.000024    0.000005    0.000000
    2.4 B1g                  32.585172     0.000233   -0.000160    0.000000
    3.4 B1g                  17.151169    -0.002245    0.002296    0.000000
                              9.027499     0.020877   -0.024432    0.000000
                              4.751614    -0.090172    0.112596    0.000000
                              2.501007     0.023170   -0.039514    0.000000
                              1.316402     0.205899   -0.295539    0.000000
                              0.692887     0.321552   -0.461445    0.000000
                              0.364700     0.323472   -0.080208    0.000000
                              0.191960     0.230789    0.499620    0.000000
                              0.101038     0.111668    0.418172    0.000000
                              0.053181     0.026522    0.115203    0.000000
                              0.027992     0.001600    0.006691    1.000000
    4.4 B1g   1  3d2-         1.273969     1.000000
    1.5 B1u   1  2pz         70.819882    -0.000490    0.000163    0.000303    0.000000
    2.5 B1u                  37.221301     0.003813   -0.001343   -0.002446    0.000000
    3.5 B1u                  19.562660    -0.025616    0.009623    0.017437    0.000000
    4.5 B1u                  10.281684     0.138740   -0.054556   -0.100369    0.000000
                              5.403817    -0.324560    0.133038    0.254215    0.000000
                              2.840122    -0.052031    0.016039    0.008313    0.000000
                              1.492703     0.389641   -0.166103   -0.306300    0.000000
                              0.784530     0.505922   -0.285080   -0.886702    0.000000
                              0.412331     0.253444   -0.196871    0.536764    0.000000
                              0.216712     0.053377    0.313765    1.436864    0.000000
                              0.113899     0.005287    0.600814   -0.560326    0.000000
                              0.059863     0.001309    0.278010   -0.664182    0.000000
                              0.031462    -0.000050    0.026886   -0.091688    1.000000
    5.5 B1u   1  2pz          1.690404     1.000000
    6.5 B1u   1  4f0          0.820464     1.000000
    7.5 B1u   1  4f2+         0.820464     1.000000
    8.5 B1u   1  4f0          1.501582     1.000000
    9.5 B1u   1  4f2+         1.501582     1.000000
    1.6 B2g   1  3d1+        61.907933    -0.000024    0.000005    0.000000
    2.6 B2g                  32.585172     0.000233   -0.000160    0.000000
    3.6 B2g                  17.151169    -0.002245    0.002296    0.000000
                              9.027499     0.020877   -0.024432    0.000000
                              4.751614    -0.090172    0.112596    0.000000
                              2.501007     0.023170   -0.039514    0.000000
                              1.316402     0.205899   -0.295539    0.000000
                              0.692887     0.321552   -0.461445    0.000000
                              0.364700     0.323472   -0.080208    0.000000
                              0.191960     0.230789    0.499620    0.000000
                              0.101038     0.111668    0.418172    0.000000
                              0.053181     0.026522    0.115203    0.000000
                              0.027992     0.001600    0.006691    1.000000
    4.6 B2g   1  3d1+         1.273969     1.000000
    1.7 B3g   1  3d1-        61.907933    -0.000024    0.000005    0.000000
    2.7 B3g                  32.585172     0.000233   -0.000160    0.000000
    3.7 B3g                  17.151169    -0.002245    0.002296    0.000000
                              9.027499     0.020877   -0.024432    0.000000
                              4.751614    -0.090172    0.112596    0.000000
                              2.501007     0.023170   -0.039514    0.000000
                              1.316402     0.205899   -0.295539    0.000000
                              0.692887     0.321552   -0.461445    0.000000
                              0.364700     0.323472   -0.080208    0.000000
                              0.191960     0.230789    0.499620    0.000000
                              0.101038     0.111668    0.418172    0.000000
                              0.053181     0.026522    0.115203    0.000000
                              0.027992     0.001600    0.006691    1.000000
    4.7 B3g   1  3d1-         1.273969     1.000000
    1.8 Au    1  4f2-         0.820464     1.000000
    2.8 Au    1  4f2-         1.501582     1.000000

 NUCLEAR CHARGE:                   14
 NUMBER OF PRIMITIVE AOS:         160
 NUMBER OF SYMMETRY AOS:          140
 NUMBER OF CONTRACTIONS:           54   (  13Ag  +   9B3u +   9B2u +   4B1g +   9B1u +   4B2g +   4B3g +   2Au  )
 NUMBER OF CORE ORBITALS:           4   (   1Ag  +   1B3u +   1B2u +   0B1g +   1B1u +   0B2g +   0B3g +   0Au  )
 NUMBER OF VALENCE ORBITALS:        6   (   3Ag  +   0B3u +   0B2u +   1B1g +   0B1u +   1B2g +   1B3g +   0Au  )


 NUCLEAR REPULSION ENERGY    0.00000000


 Maximum number of basis and dump records reached. Truncating dump files before previous basis set!

 EXTRA SYMMETRY OF AOS IN SYMMETRY 1:   1 1 1 1 1 2 3 2 3 2   3 2 3
 EXTRA SYMMETRY OF AOS IN SYMMETRY 2:   1 1 1 1 1 2 3 2 3
 EXTRA SYMMETRY OF AOS IN SYMMETRY 3:   1 1 1 1 1 2 3 2 3
 EXTRA SYMMETRY OF AOS IN SYMMETRY 5:   1 1 1 1 1 2 3 2 3

 Eigenvalues of metric

         1 0.110E-01 0.103E+00 0.103E+00 0.272E+00 0.574E+00 0.574E+00 0.992E+00 0.144E+01
         2 0.114E+00 0.183E+00 0.183E+00 0.198E+00 0.100E+01 0.176E+01 0.182E+01 0.182E+01
         3 0.114E+00 0.183E+00 0.183E+00 0.198E+00 0.100E+01 0.176E+01 0.182E+01 0.182E+01
         4 0.103E+00 0.574E+00 0.144E+01 0.189E+01
         5 0.114E+00 0.183E+00 0.183E+00 0.198E+00 0.100E+01 0.176E+01 0.182E+01 0.182E+01
         6 0.103E+00 0.574E+00 0.144E+01 0.189E+01
         7 0.103E+00 0.574E+00 0.144E+01 0.189E+01
         8 0.183E+00 0.182E+01


 Contracted 2-electron integrals neglected if value below      1.0D-12
 AO integral compression algorithm  1   Integral accuracy      1.0D-12

     3.932 MB (compressed) written to integral file (100.0%)

     Node minimum: 0.262 MB, node maximum: 0.262 MB


 NUMBER OF SORTED TWO-ELECTRON INTEGRALS:      10776.     BUFFER LENGTH:  32768
 NUMBER OF SEGMENTS:   1  SEGMENT LENGTH:      10776      RECORD LENGTH: 524288

 Memory used in sort:       0.57 MW

 SORT1 READ      321044. AND WROTE        8795. INTEGRALS IN      1 RECORDS. CPU TIME:     0.04 SEC, REAL TIME:     0.06 SEC
 SORT2 READ      125920. AND WROTE      153544. INTEGRALS IN     15 RECORDS. CPU TIME:     0.01 SEC, REAL TIME:     0.01 SEC

 Node minimum:        7623.  Node maximum:       13019. integrals

 OPERATOR DM      FOR CENTER  0  COORDINATES:    0.000000    0.000000    0.000000


 **********************************************************************************************************************************
 DATASETS  * FILE   NREC   LENGTH (MB)   RECORD NAMES
              1      19       19.91       500      610      700      900      950      970     1029      129      960     1100   
                                          VAR    BASINP    GEOM    SYMINP    ZMAT    AOBASIS   BASIS     P2S    ABASIS      S 
                                         1400     1410     1420     1200     1210     1080     1600     1650     1700   
                                           T        V       ECP      H0       H01     AOSYM     SMH    MOLCAS    OPER   

              2     120      219.83       200      700     1000      520     4302     5302     2101     1001     4302     5302   
                                        OPTIONS   GEOM     BASIS   MCVARS     RHF     MCSCF     RHF     BASIS     RHF     MCSCF   
                                         2102     1002     4302     5302     2103     1003     4302     5302     2104     1004   
                                          RHF     BASIS     RHF     MCSCF     RHF     BASIS     RHF     MCSCF     RHF     BASIS   
                                         4302     5302     2105     1005     4302     5302     2106     1006     4302     5302   
                                          RHF     MCSCF     RHF     BASIS     RHF     MCSCF     RHF     BASIS     RHF     MCSCF   
                                         2107     1007     4302     5302     2108     1008     4302     5302     2109     1009   
                                          RHF     BASIS     RHF     MCSCF     RHF     BASIS     RHF     MCSCF     RHF     BASIS   
                                         4302     5302     2110     1010     4302     5302     2111     1011     4302     5302   
                                          RHF     MCSCF     RHF     BASIS     RHF     MCSCF     RHF     BASIS     RHF     MCSCF   
                                         2112     1012     4302     5302     2113     1013     4302     5302     2114     1014   
                                          RHF     BASIS     RHF     MCSCF     RHF     BASIS     RHF     MCSCF     RHF     BASIS   
                                         4302     5302     2115     1015     4302     5302     2116     1016     4302     5302   
                                          RHF     MCSCF     RHF     BASIS     RHF     MCSCF     RHF     BASIS     RHF     MCSCF   
                                         2117     1017     4302     5302     2118     1018     4302     5302     2119     1019   
                                          RHF     BASIS     RHF     MCSCF     RHF     BASIS     RHF     MCSCF     RHF     BASIS   
                                         4302     5302     2120     1020     4302     5302     2121     1021     4302     5302   
                                          RHF     MCSCF     RHF     BASIS     RHF     MCSCF     RHF     BASIS     RHF     MCSCF   
                                         2122     1022     4302     5302     2123     1023     4302     5302     2124     1024   
                                          RHF     BASIS     RHF     MCSCF     RHF     BASIS     RHF     MCSCF     RHF     BASIS   
                                         4302     5302     2125     1025     4302     5302     2126     1026     4302     5302   
                                          RHF     MCSCF     RHF     BASIS     RHF     MCSCF     RHF     BASIS     RHF     MCSCF   
                                         2127     1027     4302     5302     2128     1028     4302     5302     2129     1029   
                                          RHF     BASIS     RHF     MCSCF     RHF     BASIS     RHF     MCSCF     RHF     BASIS   

 PROGRAMS   *        TOTAL       INT        CI      DATA      DATA       RHF     MULTI       POP       RHF       INT        CI
 CPU TIMES  *       250.55      0.86      0.38      0.00      0.00      0.03      0.50      0.00      0.29      0.85      0.37
 REAL TIME  *       501.55 SEC
 DISK USED  *         3.78 GB      
 SF USED    *        12.62 MB      
 GA USED    *         0.00 MB       (max)       0.00 MB       (current)
 **********************************************************************************************************************************


 PROGRAM * RHF-SCF (OPEN SHELL)       Authors: W. Meyer, H.-J. Werner


 NUMBER OF ELECTRONS:       9+    5-    SPACE SYMMETRY=1    SPIN SYMMETRY: Quintet 
 CONVERGENCE THRESHOLDS:    1.00E-05 (Density)    1.00E-07 (Energy)
 MAX. NUMBER OF ITERATIONS:       60
 INTERPOLATION TYPE:            DIIS
 INTERPOLATION STEPS:              2 (START)      1 (STEP)
 LEVEL SHIFTS:                 -0.60 (CLOSED) -0.30 (OPEN) 

 Number of closed-shell orbitals:    5 (   2   1   1   0   1   0   0   0 )
 Number of open-shell orbitals:      4 (   1   0   0   1   0   1   1   0 )


 
 Extra symmetries of mos in symmetry 1:   1   1   3   2

   Atom=W  basis=cc-pVTZ-PP        lmin=0  lmax=2

 Orbital guess generated from atomic densities. Full valence occupancy:    4   1   1   1   1   1   1   0


 Molecular orbital dump at record        4202.2

 ITERATION    DDIFF          GRAD             ENERGY        2-EL.EN.            DIPOLE MOMENTS         DIIS   ORB.
    1      0.000D+00      0.000D+00       -66.65239274     89.962538    0.00000    0.00000    0.00000    0    start
    2      0.000D+00      0.135D-01       -66.68860813     92.193036    0.00000    0.00000    0.00000    1    diag,B
    3      0.119D-01      0.556D-02       -66.69298827     92.398793    0.00000    0.00000    0.00000    2    diag,B
    4      0.686D-02      0.279D-02       -66.69523176     92.540210    0.00000    0.00000    0.00000    3    diag,B
    5      0.600D-02      0.993D-03       -66.69564656     92.554414    0.00000    0.00000    0.00000    4    diag,B
    6      0.195D-02      0.583D-03       -66.69583339     92.528125    0.00000    0.00000    0.00000    5    diag,B
    7      0.466D-02      0.348D-03       -66.69592395     92.505163    0.00000    0.00000    0.00000    6    fixocc
    8      0.474D-02      0.207D-03       -66.69595819     92.503932    0.00000    0.00000    0.00000    7    diag,B
    9      0.141D-02      0.133D-03       -66.69597651     92.513397    0.00000    0.00000    0.00000    8    diag,B
   10      0.135D-02      0.400D-04       -66.69597776     92.518102    0.00000    0.00000    0.00000    9    orth
   11      0.673D-03      0.348D-05       -66.69597777     92.518282    0.00000    0.00000    0.00000    9    diag,B
   12      0.242D-04      0.122D-05       -66.69597777     92.518313    0.00000    0.00000    0.00000    9    diag,B
   13      0.304D-05      0.709D-06       -66.69597777     92.518320    0.00000    0.00000    0.00000    0    orth

 Final alpha occupancy:   3   1   1   1   1   1   1   0
 Final beta  occupancy:   2   1   1   0   1   0   0   0

 !RHF STATE 1.1 Energy                -66.695977767294
 Nuclear energy                         0.00000000
 One-electron energy                 -112.95513770
 Two-electron energy                   46.25915993
 Virial quotient                       -2.91890353
 !RHF STATE 1.1 Dipole moment           0.00000000     0.00000000     0.00000000
 Dipole moment /Debye                   0.00000000     0.00000000     0.00000000

 ELECTRON ORBITALS
 =================


   Orb  Occ    Energy  Couls-En    Coefficients

                                   1 1s      1 1s      1 1s      1 1s      1 1s      1 3d0     1 3d2+    1 3d0     1 3d2+    1 3d0  
                                   1 3d2+    1 3d0     1 3d2+ 

   1.1   2    -3.4287  -14.5233  0.999959 -0.000079 -0.000082  0.000138 -0.000010  0.001370 -0.000006 -0.001262  0.000001  0.000270
                                -0.000000  0.001867 -0.000001

   2.1   2    -0.2625   -4.6872  0.000112  0.998128  0.000084 -0.000421  0.000025  0.064792 -0.000104  0.013265 -0.000012  0.002845
                                -0.000004 -0.000044 -0.000001

   3.1   +    -0.3613   -6.8032  0.000011  0.000141 -0.000016 -0.000013  0.000001 -0.000348  1.000036 -0.000000 -0.000166  0.000000
                                -0.000051  0.000000 -0.000038

   4.1   0     0.0385   -5.0693  0.008105 -0.027804  0.004472 -0.040378  0.002448  0.826952  0.000295  0.101532  0.000035  0.379593
                                 0.000134  0.010151  0.000004

   5.1   0     0.0955   -1.7743  0.000003  0.000023  0.000001 -0.000013  0.000001  0.000063 -0.178625  0.000019 -0.053247 -0.000364
                                 1.036926  0.000005 -0.013991

                                   1 2px     1 2px     1 2px     1 2px     1 2px     1 4f1+    1 4f3+    1 4f1+    1 4f3+ 

   1.2   2    -1.9237  -11.2678  0.999986  0.000024 -0.000008 -0.000003 -0.000009  0.006035 -0.000001  0.000615 -0.000001

   2.2   0     0.0284   -2.7684 -0.110621  0.185806  0.014554  0.875663 -0.006136  0.003633  0.000001 -0.001549 -0.000000

   3.2   0     0.2053   -2.8963  0.177099  1.545336 -0.319109 -1.375294  0.003353  0.005152  0.000002 -0.002228 -0.000000

                                   1 2py     1 2py     1 2py     1 2py     1 2py     1 4f1-    1 4f3-    1 4f1-    1 4f3- 

   1.3   2    -1.9237  -11.2678  0.999986  0.000022 -0.000009 -0.000003 -0.000009  0.006038 -0.000001  0.000615 -0.000001

   2.3   0     0.0284   -2.7683 -0.110621  0.185791  0.014554  0.875675 -0.006137  0.003637  0.000001 -0.001550 -0.000000

   3.3   0     0.2053   -2.8963  0.177100  1.545340 -0.319113 -1.375288  0.003353  0.005158  0.000002 -0.002230 -0.000000

                                   1 3d2-    1 3d2-    1 3d2-    1 3d2- 

   1.4   +    -0.3613   -6.8032  1.000037 -0.000166 -0.000051 -0.000038

   2.4   0     0.0955   -1.7743 -0.178625 -0.053247  1.036926 -0.013991

   3.4   0     0.6626   -3.5684 -0.078353  1.223746 -0.447996  0.219111

                                   1 2pz     1 2pz     1 2pz     1 2pz     1 2pz     1 4f0     1 4f2+    1 4f0     1 4f2+ 

   1.5   2    -1.9305  -11.2797  1.000117 -0.001917 -0.001782 -0.000441 -0.000088 -0.004876 -0.000004  0.001856 -0.000000

   2.5   0     0.0266   -2.7804 -0.108323  0.194999  0.011806  0.867101 -0.006081 -0.005217 -0.000001  0.001245  0.000001

   3.5   0     0.2034   -2.8851  0.179361  1.544209 -0.319084 -1.380184  0.003498 -0.007734 -0.000002  0.001810  0.000001

                                   1 3d1+    1 3d1+    1 3d1+    1 3d1+ 

   1.6   +    -0.3881   -6.8670  1.002129 -0.013037 -0.004026 -0.002036

   2.6   0     0.0947   -1.7719 -0.170245 -0.048943  1.035300 -0.013282

   3.6   0     0.6516   -3.5482 -0.065267  1.222698 -0.451506  0.217041

                                   1 3d1-    1 3d1-    1 3d1-    1 3d1- 

   1.7   +    -0.3881   -6.8670  1.002130 -0.013048 -0.004028 -0.002037

   2.7   0     0.0947   -1.7719 -0.170239 -0.048940  1.035299 -0.013282

   3.7   0     0.6516   -3.5482 -0.065255  1.222697 -0.451508  0.217040

                                   1 4f2-    1 4f2- 

   1.8   0     2.0033   -2.9461  1.230027 -0.300139

   2.8   0     6.5682    4.6747 -1.220929  1.706912

 HOMO      3.1    -0.361255 =      -9.8302eV
 LUMO      2.5     0.026557 =       0.7227eV
 LUMO-HOMO         0.387812 =      10.5529eV


 **********************************************************************************************************************************
 DATASETS  * FILE   NREC   LENGTH (MB)   RECORD NAMES
              1      19       19.91       500      610      700      900      950      970     1029      129      960     1100   
                                          VAR    BASINP    GEOM    SYMINP    ZMAT    AOBASIS   BASIS     P2S    ABASIS      S 
                                         1400     1410     1420     1200     1210     1080     1600     1650     1700   
                                           T        V       ECP      H0       H01     AOSYM     SMH    MOLCAS    OPER   

              2     121      222.33       200      700     1000      520     4302     5302     2101     1001     4302     5302   
                                        OPTIONS   GEOM     BASIS   MCVARS     RHF     MCSCF     RHF     BASIS     RHF     MCSCF   
                                         2102     1002     4302     5302     2103     1003     4302     5302     2104     1004   
                                          RHF     BASIS     RHF     MCSCF     RHF     BASIS     RHF     MCSCF     RHF     BASIS   
                                         4302     5302     2105     1005     4302     5302     2106     1006     4302     5302   
                                          RHF     MCSCF     RHF     BASIS     RHF     MCSCF     RHF     BASIS     RHF     MCSCF   
                                         2107     1007     4302     5302     2108     1008     4302     5302     2109     1009   
                                          RHF     BASIS     RHF     MCSCF     RHF     BASIS     RHF     MCSCF     RHF     BASIS   
                                         4302     5302     2110     1010     4302     5302     2111     1011     4302     5302   
                                          RHF     MCSCF     RHF     BASIS     RHF     MCSCF     RHF     BASIS     RHF     MCSCF   
                                         2112     1012     4302     5302     2113     1013     4302     5302     2114     1014   
                                          RHF     BASIS     RHF     MCSCF     RHF     BASIS     RHF     MCSCF     RHF     BASIS   
                                         4302     5302     2115     1015     4302     5302     2116     1016     4302     5302   
                                          RHF     MCSCF     RHF     BASIS     RHF     MCSCF     RHF     BASIS     RHF     MCSCF   
                                         2117     1017     4302     5302     2118     1018     4302     5302     2119     1019   
                                          RHF     BASIS     RHF     MCSCF     RHF     BASIS     RHF     MCSCF     RHF     BASIS   
                                         4302     5302     2120     1020     4302     5302     2121     1021     4302     5302   
                                          RHF     MCSCF     RHF     BASIS     RHF     MCSCF     RHF     BASIS     RHF     MCSCF   
                                         2122     1022     4302     5302     2123     1023     4302     5302     2124     1024   
                                          RHF     BASIS     RHF     MCSCF     RHF     BASIS     RHF     MCSCF     RHF     BASIS   
                                         4302     5302     2125     1025     4302     5302     2126     1026     4302     5302   
                                          RHF     MCSCF     RHF     BASIS     RHF     MCSCF     RHF     BASIS     RHF     MCSCF   
                                         2127     1027     4302     5302     2128     1028     4302     5302     2129     1029   
                                          RHF     BASIS     RHF     MCSCF     RHF     BASIS     RHF     MCSCF     RHF     BASIS   
                                         4202   
                                          RHF  

 PROGRAMS   *        TOTAL       RHF       INT        CI      DATA      DATA       RHF     MULTI       POP       RHF       INT
 CPU TIMES  *       250.72      0.17      0.86      0.38      0.00      0.00      0.03      0.50      0.00      0.29      0.85
 REAL TIME  *       501.80 SEC
 DISK USED  *         3.78 GB      
 SF USED    *        12.62 MB      
 GA USED    *         0.00 MB       (max)       0.00 MB       (current)
 **********************************************************************************************************************************


 PROGRAM * POP (Mulliken population analysis)

 
 Density matrix read from record         4202.2  Type=RHF/CHARGE (state 1.1)
 
 Population analysis by basis function type

 Unique atom        s        p        d        f        g    Total    Charge
   1  W       3.99100  5.99980  4.00900  0.00020  0.00000 14.00000  - 0.00000


 **********************************************************************************************************************************
 DATASETS  * FILE   NREC   LENGTH (MB)   RECORD NAMES
              1      19       19.91       500      610      700      900      950      970     1029      129      960     1100   
                                          VAR    BASINP    GEOM    SYMINP    ZMAT    AOBASIS   BASIS     P2S    ABASIS      S 
                                         1400     1410     1420     1200     1210     1080     1600     1650     1700   
                                           T        V       ECP      H0       H01     AOSYM     SMH    MOLCAS    OPER   

              2     121      222.33       200      700     1000      520     4302     5302     2101     1001     4302     5302   
                                        OPTIONS   GEOM     BASIS   MCVARS     RHF     MCSCF     RHF     BASIS     RHF     MCSCF   
                                         2102     1002     4302     5302     2103     1003     4302     5302     2104     1004   
                                          RHF     BASIS     RHF     MCSCF     RHF     BASIS     RHF     MCSCF     RHF     BASIS   
                                         4302     5302     2105     1005     4302     5302     2106     1006     4302     5302   
                                          RHF     MCSCF     RHF     BASIS     RHF     MCSCF     RHF     BASIS     RHF     MCSCF   
                                         2107     1007     4302     5302     2108     1008     4302     5302     2109     1009   
                                          RHF     BASIS     RHF     MCSCF     RHF     BASIS     RHF     MCSCF     RHF     BASIS   
                                         4302     5302     2110     1010     4302     5302     2111     1011     4302     5302   
                                          RHF     MCSCF     RHF     BASIS     RHF     MCSCF     RHF     BASIS     RHF     MCSCF   
                                         2112     1012     4302     5302     2113     1013     4302     5302     2114     1014   
                                          RHF     BASIS     RHF     MCSCF     RHF     BASIS     RHF     MCSCF     RHF     BASIS   
                                         4302     5302     2115     1015     4302     5302     2116     1016     4302     5302   
                                          RHF     MCSCF     RHF     BASIS     RHF     MCSCF     RHF     BASIS     RHF     MCSCF   
                                         2117     1017     4302     5302     2118     1018     4302     5302     2119     1019   
                                          RHF     BASIS     RHF     MCSCF     RHF     BASIS     RHF     MCSCF     RHF     BASIS   
                                         4302     5302     2120     1020     4302     5302     2121     1021     4302     5302   
                                          RHF     MCSCF     RHF     BASIS     RHF     MCSCF     RHF     BASIS     RHF     MCSCF   
                                         2122     1022     4302     5302     2123     1023     4302     5302     2124     1024   
                                          RHF     BASIS     RHF     MCSCF     RHF     BASIS     RHF     MCSCF     RHF     BASIS   
                                         4302     5302     2125     1025     4302     5302     2126     1026     4302     5302   
                                          RHF     MCSCF     RHF     BASIS     RHF     MCSCF     RHF     BASIS     RHF     MCSCF   
                                         2127     1027     4302     5302     2128     1028     4302     5302     2129     1029   
                                          RHF     BASIS     RHF     MCSCF     RHF     BASIS     RHF     MCSCF     RHF     BASIS   
                                         4202   
                                          RHF  

 PROGRAMS   *        TOTAL       POP       RHF       INT        CI      DATA      DATA       RHF     MULTI       POP       RHF
 CPU TIMES  *       250.72      0.00      0.17      0.86      0.38      0.00      0.00      0.03      0.50      0.00      0.29
 REAL TIME  *       501.81 SEC
 DISK USED  *         3.78 GB      
 SF USED    *        12.62 MB      
 GA USED    *         0.00 MB       (max)       0.00 MB       (current)
 **********************************************************************************************************************************


 Current variables in basis input:

 Set= 1  S_PAR(1)            =       1.59347654
 Set= 1  P_PAR(1)            =       1.69040364
 Set= 1  D_PAR(1)            =       1.27396918
 Set= 1  F_PAR(1)            =       1.50158166

 PROGRAM * MULTI (Direct Multiconfiguration SCF)       Authors: P.J. Knowles, H.-J. Werner (1984)     S.T. Elbert (1988)


 Number of closed-shell orbitals:   5 (   2   1   1   0   1   0   0   0 )
 Number of active  orbitals:        5 (   2   0   0   1   0   1   1   0 )
 Number of external orbitals:      44 (   9   8   8   3   8   3   3   2 )

 State symmetry 1

 Number of electrons:     4    Spin symmetry=Quintet   Space symmetry=1
 Number of states:        2
 Number of CSFs:          2   (2 determinants, 5 intermediate states)

 State symmetry 2

 Number of electrons:     4    Spin symmetry=Quintet   Space symmetry=4
 Number of states:        1
 Number of CSFs:          1   (1 determinants, 5 intermediate states)

 State symmetry 3

 Number of electrons:     4    Spin symmetry=Quintet   Space symmetry=6
 Number of states:        1
 Number of CSFs:          1   (1 determinants, 5 intermediate states)

 State symmetry 4

 Number of electrons:     4    Spin symmetry=Quintet   Space symmetry=7
 Number of states:        1
 Number of CSFs:          1   (1 determinants, 5 intermediate states)

 Molecular orbitals read from record     4202.2  Type=RHF/CANONICAL (state 1.1)
 *** IN SYMMETRY 1 ORBITAL  1 SYMMETRY CONTAMINATION OF 0.475D-02 HAS BEEN REMOVED
 *** IN SYMMETRY 1 ORBITAL  2 SYMMETRY CONTAMINATION OF 0.751D-01 HAS BEEN REMOVED
 *** IN SYMMETRY 1 ORBITAL  3 SYMMETRY CONTAMINATION OF 0.530D-03 HAS BEEN REMOVED
 *** IN SYMMETRY 1 ORBITAL  4 SYMMETRY CONTAMINATION OF 0.597D-01 HAS BEEN REMOVED

 EXTRA SYMMETRY OF MOS IN SYMMETRY 1:   1 1 3 2 3 2 1 3 2 1   3 2 1
 *** IN SYMMETRY 2 ORBITAL  1 SYMMETRY CONTAMINATION OF 0.661D-02 HAS BEEN REMOVED
 EXTRA SYMMETRY OF MOS IN SYMMETRY 2:   1 1 1 1 3 2 2 3 1
 *** IN SYMMETRY 3 ORBITAL  1 SYMMETRY CONTAMINATION OF 0.661D-02 HAS BEEN REMOVED
 EXTRA SYMMETRY OF MOS IN SYMMETRY 3:   1 1 1 1 3 2 2 3 1
 *** IN SYMMETRY 5 ORBITAL  1 SYMMETRY CONTAMINATION OF 0.666D-02 HAS BEEN REMOVED
 EXTRA SYMMETRY OF MOS IN SYMMETRY 5:   1 1 1 1 3 2 3 2 1

 Wavefunction dump at record             5202.2

 Convergence thresholds  0.10E-01 (gradient)  0.10E-05 (energy)  0.10E-02 (step length)

 Weight factors for state symmetry  1:    0.20000   0.20000
 Weight factors for state symmetry  2:    0.20000
 Weight factors for state symmetry  3:    0.20000
 Weight factors for state symmetry  4:    0.20000

 Number of orbital rotations:       73   (     4 Core/Active     42 Core/Virtual   0 Active/Active     27 Active/Virtual)
 Total number of variables:         80


 ITER. MIC  NCI  NEG     ENERGY(VAR)     ENERGY(PROJ)   ENERGY CHANGE     GRAD(0)  GRAD(ORB)   GRAD(CI)     STEP       TIME

   1   37   16    0     -66.64335100     -66.69389926   -0.05054827    0.13920803 0.00000000 0.00000000  0.43D+00      0.19
   2   15   20    0     -66.69371308     -66.69380619   -0.00009312    0.01204037 0.00000000 0.00000000  0.11D-01      0.22
   3   23   20    0     -66.69380640     -66.69380640   -0.00000000    0.00003821 0.00000000 0.00000000  0.38D-04      0.26

 ** WVFN ****  CONVERGENCE REACHED, FINAL GRADIENT:  0.52D-09



 Results for state 1.1
 =====================

 !MCSCF STATE 1.1 Energy              -66.693806403076
 Nuclear energy                         0.00000000
 Kinetic energy                        22.84342688
 One electron energy                 -112.94440755
 Two electron energy                   46.25060115
 Virial ratio                           3.91960601

 !MCSCF STATE 1.1 Dipole moment         0.00000000     0.00000000     0.00000000
 Dipole moment /Debye                   0.00000000     0.00000000     0.00000000

 Results for state 2.1
 =====================

 !MCSCF STATE 2.1 Energy              -66.693806403075
 Nuclear energy                         0.00000000
 Kinetic energy                        22.84342689
 One electron energy                 -112.94440755
 Two electron energy                   46.25060115
 Virial ratio                           3.91960601

 !MCSCF STATE 2.1 Dipole moment         0.00000000     0.00000000     0.00000000
 Dipole moment /Debye                   0.00000000     0.00000000     0.00000000



 Results for state 1.4
 =====================

 !MCSCF STATE 1.4 Energy              -66.693806403076
 Nuclear energy                         0.00000000
 Kinetic energy                        22.84342688
 One electron energy                 -112.94440755
 Two electron energy                   46.25060115
 Virial ratio                           3.91960601

 !MCSCF STATE 1.4 Dipole moment         0.00000000     0.00000000     0.00000000
 Dipole moment /Debye                   0.00000000     0.00000000     0.00000000



 Results for state 1.6
 =====================

 !MCSCF STATE 1.6 Energy              -66.693806403072
 Nuclear energy                         0.00000000
 Kinetic energy                        22.84342688
 One electron energy                 -112.94440755
 Two electron energy                   46.25060115
 Virial ratio                           3.91960601

 !MCSCF STATE 1.6 Dipole moment         0.00000000     0.00000000     0.00000000
 Dipole moment /Debye                   0.00000000     0.00000000     0.00000000



 Results for state 1.7
 =====================

 !MCSCF STATE 1.7 Energy              -66.693806403072
 Nuclear energy                         0.00000000
 Kinetic energy                        22.84342688
 One electron energy                 -112.94440755
 Two electron energy                   46.25060115
 Virial ratio                           3.91960601

 !MCSCF STATE 1.7 Dipole moment         0.00000000     0.00000000     0.00000000
 Dipole moment /Debye                   0.00000000     0.00000000     0.00000000

 State-averaged charge density matrix saved on record  5202.2 (density set 1)


 NATURAL ORBITALS (state averaged)
 =================================

   Orb     Occ        Energy       Coefficients

                                   1 1s      1 1s      1 1s      1 1s      1 1s      1 3d0     1 3d2+    1 3d0     1 3d2+    1 3d0  
                                   1 3d2+    1 3d0     1 3d2+ 

   1.1  2.00000    -3.429835     0.999995 -0.000017 -0.000008  0.000021 -0.000002  0.000000  0.000000  0.000000  0.000000  0.000000
                                 0.000000  0.000000  0.000000

   2.1  2.00000    -0.262328     0.000276  1.000283  0.000384 -0.000325  0.000020  0.000000  0.000000  0.000000  0.000000  0.000000
                                 0.000000  0.000000  0.000000

   3.1  0.80000    -0.057736     0.000000  0.000000  0.000000  0.000000  0.000000  1.001085  0.000000 -0.006590  0.000000 -0.002087
                                 0.000000 -0.000993  0.000000

   4.1  0.80000    -0.057736     0.000000  0.000000  0.000000  0.000000  0.000000  0.000000  1.001085  0.000000 -0.006590  0.000000
                                -0.002087  0.000000 -0.000993

                                   1 2px     1 2px     1 2px     1 2px     1 2px     1 4f1+    1 4f3+    1 4f1+    1 4f3+ 

   1.2  2.00000    -1.926884     1.000048 -0.000688 -0.000670 -0.000172 -0.000034  0.000000  0.000000  0.000000  0.000000

                                   1 2py     1 2py     1 2py     1 2py     1 2py     1 4f1-    1 4f3-    1 4f1-    1 4f3- 

   1.3  2.00000    -1.926884     1.000048 -0.000688 -0.000670 -0.000172 -0.000034  0.000000  0.000000  0.000000  0.000000

                                   1 3d2-    1 3d2-    1 3d2-    1 3d2- 

   1.4  0.80000    -0.057736     1.001085 -0.006590 -0.002087 -0.000993

                                   1 2pz     1 2pz     1 2pz     1 2pz     1 2pz     1 4f0     1 4f2+    1 4f0     1 4f2+ 

   1.5  2.00000    -1.926884     1.000048 -0.000688 -0.000670 -0.000172 -0.000034  0.000000  0.000000  0.000000  0.000000

                                   1 3d1+    1 3d1+    1 3d1+    1 3d1+ 

   1.6  0.80000    -0.057736     1.001085 -0.006590 -0.002087 -0.000993

                                   1 3d1-    1 3d1-    1 3d1-    1 3d1- 

   1.7  0.80000    -0.057736     1.001085 -0.006590 -0.002087 -0.000993
 

 EXTRA SYMMETRY OF MOS IN SYMMETRY 1:   1 1 2 3 3 2 1 3 2 1   3 2 1
 EXTRA SYMMETRY OF MOS IN SYMMETRY 2:   1 1 1 1 2 3 2 3 1
 EXTRA SYMMETRY OF MOS IN SYMMETRY 3:   1 1 1 1 2 3 2 3 1
 EXTRA SYMMETRY OF MOS IN SYMMETRY 5:   1 1 1 1 3 2 2 3 1

 Natural orbital dump (state averaged) at molpro section  5202.2    (Orbital set 2)


 CI vector for state symmetry 1
 ==============================

 0a a a a          0.0000000   1.0000000
 a0 a a a          1.0000000   0.0000000

 TOTAL ENERGIES                       -66.69380640   -66.69380640

 CI vector for state symmetry 2
 ==============================

 aa 0 a a          1.0000000

 TOTAL ENERGIES                       -66.69380640

 CI vector for state symmetry 3
 ==============================

 aa a 0 a          1.0000000

 TOTAL ENERGIES                       -66.69380640

 CI vector for state symmetry 4
 ==============================

 aa a a 0          1.0000000

 TOTAL ENERGIES                       -66.69380640



 **********************************************************************************************************************************
 DATASETS  * FILE   NREC   LENGTH (MB)   RECORD NAMES
              1      20       20.18       500      610      700      900      950      970     1029      129      960     1100   
                                          VAR    BASINP    GEOM    SYMINP    ZMAT    AOBASIS   BASIS     P2S    ABASIS      S 
                                         1400     1410     1420     1200     1210     1080     1600     1650     1700     1380   
                                           T        V       ECP      H0       H01     AOSYM     SMH    MOLCAS    OPER     JKOP   

              2     122      224.84       200      700     1000      520     4302     5302     2101     1001     4302     5302   
                                        OPTIONS   GEOM     BASIS   MCVARS     RHF     MCSCF     RHF     BASIS     RHF     MCSCF   
                                         2102     1002     4302     5302     2103     1003     4302     5302     2104     1004   
                                          RHF     BASIS     RHF     MCSCF     RHF     BASIS     RHF     MCSCF     RHF     BASIS   
                                         4302     5302     2105     1005     4302     5302     2106     1006     4302     5302   
                                          RHF     MCSCF     RHF     BASIS     RHF     MCSCF     RHF     BASIS     RHF     MCSCF   
                                         2107     1007     4302     5302     2108     1008     4302     5302     2109     1009   
                                          RHF     BASIS     RHF     MCSCF     RHF     BASIS     RHF     MCSCF     RHF     BASIS   
                                         4302     5302     2110     1010     4302     5302     2111     1011     4302     5302   
                                          RHF     MCSCF     RHF     BASIS     RHF     MCSCF     RHF     BASIS     RHF     MCSCF   
                                         2112     1012     4302     5302     2113     1013     4302     5302     2114     1014   
                                          RHF     BASIS     RHF     MCSCF     RHF     BASIS     RHF     MCSCF     RHF     BASIS   
                                         4302     5302     2115     1015     4302     5302     2116     1016     4302     5302   
                                          RHF     MCSCF     RHF     BASIS     RHF     MCSCF     RHF     BASIS     RHF     MCSCF   
                                         2117     1017     4302     5302     2118     1018     4302     5302     2119     1019   
                                          RHF     BASIS     RHF     MCSCF     RHF     BASIS     RHF     MCSCF     RHF     BASIS   
                                         4302     5302     2120     1020     4302     5302     2121     1021     4302     5302   
                                          RHF     MCSCF     RHF     BASIS     RHF     MCSCF     RHF     BASIS     RHF     MCSCF   
                                         2122     1022     4302     5302     2123     1023     4302     5302     2124     1024   
                                          RHF     BASIS     RHF     MCSCF     RHF     BASIS     RHF     MCSCF     RHF     BASIS   
                                         4302     5302     2125     1025     4302     5302     2126     1026     4302     5302   
                                          RHF     MCSCF     RHF     BASIS     RHF     MCSCF     RHF     BASIS     RHF     MCSCF   
                                         2127     1027     4302     5302     2128     1028     4302     5302     2129     1029   
                                          RHF     BASIS     RHF     MCSCF     RHF     BASIS     RHF     MCSCF     RHF     BASIS   
                                         4202     5202   
                                          RHF     MCSCF   

 PROGRAMS   *        TOTAL     MULTI       POP       RHF       INT        CI      DATA      DATA       RHF     MULTI       POP
 CPU TIMES  *       251.06      0.33      0.00      0.17      0.86      0.38      0.00      0.00      0.03      0.50      0.00
 REAL TIME  *       502.79 SEC
 DISK USED  *         3.78 GB      
 SF USED    *        12.62 MB      
 GA USED    *         0.00 MB       (max)       0.00 MB       (current)
 **********************************************************************************************************************************


 Current variables in basis input:

 Set= 1  S_PAR(1)            =       1.59347654
 Set= 1  P_PAR(1)            =       1.69040364
 Set= 1  D_PAR(1)            =       1.27396918
 Set= 1  F_PAR(1)            =       1.50158166

 PROGRAM * RHF-SCF (OPEN SHELL)       Authors: W. Meyer, H.-J. Werner


 NUMBER OF ELECTRONS:       9+    5-    SPACE SYMMETRY=1    SPIN SYMMETRY: Quintet 
 CONVERGENCE THRESHOLDS:    1.00E-05 (Density)    1.00E-07 (Energy)
 MAX. NUMBER OF ITERATIONS:        0
 INTERPOLATION TYPE:            DIIS
 INTERPOLATION STEPS:              2 (START)      1 (STEP)
 LEVEL SHIFTS:                 -0.60 (CLOSED) -0.30 (OPEN) 

 Number of closed-shell orbitals:    5 (   2   1   1   0   1   0   0   0 )
 Number of open-shell orbitals:      4 (   1   0   0   1   0   1   1   0 )


 Molecular orbitals read from record     5202.2  Type=MCSCF/NATURAL (state averaged)

 Molecular orbital dump at record        2130.2

 ITERATION    DDIFF          GRAD             ENERGY        2-EL.EN.            DIPOLE MOMENTS         DIIS   ORB.
    1      0.000D+00      0.000D+00       -66.69380640     92.501202    0.00000    0.00000    0.00000    0    start

 Final alpha occupancy:   3   1   1   1   1   1   1   0
 Final beta  occupancy:   2   1   1   0   1   0   0   0

 !RHF STATE 1.1 Energy                -66.693806403077
 Nuclear energy                         0.00000000
 One-electron energy                 -112.94440755
 Two-electron energy                   46.25060115
 Virial quotient                       -2.91960601
 !RHF STATE 1.1 Dipole moment           0.00000000     0.00000000     0.00000000
 Dipole moment /Debye                   0.00000000     0.00000000     0.00000000

 ELECTRON ORBITALS
 =================


   Orb  Occ    Energy  Couls-En    Coefficients

                                   1 1s      1 1s      1 1s      1 1s      1 1s      1 3d0     1 3d2+    1 3d0     1 3d2+    1 3d0  
                                   1 3d2+    1 3d0     1 3d2+ 

   1.1   2    -3.4298  -14.5246  0.999995 -0.000017 -0.000008  0.000021 -0.000002  0.000000  0.000000  0.000000  0.000000  0.000000
                                 0.000000  0.000000  0.000000

   2.1   2    -0.2623   -4.6802  0.000276  1.000283  0.000384 -0.000325  0.000020  0.000000  0.000000  0.000000  0.000000  0.000000
                                 0.000000  0.000000  0.000000

   3.1   +    -0.0577   -6.5184  0.000000  0.000000  0.000000  0.000000  0.000000  1.001085  0.000000 -0.006590  0.000000 -0.002087
                                 0.000000 -0.000993  0.000000

                                   1 2px     1 2px     1 2px     1 2px     1 2px     1 4f1+    1 4f3+    1 4f1+    1 4f3+ 

   1.2   2    -1.9269  -11.2730  1.000048 -0.000688 -0.000670 -0.000172 -0.000034  0.000000  0.000000  0.000000  0.000000

                                   1 2py     1 2py     1 2py     1 2py     1 2py     1 4f1-    1 4f3-    1 4f1-    1 4f3- 

   1.3   2    -1.9269  -11.2730  1.000048 -0.000688 -0.000670 -0.000172 -0.000034  0.000000  0.000000  0.000000  0.000000

                                   1 3d2-    1 3d2-    1 3d2-    1 3d2- 

   1.4   +    -0.0577   -6.5184  1.001085 -0.006590 -0.002087 -0.000993

                                   1 2pz     1 2pz     1 2pz     1 2pz     1 2pz     1 4f0     1 4f2+    1 4f0     1 4f2+ 

   1.5   2    -1.9269  -11.2730  1.000048 -0.000688 -0.000670 -0.000172 -0.000034  0.000000  0.000000  0.000000  0.000000

                                   1 3d1+    1 3d1+    1 3d1+    1 3d1+ 

   1.6   +    -0.0577   -6.5184  1.001085 -0.006590 -0.002087 -0.000993

                                   1 3d1-    1 3d1-    1 3d1-    1 3d1- 

   1.7   +    -0.0577   -6.5184  1.001085 -0.006590 -0.002087 -0.000993

 HOMO      3.1    -0.057736 =      -1.5711eV
 LUMO      4.1    -0.057736 =      -1.5711eV
 LUMO-HOMO         0.000000 =       0.0000eV


 **********************************************************************************************************************************
 DATASETS  * FILE   NREC   LENGTH (MB)   RECORD NAMES
              1      20       20.18       500      610      700      900      950      970     1029      129      960     1100   
                                          VAR    BASINP    GEOM    SYMINP    ZMAT    AOBASIS   BASIS     P2S    ABASIS      S 
                                         1400     1410     1420     1200     1210     1080     1600     1650     1700     1380   
                                           T        V       ECP      H0       H01     AOSYM     SMH    MOLCAS    OPER     JKOP   

              2     123      227.36       200      700     1000      520     4302     5302     2101     1001     4302     5302   
                                        OPTIONS   GEOM     BASIS   MCVARS     RHF     MCSCF     RHF     BASIS     RHF     MCSCF   
                                         2102     1002     4302     5302     2103     1003     4302     5302     2104     1004   
                                          RHF     BASIS     RHF     MCSCF     RHF     BASIS     RHF     MCSCF     RHF     BASIS   
                                         4302     5302     2105     1005     4302     5302     2106     1006     4302     5302   
                                          RHF     MCSCF     RHF     BASIS     RHF     MCSCF     RHF     BASIS     RHF     MCSCF   
                                         2107     1007     4302     5302     2108     1008     4302     5302     2109     1009   
                                          RHF     BASIS     RHF     MCSCF     RHF     BASIS     RHF     MCSCF     RHF     BASIS   
                                         4302     5302     2110     1010     4302     5302     2111     1011     4302     5302   
                                          RHF     MCSCF     RHF     BASIS     RHF     MCSCF     RHF     BASIS     RHF     MCSCF   
                                         2112     1012     4302     5302     2113     1013     4302     5302     2114     1014   
                                          RHF     BASIS     RHF     MCSCF     RHF     BASIS     RHF     MCSCF     RHF     BASIS   
                                         4302     5302     2115     1015     4302     5302     2116     1016     4302     5302   
                                          RHF     MCSCF     RHF     BASIS     RHF     MCSCF     RHF     BASIS     RHF     MCSCF   
                                         2117     1017     4302     5302     2118     1018     4302     5302     2119     1019   
                                          RHF     BASIS     RHF     MCSCF     RHF     BASIS     RHF     MCSCF     RHF     BASIS   
                                         4302     5302     2120     1020     4302     5302     2121     1021     4302     5302   
                                          RHF     MCSCF     RHF     BASIS     RHF     MCSCF     RHF     BASIS     RHF     MCSCF   
                                         2122     1022     4302     5302     2123     1023     4302     5302     2124     1024   
                                          RHF     BASIS     RHF     MCSCF     RHF     BASIS     RHF     MCSCF     RHF     BASIS   
                                         4302     5302     2125     1025     4302     5302     2126     1026     4302     5302   
                                          RHF     MCSCF     RHF     BASIS     RHF     MCSCF     RHF     BASIS     RHF     MCSCF   
                                         2127     1027     4302     5302     2128     1028     4302     5302     2129     1029   
                                          RHF     BASIS     RHF     MCSCF     RHF     BASIS     RHF     MCSCF     RHF     BASIS   
                                         4202     5202     2130   
                                          RHF     MCSCF     RHF  

 PROGRAMS   *        TOTAL       RHF     MULTI       POP       RHF       INT        CI      DATA      DATA       RHF     MULTI
 CPU TIMES  *       251.24      0.18      0.33      0.00      0.17      0.86      0.38      0.00      0.00      0.03      0.50
 REAL TIME  *       503.03 SEC
 DISK USED  *         3.78 GB      
 SF USED    *        12.62 MB      
 GA USED    *         0.00 MB       (max)       0.00 MB       (current)
 **********************************************************************************************************************************

 
 RECORD   4202.2 RENAMED TO   4302.2


 **********************************************************************************************************************************
 DATASETS  * FILE   NREC   LENGTH (MB)   RECORD NAMES
              1      20       20.18       500      610      700      900      950      970     1029      129      960     1100   
                                          VAR    BASINP    GEOM    SYMINP    ZMAT    AOBASIS   BASIS     P2S    ABASIS      S 
                                         1400     1410     1420     1200     1210     1080     1600     1650     1700     1380   
                                           T        V       ECP      H0       H01     AOSYM     SMH    MOLCAS    OPER     JKOP   

              2     123      227.36       200      700     1000      520     4302     5302     2101     1001     4302     5302   
                                        OPTIONS   GEOM     BASIS   MCVARS     RHF     MCSCF     RHF     BASIS     RHF     MCSCF   
                                         2102     1002     4302     5302     2103     1003     4302     5302     2104     1004   
                                          RHF     BASIS     RHF     MCSCF     RHF     BASIS     RHF     MCSCF     RHF     BASIS   
                                         4302     5302     2105     1005     4302     5302     2106     1006     4302     5302   
                                          RHF     MCSCF     RHF     BASIS     RHF     MCSCF     RHF     BASIS     RHF     MCSCF   
                                         2107     1007     4302     5302     2108     1008     4302     5302     2109     1009   
                                          RHF     BASIS     RHF     MCSCF     RHF     BASIS     RHF     MCSCF     RHF     BASIS   
                                         4302     5302     2110     1010     4302     5302     2111     1011     4302     5302   
                                          RHF     MCSCF     RHF     BASIS     RHF     MCSCF     RHF     BASIS     RHF     MCSCF   
                                         2112     1012     4302     5302     2113     1013     4302     5302     2114     1014   
                                          RHF     BASIS     RHF     MCSCF     RHF     BASIS     RHF     MCSCF     RHF     BASIS   
                                         4302     5302     2115     1015     4302     5302     2116     1016     4302     5302   
                                          RHF     MCSCF     RHF     BASIS     RHF     MCSCF     RHF     BASIS     RHF     MCSCF   
                                         2117     1017     4302     5302     2118     1018     4302     5302     2119     1019   
                                          RHF     BASIS     RHF     MCSCF     RHF     BASIS     RHF     MCSCF     RHF     BASIS   
                                         4302     5302     2120     1020     4302     5302     2121     1021     4302     5302   
                                          RHF     MCSCF     RHF     BASIS     RHF     MCSCF     RHF     BASIS     RHF     MCSCF   
                                         2122     1022     4302     5302     2123     1023     4302     5302     2124     1024   
                                          RHF     BASIS     RHF     MCSCF     RHF     BASIS     RHF     MCSCF     RHF     BASIS   
                                         4302     5302     2125     1025     4302     5302     2126     1026     4302     5302   
                                          RHF     MCSCF     RHF     BASIS     RHF     MCSCF     RHF     BASIS     RHF     MCSCF   
                                         2127     1027     4302     5302     2128     1028     4302     5302     2129     1029   
                                          RHF     BASIS     RHF     MCSCF     RHF     BASIS     RHF     MCSCF     RHF     BASIS   
                                         4302     5202     2130   
                                          RHF     MCSCF     RHF  

 PROGRAMS   *        TOTAL      DATA       RHF     MULTI       POP       RHF       INT        CI      DATA      DATA       RHF
 CPU TIMES  *       251.25      0.00      0.18      0.33      0.00      0.17      0.86      0.38      0.00      0.00      0.03
 REAL TIME  *       503.05 SEC
 DISK USED  *         3.78 GB      
 SF USED    *        12.62 MB      
 GA USED    *         0.00 MB       (max)       0.00 MB       (current)
 **********************************************************************************************************************************

 
 RECORD   5202.2 RENAMED TO   5302.2


 **********************************************************************************************************************************
 DATASETS  * FILE   NREC   LENGTH (MB)   RECORD NAMES
              1      20       20.18       500      610      700      900      950      970     1029      129      960     1100   
                                          VAR    BASINP    GEOM    SYMINP    ZMAT    AOBASIS   BASIS     P2S    ABASIS      S 
                                         1400     1410     1420     1200     1210     1080     1600     1650     1700     1380   
                                           T        V       ECP      H0       H01     AOSYM     SMH    MOLCAS    OPER     JKOP   

              2     123      227.36       200      700     1000      520     4302     5302     2101     1001     4302     5302   
                                        OPTIONS   GEOM     BASIS   MCVARS     RHF     MCSCF     RHF     BASIS     RHF     MCSCF   
                                         2102     1002     4302     5302     2103     1003     4302     5302     2104     1004   
                                          RHF     BASIS     RHF     MCSCF     RHF     BASIS     RHF     MCSCF     RHF     BASIS   
                                         4302     5302     2105     1005     4302     5302     2106     1006     4302     5302   
                                          RHF     MCSCF     RHF     BASIS     RHF     MCSCF     RHF     BASIS     RHF     MCSCF   
                                         2107     1007     4302     5302     2108     1008     4302     5302     2109     1009   
                                          RHF     BASIS     RHF     MCSCF     RHF     BASIS     RHF     MCSCF     RHF     BASIS   
                                         4302     5302     2110     1010     4302     5302     2111     1011     4302     5302   
                                          RHF     MCSCF     RHF     BASIS     RHF     MCSCF     RHF     BASIS     RHF     MCSCF   
                                         2112     1012     4302     5302     2113     1013     4302     5302     2114     1014   
                                          RHF     BASIS     RHF     MCSCF     RHF     BASIS     RHF     MCSCF     RHF     BASIS   
                                         4302     5302     2115     1015     4302     5302     2116     1016     4302     5302   
                                          RHF     MCSCF     RHF     BASIS     RHF     MCSCF     RHF     BASIS     RHF     MCSCF   
                                         2117     1017     4302     5302     2118     1018     4302     5302     2119     1019   
                                          RHF     BASIS     RHF     MCSCF     RHF     BASIS     RHF     MCSCF     RHF     BASIS   
                                         4302     5302     2120     1020     4302     5302     2121     1021     4302     5302   
                                          RHF     MCSCF     RHF     BASIS     RHF     MCSCF     RHF     BASIS     RHF     MCSCF   
                                         2122     1022     4302     5302     2123     1023     4302     5302     2124     1024   
                                          RHF     BASIS     RHF     MCSCF     RHF     BASIS     RHF     MCSCF     RHF     BASIS   
                                         4302     5302     2125     1025     4302     5302     2126     1026     4302     5302   
                                          RHF     MCSCF     RHF     BASIS     RHF     MCSCF     RHF     BASIS     RHF     MCSCF   
                                         2127     1027     4302     5302     2128     1028     4302     5302     2129     1029   
                                          RHF     BASIS     RHF     MCSCF     RHF     BASIS     RHF     MCSCF     RHF     BASIS   
                                         4302     5302     2130   
                                          RHF     MCSCF     RHF  

 PROGRAMS   *        TOTAL      DATA      DATA       RHF     MULTI       POP       RHF       INT        CI      DATA      DATA
 CPU TIMES  *       251.25      0.00      0.00      0.18      0.33      0.00      0.17      0.86      0.38      0.00      0.00
 REAL TIME  *       503.06 SEC
 DISK USED  *         3.78 GB      
 SF USED    *        12.62 MB      
 GA USED    *         0.00 MB       (max)       0.00 MB       (current)
 **********************************************************************************************************************************


 Current variables in basis input:

 Set= 1  S_PAR(1)            =       1.59347654
 Set= 1  P_PAR(1)            =       1.69040364
 Set= 1  D_PAR(1)            =       1.27396918
 Set= 1  F_PAR(1)            =       1.50158166

 PROGRAM * CI (Multireference internally contracted CI)     Authors: H.-J. Werner, P.J. Knowles, 1987


 Convergence thresholds:  THRVAR = 1.00D-08  THRDEN = 1.00D-06

 Number of optimized states:  1  Roots:   1
 Number of reference states:  1  Roots:   1

 Reference symmetry:                   1   Quintet 
 Number of electrons:                 14
 Maximum number of shells:             3
 Maximum number of spin couplings:    20

 Reference space:        1 conf        1 CSFs
 N elec internal:       81 conf       81 CSFs
 N-1 el internal:      129 conf      309 CSFs
 N-2 el internal:       41 conf      331 CSFs

 Number of electrons in valence space:                     14
 Maximum number of open shell orbitals in reference space:  4
 Maximum number of open shell orbitals in internal spaces:  8


 Number of closed-shell orbitals:   5 (   2   1   1   0   1   0   0   0 )
 Number of active  orbitals:        4 (   1   0   0   1   0   1   1   0 )
 Number of external orbitals:      45 (  10   8   8   3   8   3   3   2 )

 Molecular orbitals read from record     2130.2  Type=RHF/CANONICAL (state 1.1)

 Coulomb and exchange operators available. No transformation done.

 Number of p-space configurations:   1

 Reference wavefunction optimized for reference space (refopt=1)

 State     Reference Energy 
   1         -66.69380640

 Number of blocks in overlap matrix:    71   Smallest eigenvalue:  0.10D+01
 Number of N-2 electron functions:      71
 Number of N-1 electron functions:     309

 Number of internal configurations:                    9
 Number of singly external configurations:          1782
 Number of doubly external configurations:          9317
 Total number of contracted configurations:        11108
 Total number of uncontracted configurations:      44890

 Diagonal Coupling coefficients finished.               Storage:   24036 words, CPU-Time:      0.00 seconds.
 Energy denominators for pairs finished in 1 passes.    Storage:   15557 words, CPU-time:      0.00 seconds.

  ITER. STATE  ROOT     SQ.NORM     CORR.ENERGY   TOTAL ENERGY   ENERGY CHANGE       DEN1      VAR(S)    VAR(P)      TIME
    1     1     1     1.00000000     0.00000000   -66.69380640    -0.00000000    -0.34957760  0.38D-01  0.92D-01     0.30
    2     1     1     1.08615058    -0.28951090   -66.98331731    -0.28951090    -0.00708522  0.18D-02  0.15D-02     0.33
    3     1     1     1.08344437    -0.29651162   -66.99031802    -0.00700071    -0.00016938  0.41D-04  0.65D-04     0.35
    4     1     1     1.08456549    -0.29671885   -66.99052526    -0.00020724    -0.00001197  0.31D-05  0.51D-05     0.37
    5     1     1     1.08499876    -0.29673241   -66.99053881    -0.00001356    -0.00000057  0.94D-07  0.26D-06     0.39
    6     1     1     1.08504306    -0.29673302   -66.99053942    -0.00000061    -0.00000003  0.59D-08  0.13D-07     0.42
    7     1     1     1.08504439    -0.29673305   -66.99053945    -0.00000003    -0.00000000  0.12D-09  0.75D-09     0.44


 =====================================
 Analysis of CPU times by interactions
 =====================================

       I      S      P

 I   0.0%
 S   0.0%  11.4%
 P  43.2%  11.4%   0.0%

 Initialization:  29.5%
 Other:            4.5%

 Total CPU:        0.4 seconds
 =====================================



 Reference coefficients greater than 0.0500000
 =============================================
 22/22/2//           0.9588449



 RESULTS FOR STATE 1.1
 =====================

 Coefficient of reference function:   C(0) = 0.95884490 (fixed)   0.95884490 (relaxed)

 Energy contributions of configuration classes

 CLASS          SQ.NORM        ECORR1        ECORR2
 +++++++++++++++++++++++++++++++++++++++++++++++++++
 Internals    0.00243395   -0.00462071   -0.00491222
 Singles      0.02165420   -0.07619405   -0.07595954
 Pairs        0.06359718   -0.21591828   -0.21586129
 Total        1.08768533   -0.29673305   -0.29673305
 +++++++++++++++++++++++++++++++++++++++++++++++++++


 Reference energy                     -66.69380640
 Nuclear energy                         0.00000000
 Kinetic energy                        22.96639790
 One electron energy                 -112.76898427
 Two electron energy                   45.77844481
 Virial quotient                       -2.91689362
 Correlation energy                    -0.29673305
 !CI(SD) STATE 1.1 Energy             -66.990539454422

 Properties without orbital relaxation:

 !CI(SD) STATE 1.1 Dipole moment        0.00000000     0.00000000     0.00000000
 Dipole moment /Debye                   0.00000000     0.00000000     0.00000000

 Cluster corrected energies           -67.01655859 (Davidson, fixed reference)
 Cluster corrected energies           -67.01655859 (Davidson, relaxed reference)

 Cluster corrected energies           -67.01248066 (Pople, fixed reference)
 Cluster corrected energies           -67.01248066 (Pople, relaxed reference)



 **********************************************************************************************************************************
 DATASETS  * FILE   NREC   LENGTH (MB)   RECORD NAMES
              1      20       20.18       500      610      700      900      950      970     1029      129      960     1100   
                                          VAR    BASINP    GEOM    SYMINP    ZMAT    AOBASIS   BASIS     P2S    ABASIS      S 
                                         1400     1410     1420     1200     1210     1080     1600     1650     1700     1380   
                                           T        V       ECP      H0       H01     AOSYM     SMH    MOLCAS    OPER     JKOP   

              2     123      227.36       200      700     1000      520     4302     5302     2101     1001     4302     5302   
                                        OPTIONS   GEOM     BASIS   MCVARS     RHF     MCSCF     RHF     BASIS     RHF     MCSCF   
                                         2102     1002     4302     5302     2103     1003     4302     5302     2104     1004   
                                          RHF     BASIS     RHF     MCSCF     RHF     BASIS     RHF     MCSCF     RHF     BASIS   
                                         4302     5302     2105     1005     4302     5302     2106     1006     4302     5302   
                                          RHF     MCSCF     RHF     BASIS     RHF     MCSCF     RHF     BASIS     RHF     MCSCF   
                                         2107     1007     4302     5302     2108     1008     4302     5302     2109     1009   
                                          RHF     BASIS     RHF     MCSCF     RHF     BASIS     RHF     MCSCF     RHF     BASIS   
                                         4302     5302     2110     1010     4302     5302     2111     1011     4302     5302   
                                          RHF     MCSCF     RHF     BASIS     RHF     MCSCF     RHF     BASIS     RHF     MCSCF   
                                         2112     1012     4302     5302     2113     1013     4302     5302     2114     1014   
                                          RHF     BASIS     RHF     MCSCF     RHF     BASIS     RHF     MCSCF     RHF     BASIS   
                                         4302     5302     2115     1015     4302     5302     2116     1016     4302     5302   
                                          RHF     MCSCF     RHF     BASIS     RHF     MCSCF     RHF     BASIS     RHF     MCSCF   
                                         2117     1017     4302     5302     2118     1018     4302     5302     2119     1019   
                                          RHF     BASIS     RHF     MCSCF     RHF     BASIS     RHF     MCSCF     RHF     BASIS   
                                         4302     5302     2120     1020     4302     5302     2121     1021     4302     5302   
                                          RHF     MCSCF     RHF     BASIS     RHF     MCSCF     RHF     BASIS     RHF     MCSCF   
                                         2122     1022     4302     5302     2123     1023     4302     5302     2124     1024   
                                          RHF     BASIS     RHF     MCSCF     RHF     BASIS     RHF     MCSCF     RHF     BASIS   
                                         4302     5302     2125     1025     4302     5302     2126     1026     4302     5302   
                                          RHF     MCSCF     RHF     BASIS     RHF     MCSCF     RHF     BASIS     RHF     MCSCF   
                                         2127     1027     4302     5302     2128     1028     4302     5302     2129     1029   
                                          RHF     BASIS     RHF     MCSCF     RHF     BASIS     RHF     MCSCF     RHF     BASIS   
                                         4302     5302     2130   
                                          RHF     MCSCF     RHF  

 PROGRAMS   *        TOTAL        CI      DATA      DATA       RHF     MULTI       POP       RHF       INT        CI      DATA
 CPU TIMES  *       251.72      0.47      0.00      0.00      0.18      0.33      0.00      0.17      0.86      0.38      0.00
 REAL TIME  *       503.69 SEC
 DISK USED  *         3.78 GB      
 SF USED    *        12.62 MB      
 GA USED    *         0.00 MB       (max)       0.00 MB       (current)
 **********************************************************************************************************************************
 SETTING EVAL           =       -66.99053945  AU                              

 BFGS final minimum    =       -66.990539454       maximum gradient =           -0.34E-04

           variable                 value           gradient
 BFGS       S_PAR(1)                1.593477        0.0000040
 BFGS       P_PAR(1)                1.690404        0.0000014
 BFGS       D_PAR(1)                1.273969       -0.0000345
 BFGS       F_PAR(1)                1.501582       -0.0000070


 **********************************************************************************************************************************
 DATASETS  * FILE   NREC   LENGTH (MB)   RECORD NAMES
              1      20       20.18       500      610      700      900      950      970     1029      129      960     1100   
                                          VAR    BASINP    GEOM    SYMINP    ZMAT    AOBASIS   BASIS     P2S    ABASIS      S 
                                         1400     1410     1420     1200     1210     1080     1600     1650     1700     1380   
                                           T        V       ECP      H0       H01     AOSYM     SMH    MOLCAS    OPER     JKOP   

              2     123      227.36       200      700     1000      520     4302     5302     2101     1001     4302     5302   
                                        OPTIONS   GEOM     BASIS   MCVARS     RHF     MCSCF     RHF     BASIS     RHF     MCSCF   
                                         2102     1002     4302     5302     2103     1003     4302     5302     2104     1004   
                                          RHF     BASIS     RHF     MCSCF     RHF     BASIS     RHF     MCSCF     RHF     BASIS   
                                         4302     5302     2105     1005     4302     5302     2106     1006     4302     5302   
                                          RHF     MCSCF     RHF     BASIS     RHF     MCSCF     RHF     BASIS     RHF     MCSCF   
                                         2107     1007     4302     5302     2108     1008     4302     5302     2109     1009   
                                          RHF     BASIS     RHF     MCSCF     RHF     BASIS     RHF     MCSCF     RHF     BASIS   
                                         4302     5302     2110     1010     4302     5302     2111     1011     4302     5302   
                                          RHF     MCSCF     RHF     BASIS     RHF     MCSCF     RHF     BASIS     RHF     MCSCF   
                                         2112     1012     4302     5302     2113     1013     4302     5302     2114     1014   
                                          RHF     BASIS     RHF     MCSCF     RHF     BASIS     RHF     MCSCF     RHF     BASIS   
                                         4302     5302     2115     1015     4302     5302     2116     1016     4302     5302   
                                          RHF     MCSCF     RHF     BASIS     RHF     MCSCF     RHF     BASIS     RHF     MCSCF   
                                         2117     1017     4302     5302     2118     1018     4302     5302     2119     1019   
                                          RHF     BASIS     RHF     MCSCF     RHF     BASIS     RHF     MCSCF     RHF     BASIS   
                                         4302     5302     2120     1020     4302     5302     2121     1021     4302     5302   
                                          RHF     MCSCF     RHF     BASIS     RHF     MCSCF     RHF     BASIS     RHF     MCSCF   
                                         2122     1022     4302     5302     2123     1023     4302     5302     2124     1024   
                                          RHF     BASIS     RHF     MCSCF     RHF     BASIS     RHF     MCSCF     RHF     BASIS   
                                         4302     5302     2125     1025     4302     5302     2126     1026     4302     5302   
                                          RHF     MCSCF     RHF     BASIS     RHF     MCSCF     RHF     BASIS     RHF     MCSCF   
                                         2127     1027     4302     5302     2128     1028     4302     5302     2129     1029   
                                          RHF     BASIS     RHF     MCSCF     RHF     BASIS     RHF     MCSCF     RHF     BASIS   
                                         4302     5302     2130   
                                          RHF     MCSCF     RHF  

 PROGRAMS   *        TOTAL  MINIMIZE      DATA      DATA       RHF     MULTI       POP       RHF       INT        CI      DATA
 CPU TIMES  *       251.73      0.48      0.00      0.00      0.18      0.33      0.00      0.17      0.86      0.38      0.00
 REAL TIME  *       503.69 SEC
 DISK USED  *         3.78 GB      
 SF USED    *        12.62 MB      
 GA USED    *         0.00 MB       (max)       0.00 MB       (current)
 **********************************************************************************************************************************

 MINIMIZE/USERDEF energy=    -66.990539454422

        CI              RHF-SCF         MULTI           RHF-SCF         CI              RHF-SCF         MULTI           RHF-SCF 
    -66.99053945    -66.69380640    -66.69380640    -66.69597777    -66.99053943    -66.69380640    -66.69380640    -66.69597779
 **********************************************************************************************************************************
 Molpro calculation terminated
 Variable memory released
