
 Primary working directories    : /global/cscratch1/sd/haihan
 Secondary working directories  : /global/cscratch1/sd/haihan
 Wavefunction directory         : /global/homes/h/haihan/wfu/
 Main file repository           : /global/cscratch1/sd/haihan/

 SHA1      : 19cd028119e0e09f93f0674bd8af7968d9b3eff6
 NAME      : 2015.1.36
 ARCHNAME  : linux/x86_64
 FC        : /opt/cray/pe/craype/2.5.14/bin/ftn
 BLASLIB   : -L/opt/intel/compilers_and_libraries_2018.1.163/linux/mkl/lib/intel64 -Wl,-_start-group -lmkl_intel_ilp64 -lmkl_intel_thread -lmkl_core -Wl,-_end-group -liomp5
 id        : lbl

 Nodes     nprocs
 nid00638    15
 Number of processes for MPI-2 version of Molpro:   nprocs(total)=   16   nprocs(compute)=   15   nprocs(helper)=    1

 Using customized tuning parameters: mindgm=7; mindgv=16; mindgc=1; mindgr=1; noblas=0; minvec=7
 default implementation of scratch files=sf  

 ***,Ag
 memory,512,m
 
 gthresh,twoint=1.e-12
 gprint,basis,orbitals
 
 angstrom
 geometry={
 1                                                                               ! Number of atoms
 Ag 0.0 0.0 0.0
 }
 
 basis={
 Including file /global/u2/h/haihan/Research/HZECP/Ag_basis/coefficients/ecp.molpro
 Including file /global/u2/h/haihan/Research/HZECP/Ag_basis/coefficients/basis.molpro
 }
 
 {rhf
  start,atden
  print,orbitals=2
  wf,19,1,1
  occ,4,1,1,1,1,1,1,0
  open,4.1
  sym,1,1,3,2,1
  orbital,4202.2
 }
 pop
 {multi
  start,4202.2
  occ,4,1,1,1,1,1,1,0
  closed,3,1,1,1,1,1,1,0
  wf,19,1,1;state,1
  restrict,1,1,4.1
  natorb,ci,print
  orbital,5202.2
 }
 {rhf,nitord=1,maxit=0
  start,5202.2
  wf,19,1,1
  occ,4,1,1,1,1,1,1,0
  open,4.1
 }
 {ci;maxit,100;core,1,1,1,0,1,0,0,0
  natorb,ci,print=15
 
 }

 Variables initialized (889), CPU time= 0.01 sec
 Commands  initialized (702), CPU time= 0.01 sec, 572 directives.
 Default parameters read. Elapsed time= 0.16 sec

 Checking input...
 Passed
1


                                         ***  PROGRAM SYSTEM MOLPRO  ***
                                       Copyright, TTI GmbH Stuttgart, 2015
                                    Version 2015.1 linked Dec 29 2018 15:55:43


 **********************************************************************************************************************************
 LABEL *   Ag                                                                            
  64 bit mpp version                                                                     DATE: 19-Dec-21          TIME: 13:09:27  
 **********************************************************************************************************************************

 SHA1:             19cd028119e0e09f93f0674bd8af7968d9b3eff6
 **********************************************************************************************************************************

 THRESHOLDS:

 ZERO    =  1.00D-12  ONEINT  =  1.00D-12  TWOINT  =  1.00D-12  PREFAC  =  1.00D-14  LOCALI  =  1.00D-09  EORDER  =  1.00D-04
 ENERGY  =  0.00D+00  ETEST   =  0.00D+00  EDENS   =  0.00D+00  THRDEDEF=  1.00D-06  GRADIENT=  1.00D-02  STEP    =  1.00D-03
 ORBITAL =  1.00D-05  CIVEC   =  1.00D-05  COEFF   =  1.00D-04  PRINTCI =  5.00D-02  PUNCHCI =  9.90D+01  OPTGRAD =  3.00D-04
 OPTENERG=  1.00D-06  OPTSTEP =  3.00D-04  THRGRAD =  1.00D-10  COMPRESS=  1.00D-11  VARMIN  =  1.00D-07  VARMAX  =  1.00D-03
 THRDOUB =  0.00D+00  THRDIV  =  1.00D-05  THRRED  =  1.00D-07  THRPSP  =  1.00D+00  THRDC   =  1.00D-10  THRCS   =  1.00D-10
 THRNRM  =  1.00D-08  THREQ   =  0.00D+00  THRDE   =  1.00D+00  THRREF  =  1.00D-05  SPARFAC =  1.00D+00  THRDLP  =  1.00D-07
 THRDIA  =  1.00D-10  THRDLS  =  1.00D-07  THRGPS  =  0.00D+00  THRKEX  =  0.00D+00  THRDIS  =  2.00D-01  THRVAR  =  1.00D-10
 THRLOC  =  1.00D-06  THRGAP  =  1.00D-06  THRLOCT = -1.00D+00  THRGAPT = -1.00D+00  THRORB  =  1.00D-06  THRMLTP =  0.00D+00
 THRCPQCI=  1.00D-10  KEXTA   =  0.00D+00  THRCOARS=  0.00D+00  SYMTOL  =  1.00D-06  GRADTOL =  1.00D-06  THROVL  =  1.00D-08
 THRORTH =  1.00D-08  GRID    =  1.00D-06  GRIDMAX =  1.00D-03  DTMAX   =  0.00D+00  THROCCDE=  1.00D-01  THROCCDE=  1.00D-01



 ZUNIT=ANG
 

Geometry recognized as XYZ


 Variable memory set to  512000000 words,  buffer space   230000 words

 SETTING BASIS          =    USERDEF


 Recomputing integrals since basis changed


 Using spherical harmonics



 PROGRAM * SEWARD (Integral evaluation for generally contracted gaussian basis sets)     Author: Roland Lindh, 1990

 Geometry written to block  1 of record 700

 Orientation using atomic masses  
 Molecule type: Atom
 Symmetry elements: X,Y,Z
 Rotational constants:       0.0000000      0.0000000      0.0000000 GHz  (calculated with average atomic masses)

 Point group  D2h 



 ATOMIC COORDINATES

 NR  ATOM    CHARGE       X              Y              Z

   1  AG     19.00    0.000000000    0.000000000    0.000000000


          AG  CORE POTENTIAL

          f POTENTIAL

 POWERS             1              3              2              2
 EXPONENTIALS   11.11700       11.30707       10.88747       6.050896    
 COEFFICIENTS   19.00000       211.2229      -111.3857      -10.04923    

          s - f POTENTIAL

 POWERS             2              2
 EXPONENTIALS   12.57068       7.075228    
 COEFFICIENTS   281.0044       40.24656    

          p - f POTENTIAL

 POWERS             2              2
 EXPONENTIALS   11.40284       6.504915    
 COEFFICIENTS   210.9924       30.82987    

          d - f POTENTIAL

 POWERS             2              2
 EXPONENTIALS   10.79268       4.485396    
 COEFFICIENTS   101.0336       14.81364    


 BASIS DATA

   Nr Sym  Nuc  Type         Exponents   Contraction coefficients

    1.1 Ag    1  1s         252.240986     1.000000
    2.1 Ag    1  1s         120.263143     1.000000
    3.1 Ag    1  1s          57.338912     1.000000
    4.1 Ag    1  1s          27.337975     1.000000
    5.1 Ag    1  1s          13.034166     1.000000
    6.1 Ag    1  1s           6.214413     1.000000
    7.1 Ag    1  1s           2.962900     1.000000
    8.1 Ag    1  1s           1.412648     1.000000
    9.1 Ag    1  1s           0.673520     1.000000
   10.1 Ag    1  1s           0.321120     1.000000
   11.1 Ag    1  1s           0.153103     1.000000
   12.1 Ag    1  1s           0.072996     1.000000
   13.1 Ag    1  1s           0.034803     1.000000
   14.1 Ag    1  3d0         52.271002     1.000000
   15.1 Ag    1  3d2+        52.271002     1.000000
   16.1 Ag    1  3d0         28.989500     1.000000
   17.1 Ag    1  3d2+        28.989500     1.000000
   18.1 Ag    1  3d0         16.077578     1.000000
   19.1 Ag    1  3d2+        16.077578     1.000000
   20.1 Ag    1  3d0          8.916626     1.000000
   21.1 Ag    1  3d2+         8.916626     1.000000
   22.1 Ag    1  3d0          4.945161     1.000000
   23.1 Ag    1  3d2+         4.945161     1.000000
   24.1 Ag    1  3d0          2.742587     1.000000
   25.1 Ag    1  3d2+         2.742587     1.000000
   26.1 Ag    1  3d0          1.521039     1.000000
   27.1 Ag    1  3d2+         1.521039     1.000000
   28.1 Ag    1  3d0          0.843568     1.000000
   29.1 Ag    1  3d2+         0.843568     1.000000
   30.1 Ag    1  3d0          0.467843     1.000000
   31.1 Ag    1  3d2+         0.467843     1.000000
   32.1 Ag    1  3d0          0.259466     1.000000
   33.1 Ag    1  3d2+         0.259466     1.000000
   34.1 Ag    1  3d0          0.143900     1.000000
   35.1 Ag    1  3d2+         0.143900     1.000000
   36.1 Ag    1  3d0          0.079807     1.000000
   37.1 Ag    1  3d2+         0.079807     1.000000
   38.1 Ag    1  3d0          0.044261     1.000000
   39.1 Ag    1  3d2+         0.044261     1.000000
    1.2 B3u   1  2px         50.711510     1.000000
    2.2 B3u   1  2px         26.995067     1.000000
    3.2 B3u   1  2px         14.370182     1.000000
    4.2 B3u   1  2px          7.649625     1.000000
    5.2 B3u   1  2px          4.072096     1.000000
    6.2 B3u   1  2px          2.167683     1.000000
    7.2 B3u   1  2px          1.153915     1.000000
    8.2 B3u   1  2px          0.614259     1.000000
    9.2 B3u   1  2px          0.326986     1.000000
   10.2 B3u   1  2px          0.174063     1.000000
   11.2 B3u   1  2px          0.092658     1.000000
   12.2 B3u   1  2px          0.049325     1.000000
   13.2 B3u   1  2px          0.026257     1.000000
    1.3 B2u   1  2py         50.711510     1.000000
    2.3 B2u   1  2py         26.995067     1.000000
    3.3 B2u   1  2py         14.370182     1.000000
    4.3 B2u   1  2py          7.649625     1.000000
    5.3 B2u   1  2py          4.072096     1.000000
    6.3 B2u   1  2py          2.167683     1.000000
    7.3 B2u   1  2py          1.153915     1.000000
    8.3 B2u   1  2py          0.614259     1.000000
    9.3 B2u   1  2py          0.326986     1.000000
   10.3 B2u   1  2py          0.174063     1.000000
   11.3 B2u   1  2py          0.092658     1.000000
   12.3 B2u   1  2py          0.049325     1.000000
   13.3 B2u   1  2py          0.026257     1.000000
    1.4 B1g   1  3d2-        52.271002     1.000000
    2.4 B1g   1  3d2-        28.989500     1.000000
    3.4 B1g   1  3d2-        16.077578     1.000000
    4.4 B1g   1  3d2-         8.916626     1.000000
    5.4 B1g   1  3d2-         4.945161     1.000000
    6.4 B1g   1  3d2-         2.742587     1.000000
    7.4 B1g   1  3d2-         1.521039     1.000000
    8.4 B1g   1  3d2-         0.843568     1.000000
    9.4 B1g   1  3d2-         0.467843     1.000000
   10.4 B1g   1  3d2-         0.259466     1.000000
   11.4 B1g   1  3d2-         0.143900     1.000000
   12.4 B1g   1  3d2-         0.079807     1.000000
   13.4 B1g   1  3d2-         0.044261     1.000000
    1.5 B1u   1  2pz         50.711510     1.000000
    2.5 B1u   1  2pz         26.995067     1.000000
    3.5 B1u   1  2pz         14.370182     1.000000
    4.5 B1u   1  2pz          7.649625     1.000000
    5.5 B1u   1  2pz          4.072096     1.000000
    6.5 B1u   1  2pz          2.167683     1.000000
    7.5 B1u   1  2pz          1.153915     1.000000
    8.5 B1u   1  2pz          0.614259     1.000000
    9.5 B1u   1  2pz          0.326986     1.000000
   10.5 B1u   1  2pz          0.174063     1.000000
   11.5 B1u   1  2pz          0.092658     1.000000
   12.5 B1u   1  2pz          0.049325     1.000000
   13.5 B1u   1  2pz          0.026257     1.000000
    1.6 B2g   1  3d1+        52.271002     1.000000
    2.6 B2g   1  3d1+        28.989500     1.000000
    3.6 B2g   1  3d1+        16.077578     1.000000
    4.6 B2g   1  3d1+         8.916626     1.000000
    5.6 B2g   1  3d1+         4.945161     1.000000
    6.6 B2g   1  3d1+         2.742587     1.000000
    7.6 B2g   1  3d1+         1.521039     1.000000
    8.6 B2g   1  3d1+         0.843568     1.000000
    9.6 B2g   1  3d1+         0.467843     1.000000
   10.6 B2g   1  3d1+         0.259466     1.000000
   11.6 B2g   1  3d1+         0.143900     1.000000
   12.6 B2g   1  3d1+         0.079807     1.000000
   13.6 B2g   1  3d1+         0.044261     1.000000
    1.7 B3g   1  3d1-        52.271002     1.000000
    2.7 B3g   1  3d1-        28.989500     1.000000
    3.7 B3g   1  3d1-        16.077578     1.000000
    4.7 B3g   1  3d1-         8.916626     1.000000
    5.7 B3g   1  3d1-         4.945161     1.000000
    6.7 B3g   1  3d1-         2.742587     1.000000
    7.7 B3g   1  3d1-         1.521039     1.000000
    8.7 B3g   1  3d1-         0.843568     1.000000
    9.7 B3g   1  3d1-         0.467843     1.000000
   10.7 B3g   1  3d1-         0.259466     1.000000
   11.7 B3g   1  3d1-         0.143900     1.000000
   12.7 B3g   1  3d1-         0.079807     1.000000
   13.7 B3g   1  3d1-         0.044261     1.000000

 NUCLEAR CHARGE:                   19
 NUMBER OF PRIMITIVE AOS:         130
 NUMBER OF SYMMETRY AOS:          117
 NUMBER OF CONTRACTIONS:          117   (  39Ag  +  13B3u +  13B2u +  13B1g +  13B1u +  13B2g +  13B3g +   0Au  )
 NUMBER OF CORE ORBITALS:           4   (   1Ag  +   1B3u +   1B2u +   0B1g +   1B1u +   0B2g +   0B3g +   0Au  )
 NUMBER OF VALENCE ORBITALS:        6   (   3Ag  +   0B3u +   0B2u +   1B1g +   0B1u +   1B2g +   1B3g +   0Au  )


 NUCLEAR REPULSION ENERGY    0.00000000

 EXTRA SYMMETRY OF AOS IN SYMMETRY 1:   1 1 1 1 1 1 1 1 1 1   1 1 1 2 3 2 3 2 3 2   3 2 3 2 3 2 3 2 3 2   3 2 3 2 3 2 3 2 3

 Eigenvalues of metric

         1 0.315E-03 0.502E-03 0.502E-03 0.858E-03 0.153E-02 0.153E-02 0.235E-02 0.445E-02
         2 0.294E-03 0.905E-03 0.269E-02 0.750E-02 0.198E-01 0.496E-01 0.119E+00 0.272E+00
         3 0.294E-03 0.905E-03 0.269E-02 0.750E-02 0.198E-01 0.496E-01 0.119E+00 0.272E+00
         4 0.502E-03 0.153E-02 0.445E-02 0.121E-01 0.308E-01 0.742E-01 0.169E+00 0.365E+00
         5 0.294E-03 0.905E-03 0.269E-02 0.750E-02 0.198E-01 0.496E-01 0.119E+00 0.272E+00
         6 0.502E-03 0.153E-02 0.445E-02 0.121E-01 0.308E-01 0.742E-01 0.169E+00 0.365E+00
         7 0.502E-03 0.153E-02 0.445E-02 0.121E-01 0.308E-01 0.742E-01 0.169E+00 0.365E+00


 Contracted 2-electron integrals neglected if value below      1.0D-12
 AO integral compression algorithm  1   Integral accuracy      1.0D-12

     56.623 MB (compressed) written to integral file ( 59.3%)

     Node minimum: 0.262 MB, node maximum: 20.972 MB


 NUMBER OF SORTED TWO-ELECTRON INTEGRALS:     222630.     BUFFER LENGTH:  32768
 NUMBER OF SEGMENTS:   1  SEGMENT LENGTH:     222630      RECORD LENGTH: 524288

 Memory used in sort:       0.78 MW

 SORT1 READ    11452961. AND WROTE      195819. INTEGRALS IN      1 RECORDS. CPU TIME:     0.16 SEC, REAL TIME:     0.19 SEC
 SORT2 READ     2858791. AND WROTE     3265236. INTEGRALS IN     75 RECORDS. CPU TIME:     0.01 SEC, REAL TIME:     0.04 SEC

 Node minimum:      214057.  Node maximum:      240079. integrals

 OPERATOR DM      FOR CENTER  0  COORDINATES:    0.000000    0.000000    0.000000


 **********************************************************************************************************************************
 DATASETS  * FILE   NREC   LENGTH (MB)   RECORD NAMES
              1      19       19.99       500      610      700      900      950      970     1000      129      960     1100   
                                          VAR    BASINP    GEOM    SYMINP    ZMAT    AOBASIS   BASIS     P2S    ABASIS      S 
                                         1400     1410     1420     1200     1210     1080     1600     1650     1700   
                                           T        V       ECP      H0       H01     AOSYM     SMH    MOLCAS    OPER   

 PROGRAMS   *        TOTAL       INT
 CPU TIMES  *         2.22      1.98
 REAL TIME  *         3.10 SEC
 DISK USED  *       108.68 MB      
 GA USED    *         0.00 MB       (max)       0.00 MB       (current)
 **********************************************************************************************************************************


 PROGRAM * RHF-SCF (OPEN SHELL)       Authors: W. Meyer, H.-J. Werner


 NUMBER OF ELECTRONS:      10+    9-    SPACE SYMMETRY=1    SPIN SYMMETRY: Doublet 
 CONVERGENCE THRESHOLDS:    1.00E-05 (Density)    1.00E-07 (Energy)
 MAX. NUMBER OF ITERATIONS:       60
 INTERPOLATION TYPE:            DIIS
 INTERPOLATION STEPS:              2 (START)      1 (STEP)
 LEVEL SHIFTS:                 -0.60 (CLOSED) -0.30 (OPEN) 


 Singly occupied orbitals:      4.1
 
 Extra symmetries of mos in symmetry 1:   1   3   2   1

   Atom=AG basis=cc-pVTZ-PP        lmin=0  lmax=2

 Orbital guess generated from atomic densities. Full valence occupancy:    4   1   1   1   1   1   1   0


 Molecular orbital dump at record        4202.2

 ITERATION    DDIFF          GRAD             ENERGY        2-EL.EN.            DIPOLE MOMENTS         DIIS   ORB.
    1      0.000D+00      0.000D+00      -146.03500853    226.473221    0.00000    0.00000    0.00000    0    start
    2      0.000D+00      0.129D-01      -146.04992381    230.306997    0.00000    0.00000    0.00000    1    diag,B
    3      0.541D-02      0.544D-02      -146.05223577    229.602943    0.00000    0.00000    0.00000    2    diag,B
    4      0.202D-02      0.571D-03      -146.05262808    229.717642    0.00000    0.00000    0.00000    3    diag,B
    5      0.226D-02      0.268D-03      -146.05285718    229.833628    0.00000    0.00000    0.00000    4    diag,B
    6      0.268D-02      0.123D-03      -146.05290922    229.888616    0.00000    0.00000    0.00000    5    diag,B
    7      0.183D-02      0.313D-04      -146.05291150    229.898018    0.00000    0.00000    0.00000    6    fixocc
    8      0.389D-03      0.746D-05      -146.05291156    229.898441    0.00000    0.00000    0.00000    7    diag,B
    9      0.230D-04      0.165D-05      -146.05291156    229.898474    0.00000    0.00000    0.00000    8    diag,B
   10      0.532D-05      0.431D-06      -146.05291156    229.898478    0.00000    0.00000    0.00000    0    orth

 Final alpha occupancy:   4   1   1   1   1   1   1
 Final beta  occupancy:   3   1   1   1   1   1   1

 !RHF STATE 1.1 Energy               -146.052911557569
 Nuclear energy                         0.00000000
 One-electron energy                 -261.00215063
 Two-electron energy                  114.94923907
 Virial quotient                       -2.57957143
 !RHF STATE 1.1 Dipole moment           0.00000000     0.00000000     0.00000000
 Dipole moment /Debye                   0.00000000     0.00000000     0.00000000

 ELECTRON ORBITALS
 =================


   Orb  Occ    Energy  Couls-En    Coefficients

                                   1 1s      1 1s      1 1s      1 1s      1 1s      1 1s      1 1s      1 1s      1 1s      1 1s   
                                   1 1s      1 1s      1 1s      1 3d0     1 3d2+    1 3d0     1 3d2+    1 3d0     1 3d2+    1 3d0  
                                   1 3d2+    1 3d0     1 3d2+    1 3d0     1 3d2+    1 3d0     1 3d2+    1 3d0     1 3d2+    1 3d0  
                                   1 3d2+    1 3d0     1 3d2+    1 3d0     1 3d2+    1 3d0     1 3d2+    1 3d0     1 3d2+ 

   1.1   2    -4.3971  -22.3149  0.000187 -0.001203  0.006572 -0.049135  0.324368 -0.830173  0.040602  0.867596  0.402042  0.041210
                                -0.001441  0.001527 -0.000235 -0.000000 -0.000000  0.000000  0.000000 -0.000000 -0.000000  0.000000
                                 0.000000 -0.000000 -0.000000  0.000000  0.000000 -0.000000 -0.000000  0.000000  0.000000 -0.000000
                                -0.000000  0.000000  0.000000 -0.000000 -0.000000  0.000000  0.000000 -0.000000 -0.000000

   2.1   2    -0.5112  -12.7819 -0.000000  0.000000  0.000000 -0.000000  0.000000 -0.000000  0.000000 -0.000000  0.000000 -0.000000
                                 0.000000 -0.000000  0.000000  0.000003 -0.000103 -0.000013  0.000467 -0.000078  0.002801  0.001090
                                -0.039312 -0.000866  0.031251 -0.005112  0.184400 -0.008077  0.291353 -0.008035  0.289845 -0.006404
                                 0.230997 -0.003947  0.142382 -0.001820  0.065642 -0.000447  0.016138 -0.000047  0.001679

   3.1   2    -0.5112  -12.7819  0.000000 -0.000000 -0.000000  0.000000 -0.000000  0.000000 -0.000000  0.000000 -0.000000  0.000000
                                -0.000000  0.000000 -0.000000 -0.000103 -0.000003  0.000467  0.000013  0.002801  0.000078 -0.039312
                                -0.001090  0.031251  0.000866  0.184400  0.005112  0.291353  0.008077  0.289845  0.008035  0.230997
                                 0.006404  0.142382  0.003947  0.065642  0.001820  0.016138  0.000447  0.001679  0.000047

   4.1   +    -0.2371   -6.4664 -0.000008  0.000101 -0.000983  0.010502 -0.079895  0.222995 -0.020638 -0.290412 -0.217112 -0.060145
                                 0.281312  0.481836  0.420531  0.000000  0.000000 -0.000000 -0.000000  0.000000 -0.000000 -0.000000
                                 0.000000  0.000000 -0.000000 -0.000000 -0.000000  0.000000 -0.000000 -0.000000 -0.000000  0.000000
                                -0.000000 -0.000000 -0.000000  0.000000 -0.000000 -0.000000  0.000000  0.000000 -0.000000

   5.1   0     0.1036   -3.1860  0.000268 -0.001361  0.004521 -0.016046  0.069215 -0.182321  0.141354 -0.120988  0.741516 -1.251140
                                 2.430256 -4.713256  3.257665  0.000000  0.000000 -0.000000 -0.000000  0.000000  0.000000 -0.000000
                                -0.000000  0.000000  0.000000 -0.000000 -0.000000  0.000000  0.000000 -0.000000 -0.000000  0.000000
                                 0.000000 -0.000000 -0.000000  0.000000  0.000000 -0.000000 -0.000000  0.000000  0.000000

   6.1   0     0.1137   -2.5102  0.000000 -0.000000  0.000000 -0.000000  0.000000 -0.000000  0.000000 -0.000000  0.000000 -0.000000
                                 0.000000  0.000000 -0.000000  0.000299 -0.000304 -0.001376  0.001401  0.003678 -0.003743 -0.006778
                                 0.006898  0.017039 -0.017339 -0.047744  0.048585  0.058557 -0.059588 -0.159022  0.161823  0.260499
                                -0.265088 -0.512543  0.521571  0.879213 -0.894700 -1.317738  1.340950  1.403379 -1.428100

                                   1 2px     1 2px     1 2px     1 2px     1 2px     1 2px     1 2px     1 2px     1 2px     1 2px  
                                   1 2px     1 2px     1 2px  

   1.2   2    -2.8268  -18.8651  0.000473 -0.007776  0.079067 -0.276376 -0.002600  0.425926  0.460864  0.236555  0.047504  0.007012
                                -0.000383  0.000641 -0.000147

   2.2   0     0.0300   -3.1004  0.000202 -0.000551 -0.003090  0.015679  0.016251 -0.075461  0.027362 -0.169776  0.282300 -0.477636
                                 1.007002 -1.220907  1.571903

   3.2   0     0.1121   -3.3358 -0.000669  0.003973 -0.019287  0.059725 -0.051507  0.040764 -0.278136  0.369240 -0.798734  1.604844
                                -2.577618  4.382899 -2.625042

                                   1 2py     1 2py     1 2py     1 2py     1 2py     1 2py     1 2py     1 2py     1 2py     1 2py  
                                   1 2py     1 2py     1 2py  

   1.3   2    -2.8268  -18.8651  0.000473 -0.007776  0.079067 -0.276376 -0.002600  0.425926  0.460864  0.236555  0.047504  0.007012
                                -0.000383  0.000641 -0.000147

   2.3   0     0.0300   -3.1004  0.000202 -0.000551 -0.003090  0.015679  0.016251 -0.075461  0.027362 -0.169776  0.282300 -0.477636
                                 1.007002 -1.220907  1.571903

   3.3   0     0.1121   -3.3358 -0.000669  0.003973 -0.019287  0.059725 -0.051507  0.040764 -0.278136  0.369240 -0.798734  1.604844
                                -2.577618  4.382899 -2.625042

                                   1 3d2-    1 3d2-    1 3d2-    1 3d2-    1 3d2-    1 3d2-    1 3d2-    1 3d2-    1 3d2-    1 3d2- 
                                   1 3d2-    1 3d2-    1 3d2- 

   1.4   2    -0.5112  -12.7819 -0.000103  0.000467  0.002803 -0.039327  0.031263  0.184471  0.291465  0.289957  0.231086  0.142437
                                 0.065668  0.016144  0.001679

   2.4   0     0.1137   -2.5102  0.000426 -0.001964  0.005248 -0.009671  0.024310 -0.068118  0.083544 -0.226881  0.371660 -0.731257
                                 1.254394 -1.880048  2.002234

   3.4   0     0.3204   -3.2144 -0.000867  0.003994 -0.012165  0.035179 -0.063986  0.076478 -0.289172  0.384837 -0.911007  1.602404
                                -2.914142  4.400864 -2.133910

                                   1 2pz     1 2pz     1 2pz     1 2pz     1 2pz     1 2pz     1 2pz     1 2pz     1 2pz     1 2pz  
                                   1 2pz     1 2pz     1 2pz  

   1.5   2    -2.8268  -18.8651  0.000473 -0.007776  0.079067 -0.276376 -0.002600  0.425926  0.460864  0.236555  0.047504  0.007012
                                -0.000383  0.000641 -0.000147

   2.5   0     0.0300   -3.1004  0.000202 -0.000551 -0.003090  0.015679  0.016251 -0.075461  0.027362 -0.169776  0.282300 -0.477636
                                 1.007002 -1.220907  1.571903

   3.5   0     0.1121   -3.3358 -0.000669  0.003973 -0.019287  0.059725 -0.051507  0.040764 -0.278136  0.369240 -0.798734  1.604844
                                -2.577618  4.382899 -2.625042

                                   1 3d1+    1 3d1+    1 3d1+    1 3d1+    1 3d1+    1 3d1+    1 3d1+    1 3d1+    1 3d1+    1 3d1+ 
                                   1 3d1+    1 3d1+    1 3d1+ 

   1.6   2    -0.5112  -12.7819 -0.000103  0.000467  0.002803 -0.039327  0.031263  0.184471  0.291465  0.289957  0.231086  0.142437
                                 0.065668  0.016144  0.001679

   2.6   0     0.1137   -2.5102  0.000426 -0.001964  0.005248 -0.009671  0.024310 -0.068118  0.083544 -0.226881  0.371660 -0.731257
                                 1.254394 -1.880048  2.002234

   3.6   0     0.3204   -3.2144 -0.000867  0.003994 -0.012165  0.035179 -0.063986  0.076478 -0.289172  0.384837 -0.911007  1.602404
                                -2.914142  4.400864 -2.133910

                                   1 3d1-    1 3d1-    1 3d1-    1 3d1-    1 3d1-    1 3d1-    1 3d1-    1 3d1-    1 3d1-    1 3d1- 
                                   1 3d1-    1 3d1-    1 3d1- 

   1.7   2    -0.5112  -12.7819 -0.000103  0.000467  0.002803 -0.039327  0.031263  0.184471  0.291465  0.289957  0.231086  0.142437
                                 0.065668  0.016144  0.001679

   2.7   0     0.1137   -2.5102  0.000426 -0.001964  0.005248 -0.009671  0.024310 -0.068118  0.083544 -0.226881  0.371660 -0.731257
                                 1.254394 -1.880048  2.002234

   3.7   0     0.3204   -3.2144 -0.000867  0.003994 -0.012165  0.035179 -0.063986  0.076478 -0.289172  0.384837 -0.911007  1.602404
                                -2.914142  4.400864 -2.133910

 HOMO      4.1    -0.237148 =      -6.4531eV
 LUMO      2.2     0.029991 =       0.8161eV
 LUMO-HOMO         0.267138 =       7.2692eV


 **********************************************************************************************************************************
 DATASETS  * FILE   NREC   LENGTH (MB)   RECORD NAMES
              1      19       20.00       500      610      700      900      950      970     1000      129      960     1100   
                                          VAR    BASINP    GEOM    SYMINP    ZMAT    AOBASIS   BASIS     P2S    ABASIS      S 
                                         1400     1410     1420     1200     1210     1080     1600     1650     1700   
                                           T        V       ECP      H0       H01     AOSYM     SMH    MOLCAS    OPER   

              2       4        2.83       700     1000      520     4202   
                                         GEOM     BASIS   MCVARS     RHF  

 PROGRAMS   *        TOTAL       RHF       INT
 CPU TIMES  *         2.34      0.12      1.98
 REAL TIME  *         3.35 SEC
 DISK USED  *       457.35 MB      
 SF USED    *         0.01 MB      
 GA USED    *         0.00 MB       (max)       0.00 MB       (current)
 **********************************************************************************************************************************


 PROGRAM * POP (Mulliken population analysis)

 
 Density matrix read from record         4202.2  Type=RHF/CHARGE (state 1.1)
 
 Population analysis by basis function type

 Unique atom        s        p        d        f        g    Total    Charge
   1  AG      3.00000  6.00000 10.00000  0.00000  0.00000 19.00000  - 0.00000


 **********************************************************************************************************************************
 DATASETS  * FILE   NREC   LENGTH (MB)   RECORD NAMES
              1      19       20.00       500      610      700      900      950      970     1000      129      960     1100   
                                          VAR    BASINP    GEOM    SYMINP    ZMAT    AOBASIS   BASIS     P2S    ABASIS      S 
                                         1400     1410     1420     1200     1210     1080     1600     1650     1700   
                                           T        V       ECP      H0       H01     AOSYM     SMH    MOLCAS    OPER   

              2       4        2.83       700     1000      520     4202   
                                         GEOM     BASIS   MCVARS     RHF  

 PROGRAMS   *        TOTAL       POP       RHF       INT
 CPU TIMES  *         2.34      0.00      0.12      1.98
 REAL TIME  *         3.36 SEC
 DISK USED  *       457.35 MB      
 SF USED    *         0.01 MB      
 GA USED    *         0.00 MB       (max)       0.00 MB       (current)
 **********************************************************************************************************************************


 PROGRAM * MULTI (Direct Multiconfiguration SCF)       Authors: P.J. Knowles, H.-J. Werner (1984)     S.T. Elbert (1988)


 Number of closed-shell orbitals:   9 (   3   1   1   1   1   1   1   0 )
 Number of active  orbitals:        1 (   1   0   0   0   0   0   0   0 )
 Number of external orbitals:     107 (  35  12  12  12  12  12  12   0 )

 State symmetry 1

 Orbital occupancy restrictions for symmetry 1
  1      1       2                               

 Number of electrons:     1    Spin symmetry=Doublet   Space symmetry=1
 Number of states:        1
 Number of CSFs:          1
 
 Maximum number of shells:             1
 Maximum number of spin couplings:     1

 Storage for configuration lists       2, coupling coefficients      1, address lists      7

 Molecular orbitals read from record     4202.2  Type=RHF/CANONICAL (state 1.1)
 *** IN SYMMETRY 1 ORBITAL  2 SYMMETRY CONTAMINATION OF 0.270D-01 HAS BEEN REMOVED
 *** IN SYMMETRY 1 ORBITAL  3 SYMMETRY CONTAMINATION OF 0.270D-01 HAS BEEN REMOVED

 EXTRA SYMMETRY OF MOS IN SYMMETRY 1:   1 3 2 1 1 3 2 2 3 1   2 3 1 2 3 2 3 1 2 3   3 2 1 3 2 1 3 2 3 2   1 3 2 1 1 3 2 1 1

 Wavefunction dump at record             5202.2

 Convergence thresholds  0.10E-01 (gradient)  0.10E-05 (energy)  0.10E-02 (step length)

 Number of orbital rotations:      215   (     3 Core/Active    177 Core/Virtual   0 Active/Active     35 Active/Virtual)
 Total number of variables:        216


 ITER. MIC  NCI  NEG     ENERGY(VAR)     ENERGY(PROJ)   ENERGY CHANGE     GRAD(0)  GRAD(ORB)   GRAD(CI)     STEP       TIME

   1   22    4    0    -146.05291156    -146.05291156   -0.00000000    0.00000695 0.00000000 0.00000000  0.69D-05      0.06

 ** WVFN ****  CONVERGENCE REACHED, FINAL GRADIENT:  0.40D-11


 First order charge density matrix for state 1.1 saved on record  5202.2 (density set 1)

 Results for state 1.1
 =====================

 !MCSCF STATE 1.1 Energy             -146.052911557615
 Nuclear energy                         0.00000000
 Kinetic energy                        56.61905718
 One electron energy                 -261.00214774
 Two electron energy                  114.94923618
 Virial ratio                           3.57957159

 !MCSCF STATE 1.1 Dipole moment         0.00000000     0.00000000     0.00000000
 Dipole moment /Debye                   0.00000000     0.00000000     0.00000000


 NATURAL ORBITALS
 ================

   Orb     Occ        Energy       Coefficients

                                   1 1s      1 1s      1 1s      1 1s      1 1s      1 1s      1 1s      1 1s      1 1s      1 1s   
                                   1 1s      1 1s      1 1s      1 3d0     1 3d2+    1 3d0     1 3d2+    1 3d0     1 3d2+    1 3d0  
                                   1 3d2+    1 3d0     1 3d2+    1 3d0     1 3d2+    1 3d0     1 3d2+    1 3d0     1 3d2+    1 3d0  
                                   1 3d2+    1 3d0     1 3d2+    1 3d0     1 3d2+    1 3d0     1 3d2+    1 3d0     1 3d2+ 

   1.1  2.00000    -4.397068     0.000187 -0.001203  0.006572 -0.049135  0.324368 -0.830173  0.040602  0.867596  0.402042  0.041210
                                -0.001441  0.001527 -0.000235  0.000000  0.000000  0.000000  0.000000  0.000000  0.000000  0.000000
                                 0.000000  0.000000  0.000000  0.000000  0.000000  0.000000  0.000000  0.000000  0.000000  0.000000
                                 0.000000  0.000000  0.000000  0.000000  0.000000  0.000000  0.000000  0.000000  0.000000

   2.1  2.00000    -0.511160     0.000000  0.000000  0.000000  0.000000  0.000000  0.000000  0.000000  0.000000  0.000000  0.000000
                                 0.000000  0.000000  0.000000 -0.000103  0.000000  0.000467  0.000000  0.002803  0.000000 -0.039328
                                 0.000000  0.031263  0.000000  0.184471  0.000000  0.291465  0.000000  0.289956  0.000000  0.231088
                                 0.000000  0.142433  0.000000  0.065674  0.000000  0.016134  0.000000  0.001687  0.000000

   3.1  2.00000    -0.511160     0.000000  0.000000  0.000000  0.000000  0.000000  0.000000  0.000000  0.000000  0.000000  0.000000
                                 0.000000  0.000000  0.000000  0.000000 -0.000103  0.000000  0.000467  0.000000  0.002803  0.000000
                                -0.039328  0.000000  0.031263  0.000000  0.184471  0.000000  0.291465  0.000000  0.289956  0.000000
                                 0.231088  0.000000  0.142433  0.000000  0.065674  0.000000  0.016134  0.000000  0.001687

   4.1  1.00000    -0.105774    -0.000008  0.000101 -0.000983  0.010502 -0.079895  0.222996 -0.020638 -0.290413 -0.217113 -0.060146
                                 0.281317  0.481834  0.420529  0.000000  0.000000  0.000000  0.000000  0.000000  0.000000  0.000000
                                 0.000000  0.000000  0.000000  0.000000  0.000000  0.000000  0.000000  0.000000  0.000000  0.000000
                                 0.000000  0.000000  0.000000  0.000000  0.000000  0.000000  0.000000  0.000000  0.000000

                                   1 2px     1 2px     1 2px     1 2px     1 2px     1 2px     1 2px     1 2px     1 2px     1 2px  
                                   1 2px     1 2px     1 2px  

   1.2  2.00000    -2.826799     0.000473 -0.007776  0.079067 -0.276376 -0.002600  0.425926  0.460864  0.236555  0.047504  0.007012
                                -0.000383  0.000641 -0.000147

                                   1 2py     1 2py     1 2py     1 2py     1 2py     1 2py     1 2py     1 2py     1 2py     1 2py  
                                   1 2py     1 2py     1 2py  

   1.3  2.00000    -2.826799     0.000473 -0.007776  0.079067 -0.276376 -0.002600  0.425926  0.460864  0.236555  0.047504  0.007012
                                -0.000383  0.000641 -0.000147

                                   1 3d2-    1 3d2-    1 3d2-    1 3d2-    1 3d2-    1 3d2-    1 3d2-    1 3d2-    1 3d2-    1 3d2- 
                                   1 3d2-    1 3d2-    1 3d2- 

   1.4  2.00000    -0.511160    -0.000103  0.000467  0.002803 -0.039328  0.031263  0.184471  0.291465  0.289956  0.231088  0.142433
                                 0.065674  0.016134  0.001687

                                   1 2pz     1 2pz     1 2pz     1 2pz     1 2pz     1 2pz     1 2pz     1 2pz     1 2pz     1 2pz  
                                   1 2pz     1 2pz     1 2pz  

   1.5  2.00000    -2.826799     0.000473 -0.007776  0.079067 -0.276376 -0.002600  0.425926  0.460864  0.236555  0.047504  0.007012
                                -0.000383  0.000641 -0.000147

                                   1 3d1+    1 3d1+    1 3d1+    1 3d1+    1 3d1+    1 3d1+    1 3d1+    1 3d1+    1 3d1+    1 3d1+ 
                                   1 3d1+    1 3d1+    1 3d1+ 

   1.6  2.00000    -0.511160    -0.000103  0.000467  0.002803 -0.039328  0.031263  0.184471  0.291465  0.289956  0.231088  0.142433
                                 0.065674  0.016134  0.001687

                                   1 3d1-    1 3d1-    1 3d1-    1 3d1-    1 3d1-    1 3d1-    1 3d1-    1 3d1-    1 3d1-    1 3d1- 
                                   1 3d1-    1 3d1-    1 3d1- 

   1.7  2.00000    -0.511160    -0.000103  0.000467  0.002803 -0.039328  0.031263  0.184471  0.291465  0.289956  0.231088  0.142433
                                 0.065674  0.016134  0.001687
 

 EXTRA SYMMETRY OF MOS IN SYMMETRY 1:   1 2 3 1 1 2 3 2 3 1   2 3 1 2 3 2 3 1 2 3   3 2 1 3 2 1 3 2 3 2   1 2 3 1 1 3 2 1 1

 Natural orbital dump at molpro section  5202.2    (Orbital set 2)


 CI vector
 =========

 /             1.0000000


 **********************************************************************************************************************************
 DATASETS  * FILE   NREC   LENGTH (MB)   RECORD NAMES
              1      20       21.31       500      610      700      900      950      970     1000      129      960     1100   
                                          VAR    BASINP    GEOM    SYMINP    ZMAT    AOBASIS   BASIS     P2S    ABASIS      S 
                                         1400     1410     1420     1200     1210     1080     1600     1650     1700     1380   
                                           T        V       ECP      H0       H01     AOSYM     SMH    MOLCAS    OPER     JKOP   

              2       5        5.41       700     1000      520     4202     5202   
                                         GEOM     BASIS   MCVARS     RHF     MCSCF   

 PROGRAMS   *        TOTAL     MULTI       POP       RHF       INT
 CPU TIMES  *         2.45      0.11      0.00      0.12      1.98
 REAL TIME  *         3.57 SEC
 DISK USED  *       457.35 MB      
 SF USED    *         8.34 MB      
 GA USED    *         0.00 MB       (max)       0.00 MB       (current)
 **********************************************************************************************************************************


 PROGRAM * RHF-SCF (OPEN SHELL)       Authors: W. Meyer, H.-J. Werner


 NUMBER OF ELECTRONS:      10+    9-    SPACE SYMMETRY=1    SPIN SYMMETRY: Doublet 
 CONVERGENCE THRESHOLDS:    1.00E-05 (Density)    1.00E-07 (Energy)
 MAX. NUMBER OF ITERATIONS:        0
 INTERPOLATION TYPE:            DIIS
 INTERPOLATION STEPS:              2 (START)      1 (STEP)
 LEVEL SHIFTS:                 -0.60 (CLOSED) -0.30 (OPEN) 


 Singly occupied orbitals:      4.1
 Molecular orbitals read from record     5202.2  Type=MCSCF/NATURAL (state 1.1)

 Molecular orbital dump at record        2101.2

 ITERATION    DDIFF          GRAD             ENERGY        2-EL.EN.            DIPOLE MOMENTS         DIIS   ORB.
    1      0.000D+00      0.000D+00      -146.05291156    229.898472    0.00000    0.00000    0.00000    0    start

 Final alpha occupancy:   4   1   1   1   1   1   1
 Final beta  occupancy:   3   1   1   1   1   1   1

 !RHF STATE 1.1 Energy               -146.052911557616
 Nuclear energy                         0.00000000
 One-electron energy                 -261.00214774
 Two-electron energy                  114.94923618
 Virial quotient                       -2.57957159
 !RHF STATE 1.1 Dipole moment           0.00000000     0.00000000     0.00000000
 Dipole moment /Debye                   0.00000000     0.00000000     0.00000000

 ELECTRON ORBITALS
 =================


   Orb  Occ    Energy  Couls-En    Coefficients

                                   1 1s      1 1s      1 1s      1 1s      1 1s      1 1s      1 1s      1 1s      1 1s      1 1s   
                                   1 1s      1 1s      1 1s      1 3d0     1 3d2+    1 3d0     1 3d2+    1 3d0     1 3d2+    1 3d0  
                                   1 3d2+    1 3d0     1 3d2+    1 3d0     1 3d2+    1 3d0     1 3d2+    1 3d0     1 3d2+    1 3d0  
                                   1 3d2+    1 3d0     1 3d2+    1 3d0     1 3d2+    1 3d0     1 3d2+    1 3d0     1 3d2+ 

   1.1   2    -4.3971  -22.3149  0.000187 -0.001203  0.006572 -0.049135  0.324368 -0.830173  0.040602  0.867596  0.402042  0.041210
                                -0.001441  0.001527 -0.000235  0.000000  0.000000  0.000000  0.000000  0.000000  0.000000  0.000000
                                 0.000000  0.000000  0.000000  0.000000  0.000000  0.000000  0.000000  0.000000  0.000000  0.000000
                                 0.000000  0.000000  0.000000  0.000000  0.000000  0.000000  0.000000  0.000000  0.000000

   2.1   2    -0.5112  -12.7819  0.000000  0.000000  0.000000  0.000000  0.000000  0.000000  0.000000  0.000000  0.000000  0.000000
                                 0.000000  0.000000  0.000000 -0.000103  0.000000  0.000467  0.000000  0.002803  0.000000 -0.039328
                                 0.000000  0.031263  0.000000  0.184471  0.000000  0.291465  0.000000  0.289956  0.000000  0.231088
                                 0.000000  0.142433  0.000000  0.065674  0.000000  0.016134  0.000000  0.001687  0.000000

   3.1   2    -0.5112  -12.7819  0.000000  0.000000  0.000000  0.000000  0.000000  0.000000  0.000000  0.000000  0.000000  0.000000
                                 0.000000  0.000000  0.000000  0.000000 -0.000103  0.000000  0.000467  0.000000  0.002803  0.000000
                                -0.039328  0.000000  0.031263  0.000000  0.184471  0.000000  0.291465  0.000000  0.289956  0.000000
                                 0.231088  0.000000  0.142433  0.000000  0.065674  0.000000  0.016134  0.000000  0.001687

   4.1   +    -0.1058   -6.3350 -0.000008  0.000101 -0.000983  0.010502 -0.079895  0.222996 -0.020638 -0.290413 -0.217113 -0.060146
                                 0.281317  0.481834  0.420529  0.000000  0.000000  0.000000  0.000000  0.000000  0.000000  0.000000
                                 0.000000  0.000000  0.000000  0.000000  0.000000  0.000000  0.000000  0.000000  0.000000  0.000000
                                 0.000000  0.000000  0.000000  0.000000  0.000000  0.000000  0.000000  0.000000  0.000000

                                   1 2px     1 2px     1 2px     1 2px     1 2px     1 2px     1 2px     1 2px     1 2px     1 2px  
                                   1 2px     1 2px     1 2px  

   1.2   2    -2.8268  -18.8651  0.000473 -0.007776  0.079067 -0.276376 -0.002600  0.425926  0.460864  0.236555  0.047504  0.007012
                                -0.000383  0.000641 -0.000147

                                   1 2py     1 2py     1 2py     1 2py     1 2py     1 2py     1 2py     1 2py     1 2py     1 2py  
                                   1 2py     1 2py     1 2py  

   1.3   2    -2.8268  -18.8651  0.000473 -0.007776  0.079067 -0.276376 -0.002600  0.425926  0.460864  0.236555  0.047504  0.007012
                                -0.000383  0.000641 -0.000147

                                   1 3d2-    1 3d2-    1 3d2-    1 3d2-    1 3d2-    1 3d2-    1 3d2-    1 3d2-    1 3d2-    1 3d2- 
                                   1 3d2-    1 3d2-    1 3d2- 

   1.4   2    -0.5112  -12.7819 -0.000103  0.000467  0.002803 -0.039328  0.031263  0.184471  0.291465  0.289956  0.231088  0.142433
                                 0.065674  0.016134  0.001687

                                   1 2pz     1 2pz     1 2pz     1 2pz     1 2pz     1 2pz     1 2pz     1 2pz     1 2pz     1 2pz  
                                   1 2pz     1 2pz     1 2pz  

   1.5   2    -2.8268  -18.8651  0.000473 -0.007776  0.079067 -0.276376 -0.002600  0.425926  0.460864  0.236555  0.047504  0.007012
                                -0.000383  0.000641 -0.000147

                                   1 3d1+    1 3d1+    1 3d1+    1 3d1+    1 3d1+    1 3d1+    1 3d1+    1 3d1+    1 3d1+    1 3d1+ 
                                   1 3d1+    1 3d1+    1 3d1+ 

   1.6   2    -0.5112  -12.7819 -0.000103  0.000467  0.002803 -0.039328  0.031263  0.184471  0.291465  0.289956  0.231088  0.142433
                                 0.065674  0.016134  0.001687

                                   1 3d1-    1 3d1-    1 3d1-    1 3d1-    1 3d1-    1 3d1-    1 3d1-    1 3d1-    1 3d1-    1 3d1- 
                                   1 3d1-    1 3d1-    1 3d1- 

   1.7   2    -0.5112  -12.7819 -0.000103  0.000467  0.002803 -0.039328  0.031263  0.184471  0.291465  0.289956  0.231088  0.142433
                                 0.065674  0.016134  0.001687

 HOMO      4.1    -0.105774 =      -2.8783eV
 LUMO      2.2     0.038460 =       1.0465eV
 LUMO-HOMO         0.144234 =       3.9248eV


 **********************************************************************************************************************************
 DATASETS  * FILE   NREC   LENGTH (MB)   RECORD NAMES
              1      20       21.31       500      610      700      900      950      970     1000      129      960     1100   
                                          VAR    BASINP    GEOM    SYMINP    ZMAT    AOBASIS   BASIS     P2S    ABASIS      S 
                                         1400     1410     1420     1200     1210     1080     1600     1650     1700     1380   
                                           T        V       ECP      H0       H01     AOSYM     SMH    MOLCAS    OPER     JKOP   

              2       6        7.98       700     1000      520     4202     5202     2101   
                                         GEOM     BASIS   MCVARS     RHF     MCSCF     RHF  

 PROGRAMS   *        TOTAL       RHF     MULTI       POP       RHF       INT
 CPU TIMES  *         2.47      0.02      0.11      0.00      0.12      1.98
 REAL TIME  *         3.63 SEC
 DISK USED  *       457.35 MB      
 SF USED    *         8.34 MB      
 GA USED    *         0.00 MB       (max)       0.00 MB       (current)
 **********************************************************************************************************************************


 PROGRAM * CI (Multireference internally contracted CI)     Authors: H.-J. Werner, P.J. Knowles, 1987


 Convergence thresholds:  THRVAR = 1.00D-08  THRDEN = 1.00D-06

 Number of optimized states:  1  Roots:   1
 Number of reference states:  1  Roots:   1

 Reference symmetry:                   1   Doublet 
 Number of electrons:                 19
 Maximum number of shells:             3
 Maximum number of spin couplings:     5

 Reference space:        1 conf        1 CSFs
 N elec internal:        6 conf        6 CSFs
 N-1 el internal:       21 conf       36 CSFs
 N-2 el internal:       20 conf       70 CSFs

 Number of electrons in valence space:                     11
 Maximum number of open shell orbitals in reference space:  1
 Maximum number of open shell orbitals in internal spaces:  5


 Number of core orbitals:           4 (   1   1   1   0   1   0   0 )
 Number of closed-shell orbitals:   5 (   2   0   0   1   0   1   1 )
 Number of active  orbitals:        1 (   1   0   0   0   0   0   0 )
 Number of external orbitals:     107 (  35  12  12  12  12  12  12 )

 Molecular orbitals read from record     2101.2  Type=RHF/CANONICAL (state 1.1)

 Coulomb and exchange operators available. No transformation done.

 Number of p-space configurations:   1

 Reference wavefunction optimized for reference space (refopt=1)

 State     Reference Energy 
   1        -146.05291156

 Number of blocks in overlap matrix:    35   Smallest eigenvalue:  0.10D+01
 Number of N-2 electron functions:      35
 Number of N-1 electron functions:      36

 Number of internal configurations:                    3
 Number of singly external configurations:           708
 Number of doubly external configurations:         28749
 Total number of contracted configurations:        29460
 Total number of uncontracted configurations:      56611

 Diagonal Coupling coefficients finished.               Storage:    3167 words, CPU-Time:      0.00 seconds.
 Energy denominators for pairs finished in 1 passes.    Storage:   28897 words, CPU-time:      0.00 seconds.

  ITER. STATE  ROOT     SQ.NORM     CORR.ENERGY   TOTAL ENERGY   ENERGY CHANGE       DEN1      VAR(S)    VAR(P)      TIME
    1     1     1     1.00000000     0.00000000  -146.05291156    -0.00000000    -0.11753085  0.12D-02  0.33D-01     0.53
    2     1     1     1.02891041    -0.10743839  -146.16034995    -0.10743839    -0.00353693  0.15D-02  0.76D-03     0.95
    3     1     1     1.03677785    -0.11152267  -146.16443423    -0.00408428    -0.00028513  0.80D-04  0.89D-04     1.69
    4     1     1     1.03950798    -0.11185031  -146.16476187    -0.00032764    -0.00002340  0.84D-05  0.54D-05     2.15
    5     1     1     1.03994658    -0.11187933  -146.16479088    -0.00002901    -0.00000150  0.25D-06  0.41D-06     2.63
    6     1     1     1.03994760    -0.11188121  -146.16479277    -0.00000188    -0.00000007  0.95D-08  0.22D-07     3.19
    7     1     1     1.03995913    -0.11188129  -146.16479285    -0.00000009    -0.00000000  0.48D-09  0.87D-09     3.58


 =====================================
 Analysis of CPU times by interactions
 =====================================

       I      S      P

 I   0.0%
 S   0.0%   0.3%
 P  38.8%   1.7%   0.6%

 Initialization:  11.2%
 Other:           47.5%

 Total CPU:        3.6 seconds
 =====================================



 Reference coefficients greater than 0.0500000
 =============================================
 22/222           0.9805999



 RESULTS FOR STATE 1.1
 =====================

 Coefficient of reference function:   C(0) = 0.98059994 (fixed)   0.98059994 (relaxed)

 Energy contributions of configuration classes

 CLASS          SQ.NORM        ECORR1        ECORR2
 +++++++++++++++++++++++++++++++++++++++++++++++++++
 Internals    0.00000000   -0.00000000   -0.00000000
 Singles      0.00374539   -0.00158733   -0.00192866
 Pairs        0.03621374   -0.11029397   -0.10995264
 Total        1.03995913   -0.11188129   -0.11188129
 +++++++++++++++++++++++++++++++++++++++++++++++++++


 Reference energy                    -146.05291156
 Nuclear energy                         0.00000000
 Kinetic energy                        56.43850302
 One electron energy                 -260.46761208
 Two electron energy                  114.30281923
 Virial quotient                       -2.58980634
 Correlation energy                    -0.11188129
 !CI(SD) STATE 1.1 Energy            -146.164792852551

 Properties without orbital relaxation:

 !CI(SD) STATE 1.1 Dipole moment        0.00000000     0.00000000     0.00000000
 Dipole moment /Debye                   0.00000000     0.00000000     0.00000000

 Cluster corrected energies          -146.16926353 (Davidson, fixed reference)
 Cluster corrected energies          -146.16926353 (Davidson, relaxed reference)

 Cluster corrected energies          -146.16845627 (Pople, fixed reference)
 Cluster corrected energies          -146.16845627 (Pople, relaxed reference)


 Natural orbitals
 ================

   Orb     Occ           Coefficients

                         1 1s      1 1s      1 1s      1 1s      1 1s      1 1s      1 1s      1 1s      1 1s      1 1s   
                         1 1s      1 1s      1 1s      1 3d0     1 3d2+    1 3d0     1 3d2+    1 3d0     1 3d2+    1 3d0  
                         1 3d2+    1 3d0     1 3d2+    1 3d0     1 3d2+    1 3d0     1 3d2+    1 3d0     1 3d2+    1 3d0  
                         1 3d2+    1 3d0     1 3d2+    1 3d0     1 3d2+    1 3d0     1 3d2+    1 3d0     1 3d2+ 

   1.1    2.0000000    0.000187 -0.001203  0.006572 -0.049135  0.324368 -0.830173  0.040602  0.867596  0.402042  0.041210
                      -0.001441  0.001527 -0.000235  0.000000 -0.000000 -0.000000  0.000000  0.000000  0.000000  0.000000
                      -0.000000  0.000000 -0.000000 -0.000000  0.000000  0.000000 -0.000000 -0.000000  0.000000  0.000000
                      -0.000000 -0.000000  0.000000  0.000000 -0.000000 -0.000000  0.000000  0.000000 -0.000000

   2.1    1.9879011    0.000000 -0.000000  0.000000 -0.000000  0.000000 -0.000000 -0.000000  0.000000  0.000000  0.000000
                      -0.000000 -0.000000  0.000000  0.000000 -0.000103 -0.000000  0.000467 -0.000000  0.002807  0.000000
                      -0.039437 -0.000000  0.031552 -0.000000  0.185681 -0.000001  0.290478 -0.000001  0.285468 -0.000000
                       0.227922 -0.000000  0.145622 -0.000000  0.072770 -0.000000  0.020533 -0.000000  0.002487

   3.1    1.9879010    0.000000 -0.000000  0.000000  0.000000 -0.000000  0.000000  0.000000 -0.000000 -0.000000 -0.000000
                       0.000000  0.000001 -0.000000 -0.000103 -0.000000  0.000467  0.000000  0.002807  0.000000 -0.039437
                      -0.000000  0.031552  0.000000  0.185681  0.000000  0.290477  0.000001  0.285468  0.000001  0.227922
                       0.000000  0.145622  0.000000  0.072770  0.000000  0.020533  0.000000  0.002487  0.000000

   4.1    0.9894529   -0.000009  0.000107 -0.001030  0.010970 -0.083515  0.233760 -0.023768 -0.304541 -0.225681 -0.049125
                       0.305834  0.490662  0.388095  0.000000 -0.000000 -0.000000  0.000000 -0.000000  0.000000  0.000000
                      -0.000000 -0.000000  0.000000 -0.000000  0.000000 -0.000000  0.000000 -0.000000  0.000000 -0.000000
                       0.000000 -0.000000  0.000000 -0.000000  0.000000 -0.000000  0.000000  0.000000 -0.000000

   5.1    0.0075899    0.000000 -0.000000  0.000000  0.000000 -0.000000  0.000000  0.000000 -0.000001 -0.000001  0.000003
                      -0.000002  0.000003 -0.000003  0.000196  0.000000 -0.000963 -0.000000 -0.002392 -0.000000  0.050899
                       0.000000 -0.042644 -0.000000 -0.313089 -0.000000 -0.428387 -0.000000 -0.080810 -0.000000  0.315166
                       0.000000  0.392427  0.000000  0.236410  0.000000  0.074921  0.000000  0.008955  0.000000

   6.1    0.0075899   -0.000000  0.000000 -0.000000  0.000000 -0.000000  0.000000 -0.000000  0.000000 -0.000000  0.000000
                      -0.000000 -0.000000  0.000000 -0.000000  0.000196  0.000000 -0.000963  0.000000 -0.002392 -0.000000
                       0.050899  0.000000 -0.042644  0.000000 -0.313089  0.000000 -0.428387  0.000000 -0.080810 -0.000000
                       0.315166 -0.000000  0.392427 -0.000000  0.236410 -0.000000  0.074921 -0.000000  0.008955

   7.1    0.0032643   -0.000099  0.000652 -0.003771  0.030950 -0.221657  0.613121  0.057692 -1.459411 -0.130031  1.562245
                       0.425393 -0.568215 -0.494792  0.000000 -0.000000  0.000000  0.000000  0.000000 -0.000000 -0.000000
                       0.000000  0.000000 -0.000000  0.000000  0.000000  0.000001 -0.000000 -0.000001  0.000000  0.000001
                      -0.000000 -0.000001  0.000000 -0.000001 -0.000000  0.000001  0.000000 -0.000001 -0.000000

   8.1    0.0004217    0.000000 -0.000000  0.000000 -0.000000  0.000000 -0.000000  0.000000 -0.000000  0.000000 -0.000000
                       0.000000 -0.000000  0.000000 -0.000000  0.000287  0.000000 -0.001388  0.000000 -0.003056 -0.000000
                       0.069653  0.000000 -0.032850  0.000000 -0.711420  0.000000 -0.262635 -0.000000  0.863083 -0.000000
                       0.459855  0.000000 -0.311799  0.000000 -0.460353  0.000000 -0.179197  0.000000 -0.024419

   9.1    0.0004217   -0.000000  0.000000  0.000000 -0.000000  0.000000 -0.000000 -0.000001  0.000002 -0.000002 -0.000001
                       0.000004 -0.000004  0.000002  0.000287  0.000000 -0.001388 -0.000000 -0.003056 -0.000000  0.069653
                       0.000000 -0.032850 -0.000000 -0.711422 -0.000000 -0.262634 -0.000000  0.863086  0.000000  0.459853
                       0.000000 -0.311803 -0.000000 -0.460349 -0.000000 -0.179196 -0.000000 -0.024418 -0.000000

  10.1    0.0001881   -0.001900  0.009674 -0.032370  0.116305 -0.510709  1.359180 -0.446341 -3.589505  4.806964 -0.846586
                      -2.019864  0.548278  0.652319 -0.000000 -0.000000  0.000000  0.000000  0.000000 -0.000000 -0.000000
                       0.000000 -0.000001 -0.000000  0.000002  0.000000 -0.000000 -0.000000 -0.000006  0.000000  0.000007
                      -0.000000 -0.000003  0.000000  0.000003 -0.000000 -0.000005  0.000000  0.000002 -0.000000

  11.1    0.0000524   -0.000000  0.000000 -0.000000  0.000000  0.000000 -0.000000  0.000000 -0.000000  0.000000  0.000000
                      -0.000000  0.000000 -0.000000 -0.000000 -0.001403  0.000000  0.006606 -0.000000 -0.031127  0.000000
                       0.183242 -0.000000 -0.219705 -0.000000 -1.433051  0.000000  1.507549  0.000000  0.764291 -0.000000
                      -1.346796 -0.000000 -0.281203  0.000000  0.532742  0.000000  0.321795  0.000000  0.038935

  12.1    0.0000524   -0.000000  0.000000 -0.000000 -0.000000  0.000002 -0.000007  0.000014 -0.000015 -0.000000  0.000022
                      -0.000028  0.000014 -0.000002 -0.001403  0.000000  0.006606 -0.000000 -0.031127  0.000000  0.183242
                      -0.000000 -0.219705  0.000000 -1.433049  0.000000  1.507550 -0.000000  0.764289 -0.000000 -1.346799
                       0.000000 -0.281201  0.000000  0.532743 -0.000000  0.321795 -0.000000  0.038935 -0.000000

  13.1    0.0000241    0.008567 -0.042968  0.136555 -0.411745  1.449354 -4.244024  6.431380 -3.001191 -3.774340  7.664217
                      -5.681745  1.176658  0.575735  0.000000  0.000000 -0.000000 -0.000000  0.000000  0.000000 -0.000001
                      -0.000000  0.000000  0.000000 -0.000002 -0.000000  0.000010  0.000000 -0.000017 -0.000000  0.000011
                       0.000000  0.000004 -0.000000 -0.000011  0.000000  0.000008 -0.000000 -0.000004  0.000000

  14.1    0.0000087    0.000000 -0.000000  0.000001 -0.000001 -0.000000  0.000014 -0.000038  0.000048 -0.000033  0.000004
                       0.000020 -0.000023  0.000010 -0.014004 -0.000000  0.066597  0.000000 -0.221204 -0.000001  0.770959
                       0.000002 -1.660471 -0.000004 -0.337145 -0.000001  3.585796  0.000008 -3.860460 -0.000009  1.059436
                       0.000002  0.995245  0.000002 -0.323163 -0.000001 -0.495187 -0.000001 -0.043252 -0.000000

  15.1    0.0000087    0.000000 -0.000000 -0.000000  0.000000 -0.000000  0.000000  0.000000 -0.000000  0.000000  0.000000
                      -0.000000  0.000000 -0.000000  0.000000 -0.014004 -0.000000  0.066597  0.000001 -0.221204 -0.000002
                       0.770959  0.000004 -1.660473  0.000001 -0.337142 -0.000008  3.585797  0.000009 -3.860463 -0.000002
                       1.059441 -0.000002  0.995239  0.000001 -0.323158  0.000001 -0.495189  0.000000 -0.043251

  16.1    0.0000044    0.000101 -0.002100  0.019626 -0.168259  1.268795 -5.556722 12.664012-17.224136 16.894920-12.220432
                       5.404238 -0.235941 -0.803515 -0.000000 -0.000000  0.000001  0.000000 -0.000004 -0.000000  0.000012
                       0.000000 -0.000028 -0.000000  0.000017  0.000000  0.000025  0.000000 -0.000063 -0.000000  0.000067
                       0.000000 -0.000038 -0.000000  0.000005  0.000000  0.000005 -0.000000 -0.000001  0.000000

  17.1    0.0000019   -0.000000  0.000001 -0.000004  0.000013 -0.000036  0.000085 -0.000144  0.000173 -0.000160  0.000118
                      -0.000063  0.000018 -0.000001 -0.022635 -0.000000  0.112260  0.000000 -0.403494 -0.000001  1.597272
                       0.000006 -4.809901 -0.000017  6.253448  0.000022 -3.698336 -0.000013 -0.896385 -0.000003  3.995126
                       0.000014 -3.541932 -0.000012  1.040813  0.000004  0.153110  0.000001  0.190132  0.000001

  18.1    0.0000019    0.000000 -0.000000  0.000000 -0.000000  0.000000 -0.000000  0.000000 -0.000000  0.000000 -0.000000
                       0.000000  0.000000 -0.000000  0.000000 -0.022635 -0.000000  0.112260  0.000001 -0.403495 -0.000006
                       1.597278  0.000017 -4.809920 -0.000022  6.253484  0.000013 -3.698383  0.000003 -0.896343 -0.000014
                       3.995103  0.000012 -3.541930 -0.000004  1.040825 -0.000001  0.153102 -0.000001  0.190132

  19.1    0.0000007   -0.045646  0.223863 -0.667381  1.589985 -2.861487  2.760982  0.212011 -4.488053  9.047491-13.077676
                      14.613157-11.253102  4.309927  0.000000  0.000000 -0.000004 -0.000000  0.000011  0.000000 -0.000008
                       0.000000 -0.000067 -0.000000  0.000178  0.000000 -0.000260 -0.000000  0.000272  0.000000 -0.000211
                      -0.000000  0.000109  0.000000 -0.000036  0.000000  0.000023 -0.000000 -0.000022  0.000000

                         1 2px     1 2px     1 2px     1 2px     1 2px     1 2px     1 2px     1 2px     1 2px     1 2px  
                         1 2px     1 2px     1 2px  

   1.2    2.0000000    0.000473 -0.007776  0.079067 -0.276376 -0.002600  0.425926  0.460864  0.236555  0.047504  0.007012
                      -0.000383  0.000641 -0.000147

   2.2    0.0083505   -0.000057  0.003143 -0.040893  0.155441  0.005696 -0.317361 -0.378459  0.033325  0.456558  0.469051
                       0.186370  0.030594  0.000776

   3.2    0.0006509   -0.000068  0.004824 -0.064390  0.243719  0.085308 -0.884021 -0.394819  1.072408  0.628411 -0.479278
                      -0.548380 -0.143865 -0.006800

   4.2    0.0000483   -0.003119  0.021691 -0.130453  0.395950  0.275943 -2.505867  1.926260  1.292839 -1.827177 -0.371120
                       0.698860  0.354861  0.010663

   5.2    0.0000090   -0.021677  0.119340 -0.488914  1.496978 -1.655266 -2.075933  6.000732 -5.276038  1.115333  1.348328
                      -0.307305 -0.679120  0.004214

   6.2    0.0000017    0.058096 -0.318572  1.245677 -4.016432  7.870313 -7.672663  2.635999  3.546661 -6.694170  5.160061
                      -1.488513 -0.157325 -0.195952

   7.2    0.0000005   -0.014782  0.019058  0.424889 -3.151919  9.413503-15.527690 18.672513-17.987732 13.612295 -7.178478
                       1.953556 -0.213277  0.322228

   8.2    0.0000001    0.311013 -1.498620  3.965816 -6.234604  5.285166 -1.920967 -2.583629  7.659541-12.362943 14.624989
                     -12.255259  6.062061 -1.037644

   9.2    0.0000000   -0.575541  2.877865 -8.152127 14.628862-17.086933 16.510275-15.270857 14.325129-13.438101 11.684550
                      -8.244255  3.795418 -0.706120

  10.2    0.0000000    1.652352 -6.528068 11.743160-11.706525  9.159733 -6.581208  4.491402 -2.729401  1.025369  0.757635
                      -2.297908  2.664840 -1.365610

  11.2    0.0000000   -0.601241  2.416737 -4.496958  4.734175 -4.037380  3.394067 -3.198754  3.699341 -5.138234  7.444476
                      -9.463108  8.677709 -4.043817

  12.2    0.0000000   -2.847590  7.718293 -8.186758  6.381508 -4.584321  3.235652 -2.272223  1.587702 -1.100506  0.751335
                      -0.490641  0.274606 -0.093663

  13.2    0.0000000    2.882840 -3.953793  3.294037 -2.432997  1.745302 -1.235775  0.863976 -0.592565  0.391669 -0.239421
                       0.123842 -0.044807  0.007046

                         1 2py     1 2py     1 2py     1 2py     1 2py     1 2py     1 2py     1 2py     1 2py     1 2py  
                         1 2py     1 2py     1 2py  

   1.3    2.0000000    0.000473 -0.007776  0.079067 -0.276376 -0.002600  0.425926  0.460864  0.236555  0.047504  0.007012
                      -0.000383  0.000641 -0.000147

   2.3    0.0083505   -0.000057  0.003143 -0.040893  0.155441  0.005696 -0.317361 -0.378459  0.033325  0.456558  0.469051
                       0.186370  0.030594  0.000776

   3.3    0.0006509   -0.000068  0.004824 -0.064390  0.243719  0.085308 -0.884021 -0.394819  1.072408  0.628411 -0.479278
                      -0.548380 -0.143865 -0.006800

   4.3    0.0000483   -0.003119  0.021691 -0.130453  0.395950  0.275943 -2.505867  1.926260  1.292839 -1.827177 -0.371120
                       0.698860  0.354861  0.010663

   5.3    0.0000090   -0.021677  0.119340 -0.488914  1.496978 -1.655266 -2.075933  6.000732 -5.276038  1.115333  1.348328
                      -0.307305 -0.679120  0.004214

   6.3    0.0000017    0.058096 -0.318572  1.245677 -4.016432  7.870313 -7.672664  2.635999  3.546661 -6.694170  5.160061
                      -1.488513 -0.157325 -0.195952

   7.3    0.0000005   -0.014782  0.019058  0.424889 -3.151919  9.413503-15.527690 18.672513-17.987732 13.612294 -7.178478
                       1.953556 -0.213277  0.322228

   8.3    0.0000001    0.311013 -1.498620  3.965816 -6.234604  5.285166 -1.920966 -2.583629  7.659541-12.362944 14.624989
                     -12.255259  6.062061 -1.037644

   9.3    0.0000000   -0.575541  2.877865 -8.152127 14.628862-17.086933 16.510275-15.270857 14.325129-13.438100 11.684549
                      -8.244255  3.795418 -0.706120

  10.3    0.0000000    1.652352 -6.528068 11.743160-11.706525  9.159733 -6.581208  4.491402 -2.729401  1.025370  0.757635
                      -2.297907  2.664839 -1.365609

  11.3    0.0000000   -0.601240  2.416737 -4.496957  4.734174 -4.037379  3.394066 -3.198754  3.699341 -5.138234  7.444476
                      -9.463108  8.677709 -4.043817

  12.3    0.0000000   -2.847589  7.718292 -8.186757  6.381508 -4.584320  3.235652 -2.272223  1.587702 -1.100506  0.751335
                      -0.490641  0.274606 -0.093663

  13.3    0.0000000    2.882840 -3.953794  3.294039 -2.432999  1.745303 -1.235776  0.863976 -0.592565  0.391669 -0.239421
                       0.123842 -0.044807  0.007046

                         1 3d2-    1 3d2-    1 3d2-    1 3d2-    1 3d2-    1 3d2-    1 3d2-    1 3d2-    1 3d2-    1 3d2- 
                         1 3d2-    1 3d2-    1 3d2- 

   1.4    1.9879010   -0.000103  0.000467  0.002807 -0.039437  0.031552  0.185681  0.290478  0.285468  0.227922  0.145622
                       0.072770  0.020533  0.002487

   2.4    0.0075899    0.000196 -0.000963 -0.002392  0.050899 -0.042644 -0.313089 -0.428387 -0.080810  0.315166  0.392427
                       0.236410  0.074921  0.008955

   3.4    0.0004217    0.000287 -0.001388 -0.003056  0.069653 -0.032850 -0.711418 -0.262635  0.863081  0.459855 -0.311796
                      -0.460355 -0.179197 -0.024419

   4.4    0.0000524   -0.001403  0.006606 -0.031127  0.183242 -0.219705 -1.433050  1.507546  0.764291 -1.346791 -0.281207
                       0.532740  0.321797  0.038935

   5.4    0.0000087   -0.014004  0.066597 -0.221205  0.770960 -1.660472 -0.337146  3.585800 -3.860461  1.059439  0.995235
                      -0.323151 -0.495192 -0.043251

   6.4    0.0000019   -0.022635  0.112260 -0.403495  1.597277 -4.809923  6.253490 -3.698388 -0.896337  3.995095 -3.541920
                       1.040819  0.153102  0.190132

   7.4    0.0000005    0.055585 -0.248349  0.599173 -0.342838 -3.127782  8.152667-11.861961 12.728081-10.371253  5.821510
                      -1.722053  0.264338 -0.354967

   8.4    0.0000001   -0.279046  1.348772 -4.073686  8.790553-11.139960 10.122766 -7.189405  3.407921  0.497634 -3.393188
                       3.899537 -2.026738  0.183033

   9.4    0.0000001   -0.124479  0.643493 -2.172567  5.389908 -8.225067  9.977159-11.333443 12.768750-13.915788 13.496728
                     -10.170455  4.698054 -0.690758

  10.4    0.0000000    1.025317 -4.365472  9.600541-11.197663  9.621855 -7.367718  5.441820 -3.930518  2.689004 -1.578869
                       0.592760  0.064557 -0.175470

  11.4    0.0000000   -0.072440  0.342848 -0.880259  1.240393 -1.384150  1.541668 -1.942373  2.822960 -4.397653  6.572417
                      -8.348552  7.668437 -3.666348

  12.4    0.0000000   -2.092286  6.724663 -8.066464  6.627130 -4.817181  3.409670 -2.409011  1.702824 -1.197988  0.826978
                      -0.537759  0.293841 -0.097729

  13.4    0.0000000    2.937401 -4.341905  3.717357 -2.725412  1.933884 -1.362156  0.953160 -0.658740  0.444104 -0.284796
                       0.164859 -0.076778  0.021261

                         1 2pz     1 2pz     1 2pz     1 2pz     1 2pz     1 2pz     1 2pz     1 2pz     1 2pz     1 2pz  
                         1 2pz     1 2pz     1 2pz  

   1.5    2.0000000    0.000473 -0.007776  0.079067 -0.276376 -0.002600  0.425926  0.460864  0.236555  0.047504  0.007012
                      -0.000383  0.000641 -0.000147

   2.5    0.0083506   -0.000057  0.003143 -0.040893  0.155440  0.005696 -0.317360 -0.378457  0.033323  0.456556  0.469052
                       0.186370  0.030596  0.000776

   3.5    0.0006509   -0.000068  0.004824 -0.064389  0.243719  0.085308 -0.884017 -0.394820  1.072398  0.628421 -0.479279
                      -0.548378 -0.143868 -0.006801

   4.5    0.0000483   -0.003119  0.021692 -0.130454  0.395953  0.275941 -2.505871  1.926263  1.292836 -1.827169 -0.371125
                       0.698860  0.354860  0.010663

   5.5    0.0000090   -0.021677  0.119341 -0.488920  1.496995 -1.655298 -2.075902  6.000724 -5.276056  1.115355  1.348320
                      -0.307309 -0.679119  0.004219

   6.5    0.0000017    0.058096 -0.318573  1.245684 -4.016466  7.870410 -7.672835  2.636211  3.546474 -6.694061  5.160029
                      -1.488508 -0.157342 -0.195934

   7.5    0.0000005   -0.014784  0.019068  0.424859 -3.151854  9.413412-15.527630 18.672545-17.987879 13.612517 -7.178688
                       1.953671 -0.213296  0.322217

   8.5    0.0000001    0.311045 -1.498779  3.966266 -6.235427  5.286172 -1.921993 -2.582641  7.658621-12.362157 14.624453
                     -12.255059  6.062117 -1.037726

   9.5    0.0000000   -0.575524  2.877783 -8.151909 14.628515-17.086626 16.510142-15.270968 14.325531-13.438799 11.685434
                      -8.245064  3.795883 -0.706237

  10.5    0.0000000    1.652915 -6.530317 11.747330-11.710917  9.163492 -6.584390  4.494430 -2.732929  1.030272  0.750573
                      -2.289005  2.656742 -1.361861

  11.5    0.0000000   -0.599684  2.410640 -4.486040  4.723289 -4.028824  3.387851 -3.194402  3.696516 -5.136861  7.444672
                      -9.464792  8.679946 -4.045041

  12.5    0.0000000   -2.847625  7.718341 -8.186799  6.381540 -4.584346  3.235673 -2.272243  1.587727 -1.100543  0.751390
                      -0.490712  0.274672 -0.093694

  13.5    0.0000000    2.882807 -3.953707  3.293952 -2.432934  1.745258 -1.235745  0.863957 -0.592558  0.391675 -0.239441
                       0.123874 -0.044839  0.007061

                         1 3d1+    1 3d1+    1 3d1+    1 3d1+    1 3d1+    1 3d1+    1 3d1+    1 3d1+    1 3d1+    1 3d1+ 
                         1 3d1+    1 3d1+    1 3d1+ 

   1.6    1.9879011   -0.000103  0.000467  0.002807 -0.039437  0.031552  0.185681  0.290478  0.285468  0.227922  0.145622
                       0.072770  0.020533  0.002487

   2.6    0.0075899    0.000196 -0.000963 -0.002392  0.050899 -0.042644 -0.313089 -0.428387 -0.080810  0.315166  0.392427
                       0.236410  0.074921  0.008956

   3.6    0.0004217    0.000287 -0.001388 -0.003056  0.069653 -0.032850 -0.711418 -0.262635  0.863081  0.459854 -0.311795
                      -0.460354 -0.179197 -0.024420

   4.6    0.0000524   -0.001403  0.006606 -0.031127  0.183241 -0.219704 -1.433049  1.507544  0.764291 -1.346788 -0.281208
                       0.532736  0.321800  0.038937

   5.6    0.0000087   -0.014004  0.066597 -0.221203  0.770957 -1.660465 -0.337153  3.585794 -3.860441  1.059418  0.995238
                      -0.323141 -0.495197 -0.043254

   6.6    0.0000019   -0.022635  0.112260 -0.403496  1.597276 -4.809907  6.253449 -3.698328 -0.896390  3.995110 -3.541895
                       1.040785  0.153114  0.190135

   7.6    0.0000005    0.055585 -0.248346  0.599164 -0.342816 -3.127818  8.152700-11.861964 12.728033-10.371157  5.821405
                      -1.721989  0.264327 -0.354974

   8.6    0.0000001   -0.279043  1.348758 -4.073635  8.790426-11.139754 10.122497 -7.189080  3.407545  0.498035 -3.393552
                       3.899786 -2.026842  0.183048

   9.6    0.0000001   -0.124486  0.643526 -2.172665  5.390117 -8.225339  9.977425-11.333658 12.768882-13.915808 13.496627
                     -10.170283  4.697917 -0.690714

  10.6    0.0000000    1.025321 -4.365491  9.600588-11.197726  9.621923 -7.367792  5.441913 -3.930654  2.689219 -1.579196
                       0.593184  0.064161 -0.175277

  11.6    0.0000000   -0.072360  0.342536 -0.879668  1.239768 -1.383653  1.541314 -1.942138  2.822828 -4.397614  6.572454
                      -8.348626  7.668493 -3.666362

  12.6    0.0000000   -2.092292  6.724672 -8.066475  6.627143 -4.817196  3.409688 -2.409035  1.702861 -1.198046  0.827065
                      -0.537870  0.293942 -0.097777

  13.6    0.0000000    2.937398 -4.341896  3.717349 -2.725408  1.933882 -1.362155  0.953160 -0.658741  0.444106 -0.284798
                       0.164860 -0.076778  0.021260

                         1 3d1-    1 3d1-    1 3d1-    1 3d1-    1 3d1-    1 3d1-    1 3d1-    1 3d1-    1 3d1-    1 3d1- 
                         1 3d1-    1 3d1-    1 3d1- 

   1.7    1.9879011   -0.000103  0.000467  0.002807 -0.039437  0.031552  0.185681  0.290478  0.285468  0.227922  0.145622
                       0.072770  0.020533  0.002487

   2.7    0.0075899    0.000196 -0.000963 -0.002392  0.050899 -0.042644 -0.313089 -0.428387 -0.080810  0.315166  0.392427
                       0.236410  0.074921  0.008956

   3.7    0.0004217    0.000287 -0.001388 -0.003056  0.069653 -0.032850 -0.711418 -0.262635  0.863081  0.459854 -0.311795
                      -0.460354 -0.179197 -0.024420

   4.7    0.0000524   -0.001403  0.006606 -0.031127  0.183241 -0.219704 -1.433049  1.507544  0.764291 -1.346788 -0.281208
                       0.532736  0.321800  0.038937

   5.7    0.0000087   -0.014004  0.066597 -0.221203  0.770957 -1.660465 -0.337153  3.585794 -3.860441  1.059418  0.995238
                      -0.323141 -0.495197 -0.043254

   6.7    0.0000019   -0.022635  0.112260 -0.403496  1.597276 -4.809907  6.253449 -3.698328 -0.896390  3.995110 -3.541895
                       1.040785  0.153114  0.190135

   7.7    0.0000005    0.055585 -0.248346  0.599164 -0.342816 -3.127818  8.152700-11.861964 12.728033-10.371157  5.821405
                      -1.721989  0.264327 -0.354974

   8.7    0.0000001   -0.279043  1.348758 -4.073635  8.790426-11.139754 10.122497 -7.189080  3.407545  0.498035 -3.393552
                       3.899786 -2.026842  0.183048

   9.7    0.0000001   -0.124486  0.643526 -2.172665  5.390117 -8.225339  9.977425-11.333658 12.768882-13.915808 13.496627
                     -10.170283  4.697917 -0.690714

  10.7    0.0000000    1.025321 -4.365491  9.600588-11.197726  9.621923 -7.367792  5.441913 -3.930654  2.689219 -1.579196
                       0.593184  0.064161 -0.175277

  11.7    0.0000000   -0.072360  0.342536 -0.879668  1.239768 -1.383653  1.541314 -1.942138  2.822828 -4.397614  6.572454
                      -8.348626  7.668493 -3.666362

  12.7    0.0000000   -2.092292  6.724672 -8.066475  6.627143 -4.817196  3.409688 -2.409035  1.702861 -1.198046  0.827065
                      -0.537870  0.293942 -0.097777

  13.7    0.0000000    2.937398 -4.341896  3.717349 -2.725408  1.933882 -1.362155  0.953160 -0.658741  0.444106 -0.284798
                       0.164860 -0.076778  0.021260

 Electronic charge:   19.000000


 **********************************************************************************************************************************
 DATASETS  * FILE   NREC   LENGTH (MB)   RECORD NAMES
              1      20       21.31       500      610      700      900      950      970     1000      129      960     1100   
                                          VAR    BASINP    GEOM    SYMINP    ZMAT    AOBASIS   BASIS     P2S    ABASIS      S 
                                         1400     1410     1420     1200     1210     1080     1600     1650     1700     1380   
                                           T        V       ECP      H0       H01     AOSYM     SMH    MOLCAS    OPER     JKOP   

              2       6        7.98       700     1000      520     4202     5202     2101   
                                         GEOM     BASIS   MCVARS     RHF     MCSCF     RHF  

 PROGRAMS   *        TOTAL        CI       RHF     MULTI       POP       RHF       INT
 CPU TIMES  *         6.46      3.99      0.02      0.11      0.00      0.12      1.98
 REAL TIME  *        10.53 SEC
 DISK USED  *       457.35 MB      
 SF USED    *         8.34 MB      
 GA USED    *         0.00 MB       (max)       0.00 MB       (current)
 **********************************************************************************************************************************

 CI/USERDEF energy=   -146.164792852551

        CI              RHF-SCF         MULTI           RHF-SCF 
   -146.16479285   -146.05291156   -146.05291156   -146.05291156
 **********************************************************************************************************************************
 Molpro calculation terminated
 Variable memory released
