<?xml version="1.0"?>
<molpro xmlns="http://www.molpro.net/schema/molpro-output"
  xmlns:xsd="http://www.w3.org/1999/XMLSchema"
  xmlns:cml="http://www.xml-cml.org/schema"
  xmlns:stm="http://www.xml-cml.org/schema"
  xmlns:xhtml="http://www.w3.org/1999/xhtml">
 <!--

 Nodes     nprocs
 nid12943    23
 Number of processes for MPI-2 version of Molpro:   nprocs(total)=   24   nprocs(compute)=   23   nprocs(helper)=    1

 Using customized tuning parameters: mindgm=7; mindgv=16; mindgc=1; mindgr=1; noblas=0; minvec=7
 default implementation of scratch files=sf

 --><job>
  <!--

 Variables initialized (889), CPU time= 0.02 sec
 Commands  initialized (702), CPU time= 0.01 sec, 572 directives.
 Default parameters read. Elapsed time= 0.16 sec

 Checking input...
 Passed
1


                                         ***  PROGRAM SYSTEM MOLPRO  ***
                                       Copyright, TTI GmbH Stuttgart, 2015
                                    Version 2015.1 linked Dec 29 2018 15:55:43


 **********************************************************************************************************************************
 LABEL *   Calculation for PdO groundstate
  64 bit mpp version                                                                     DATE: 30-Mar-21          TIME: 07:01:41
 **********************************************************************************************************************************

 SHA1:             19cd028119e0e09f93f0674bd8af7968d9b3eff6
 **********************************************************************************************************************************
  -->
  <!--

 THRESHOLDS:

 ZERO    =  1.00D-12  ONEINT  =  1.00D-12  TWOINT  =  1.00D-12  PREFAC  =  1.00D-14  LOCALI  =  1.00D-09  EORDER  =  1.00D-04
 ENERGY  =  0.00D+00  ETEST   =  0.00D+00  EDENS   =  0.00D+00  THRDEDEF=  1.00D-06  GRADIENT=  1.00D-02  STEP    =  1.00D-03
 ORBITAL =  1.00D-05  CIVEC   =  1.00D-05  COEFF   =  1.00D-04  PRINTCI =  5.00D-02  PUNCHCI =  9.90D+01  OPTGRAD =  3.00D-04
 OPTENERG=  1.00D-06  OPTSTEP =  3.00D-04  THRGRAD =  1.00D-10  COMPRESS=  1.00D-11  VARMIN  =  1.00D-07  VARMAX  =  1.00D-03
 THRDOUB =  0.00D+00  THRDIV  =  1.00D-05  THRRED  =  1.00D-07  THRPSP  =  1.00D+00  THRDC   =  1.00D-10  THRCS   =  1.00D-10
 THRNRM  =  1.00D-08  THREQ   =  0.00D+00  THRDE   =  1.00D+00  THRREF  =  1.00D-05  SPARFAC =  1.00D+00  THRDLP  =  1.00D-07
 THRDIA  =  1.00D-10  THRDLS  =  1.00D-07  THRGPS  =  0.00D+00  THRKEX  =  0.00D+00  THRDIS  =  2.00D-01  THRVAR  =  1.00D-10
 THRLOC  =  1.00D-06  THRGAP  =  1.00D-06  THRLOCT = -1.00D+00  THRGAPT = -1.00D+00  THRORB  =  1.00D-06  THRMLTP =  0.00D+00
 THRCPQCI=  1.00D-10  KEXTA   =  0.00D+00  THRCOARS=  0.00D+00  SYMTOL  =  1.00D-06  GRADTOL =  1.00D-06  THROVL  =  1.00D-08
 THRORTH =  1.00D-08  GRID    =  1.00D-06  GRIDMAX =  1.00D-03  DTMAX   =  0.00D+00  THROCCDE=  1.00D-01  THROCCDE=  1.00D-01



 THRESHOLDS:

 ZERO    =  1.00D-12  ONEINT  =  1.00D-12  TWOINT  =  1.00D-12  PREFAC  =  1.00D-14  LOCALI  =  1.00D-09  EORDER  =  1.00D-04
 ENERGY  =  0.00D+00  ETEST   =  0.00D+00  EDENS   =  0.00D+00  THRDEDEF=  1.00D-06  GRADIENT=  1.00D-02  STEP    =  1.00D-03
 ORBITAL =  1.00D-05  CIVEC   =  1.00D-05  COEFF   =  1.00D-04  PRINTCI =  5.00D-02  PUNCHCI =  9.90D+01  OPTGRAD =  3.00D-04
 OPTENERG=  1.00D-06  OPTSTEP =  3.00D-04  THRGRAD =  1.00D-10  COMPRESS=  1.00D-11  VARMIN  =  1.00D-07  VARMAX  =  1.00D-03
 THRDOUB =  0.00D+00  THRDIV  =  1.00D-05  THRRED  =  1.00D-07  THRPSP  =  1.00D+00  THRDC   =  1.00D-10  THRCS   =  1.00D-10
 THRNRM  =  1.00D-08  THREQ   =  0.00D+00  THRDE   =  1.00D+00  THRREF  =  1.00D-05  SPARFAC =  1.00D+00  THRDLP  =  1.00D-07
 THRDIA  =  1.00D-10  THRDLS  =  1.00D-07  THRGPS  =  0.00D+00  THRKEX  =  0.00D+00  THRDIS  =  2.00D-01  THRVAR  =  1.00D-10
 THRLOC  =  1.00D-06  THRGAP  =  1.00D-06  THRLOCT = -1.00D+00  THRGAPT = -1.00D+00  THRORB  =  1.00D-06  THRMLTP =  0.00D+00
 THRCPQCI=  1.00D-10  KEXTA   =  0.00D+00  THRCOARS=  0.00D+00  SYMTOL  =  1.00D-06  GRADTOL =  1.00D-06  THROVL  =  1.00D-12
 THRORTH =  1.00D-08  GRID    =  1.00D-06  GRIDMAX =  1.00D-03  DTMAX   =  0.00D+00  THROCCDE=  1.00D-01  THROCCDE=  1.00D-01


 SETTING DKROLL         =         1.00000000
 SETTING DKHO           =        10.00000000
 SETTING DKHP           =         4.00000000

 Variable memory set to  512000000 words,  buffer space   230000 words

 SETTING BASIS          =    USERDEF
 SETTING OE             =       -75.09181489
 SETTING PDE            =     -5044.36637900
 SETTING NE             =        54.00000000

Geometry recognized as XYZ

 SETTING A1             =        14.00000000
 SETTING B1             =         6.00000000
 SETTING B2             =         6.00000000
 SETTING A2             =         2.00000000
  --><jobstep command="RKS-SCF" commandset="SCFPRO">
   <!--


 Recomputing integrals since basis changed


 Using spherical harmonics



 PROGRAM * SEWARD (Integral evaluation for generally contracted gaussian basis sets)     Author: Roland Lindh, 1990

 Geometry written to block  1 of record 700


 Point group  C2v


   --><cml:molecule>
    <cml:symmetry pointGroup="C2v"/>
    <cml:atomArray>
     <cml:atom id="a1" elementType="Pd" x3="0.0" y3="0.0" z3="0.0"/>
     <cml:atom id="a2" elementType="O" x3="0.0" y3="0.0" z3="1.935"/>
    </cml:atomArray>
    <cml:bondArray>
     <cml:bond atomRefs2="a1 a2"/>
    </cml:bondArray>
   </cml:molecule><!--

 ATOMIC COORDINATES

 NR  ATOM    CHARGE       X              Y              Z

   1  PD     46.00    0.000000000    0.000000000    0.000000000
   2  O       8.00    0.000000000    0.000000000    3.656620051

 Bond lengths in Bohr (Angstrom)

 1-2  3.656620051
     ( 1.935000000)

 NUCLEAR CHARGE:                   54
 NUMBER OF PRIMITIVE AOS:         355
 NUMBER OF SYMMETRY AOS:          299
 NUMBER OF CONTRACTIONS:          182   (  73A1  +  43B1  +  43B2  +  23A2  )
 NUMBER OF CORE ORBITALS:          19   (  10A1  +   4B1  +   4B2  +   1A2  )
 NUMBER OF VALENCE ORBITALS:       10   (   5A1  +   2B1  +   2B2  +   1A2  )


 NUCLEAR REPULSION ENERGY  100.63938688

 One-electron integrals computed with SEWARD

 10nd-order Douglas-Kroll-Hess method activated. McWeeny DKH parametrization is used.

 Computing Douglas-Kroll / X2C integrals

 AO integral compression algorithm  1   Integral accuracy      1.0D-12

     158.859 MB (compressed) written to integral file ( 48.1%)

     Node minimum: 2.359 MB, node maximum: 12.321 MB


 NUMBER OF SORTED TWO-ELECTRON INTEGRALS:    1550197.     BUFFER LENGTH:  32768
 NUMBER OF SEGMENTS:   1  SEGMENT LENGTH:    1550197      RECORD LENGTH: 524288

 Memory used in sort:       2.11 MW

 SORT1 READ    41520926. AND WROTE     1007813. INTEGRALS IN      3 RECORDS. CPU TIME:     0.68 SEC, REAL TIME:     0.72 SEC
 SORT2 READ    23461926. AND WROTE    35715180. INTEGRALS IN   1081 RECORDS. CPU TIME:     0.14 SEC, REAL TIME:     0.19 SEC

 Node minimum:     1548720.  Node maximum:     1570662. integrals

 OPERATOR DM      FOR CENTER  0  COORDINATES:    0.000000    0.000000    0.000000

 EXTRA SYMMETRY OF AOS IN SYMMETRY 1:   1 1 1 1 1 1 1 1 1 1   1 1 1 1 1 1 1 1 1 1   1 1 2 1 2 1 2 1 2 1   2 1 2 1 2 1 2 1 2 1
                                        2 1 2 1 2 1 3 2 1 3   2 1 3 2 1 1 1 1 1 1   1 1 1 1 2 1 2 1 2 1   2 1 2
 EXTRA SYMMETRY OF AOS IN SYMMETRY 2:   1 1 1 1 1 1 1 1 1 1   1 1 1 1 1 1 1 1 1 2   1 2 1 2 1 2 1 2 1 2   1 2 1 1 1 1 1 1 1 1
                                        2 1 2
 EXTRA SYMMETRY OF AOS IN SYMMETRY 3:   1 1 1 1 1 1 1 1 1 1   1 1 1 1 1 1 1 1 1 2   1 2 1 2 1 2 1 2 1 2   1 2 1 1 1 1 1 1 1 1
                                        2 1 2
 EXTRA SYMMETRY OF AOS IN SYMMETRY 4:   1 1 1 1 1 1 1 1 1 1   1 1 1 2 1 2 1 2 1 1   1 1 1

 Eigenvalues of metric

         1 0.113E-03 0.332E-03 0.518E-03 0.781E-03 0.154E-02 0.158E-02 0.344E-02 0.459E-02
         2 0.645E-03 0.156E-02 0.209E-02 0.144E-01 0.289E-01 0.420E-01 0.492E-01 0.533E-01
         3 0.645E-03 0.156E-02 0.209E-02 0.144E-01 0.289E-01 0.420E-01 0.492E-01 0.533E-01
         4 0.158E-02 0.224E-01 0.876E-01 0.103E+00 0.134E+00 0.148E+00 0.216E+00 0.327E+00


 **********************************************************************************************************************************
 DATASETS  * FILE   NREC   LENGTH (MB)   RECORD NAMES
              1      22       20.91       500      610      700      900      950      970     1000      129      960     1700
                                          VAR    BASINP    GEOM    SYMINP    ZMAT    AOBASIS   BASIS     P2S    ABASIS    OPER
                                         1101     1401     1411     1412     1650     1100     1400     1410     1200     1210
                                          SR      EKINR    POTR     PVPR    MOLCAS      S      EKIN      POT      H0       H01
                                         1080     1600
                                         AOSYM     SMH

 PROGRAMS   *        TOTAL       INT
 CPU TIMES  *         8.56      8.16
 REAL TIME  *         9.76 SEC
 DISK USED  *       429.59 MB
 GA USED    *         0.00 MB       (max)       0.00 MB       (current)
 **********************************************************************************************************************************

 Density functional group PBE0=PBEX+PBEC
 Functional: PBEX(Automatically generated (new) PBEX)                          Gradient terms: 1
 Functional: PBEC(Automatically generated (new) PBEC)                          Gradient terms: 1
 Use grid at  1800.2


 Exact exchange will be calculated, factor:  0.2500

 Functional: PBEX                      Factor:  0.7500
 Functional: PBEC                      Factor:  1.0000

 Generated new metagrid on record  1800.2 with target accuracy 1.0D-06 and 4869 points in CPU time    0.1
 Computed new grid on record 1800.1 in CPU time    0.1
  152282 words reserved for DFT integration

 PROGRAM * RKS-SCF (Restricted open shell Kohn-Sham)     Authors: W. Meyer, H.-J. Werner, P.J. Knowles, 1993

 NUMBER OF ELECTRONS:      28+   26-    SPACE SYMMETRY=2    SPIN SYMMETRY: Triplet
 CONVERGENCE THRESHOLDS:    1.00E-05 (Density)    1.08E-06 (Energy)
 MAX. NUMBER OF ITERATIONS:       60
 INTERPOLATION TYPE:            DIIS
 INTERPOLATION STEPS:              2 (START)      1 (STEP)
 LEVEL SHIFTS:                 -0.60 (CLOSED) -0.30 (OPEN)

 Number of closed-shell orbitals:   26 (  13   5   6   2 )
 Number of open-shell orbitals:      2 (   1   1   0   0 )


 Use fine grid record 1800.2 for energy threshold  1.0D-06
 Orbital guess generated from atomic densities. Full valence occupancy:   15   6   6   2

 Molecular orbital dump at record        2100.2

 ITERATION    DDIFF          GRAD             ENERGY        2-EL.EN.            DIPOLE MOMENTS         DIIS   ORB.
    1      0.000D+00      0.000D+00     -5098.99495041   3769.374251    0.00000    0.00000  -10.21142    0    start
    2      0.000D+00      0.748D-01     -5088.83216185   4841.598567    0.00000    0.00000   21.17743    1    diag,B
    3      0.534D+00      0.195D+00     -5110.38167356   4625.260052    0.00000    0.00000    8.84642    2    diag,B
    4      0.554D-01      0.118D+00     -5114.09697563   4557.502908    0.00000    0.00000    7.09487    3    diag,B
    5      0.156D-01      0.904D-01     -5117.74421407   4481.749300    0.00000    0.00000    2.71904    4    diag,B
    6      0.231D-01      0.577D-01     -5118.83800319   4435.185803    0.00000    0.00000    2.05923    5    diag,B
    7      0.110D-01      0.401D-01     -5120.03512952   4358.977180    0.00000    0.00000   -0.16268    6    fixocc
    8      0.163D-01      0.124D-01     -5120.19388966   4325.988252    0.00000    0.00000   -1.22044    7    diag,B
    9      0.767D-02      0.261D-02     -5120.20954076   4315.982099    0.00000    0.00000   -1.61739    8    diag,B
   10      0.397D-02      0.115D-02     -5120.21387712   4315.070756    0.00000    0.00000   -1.59260    9    orth
   11      0.160D-02      0.641D-03     -5120.21628078   4314.451972    0.00000    0.00000   -1.65654    9    diag,B
   12      0.129D-02      0.509D-03     -5120.21810263   4314.129886    0.00000    0.00000   -1.67013    9    diag,B
   13      0.134D-02      0.275D-03     -5120.21900373   4314.224341    0.00000    0.00000   -1.67226    9    diag,B
   14      0.104D-02      0.864D-04     -5120.21925445   4314.067839    0.00000    0.00000   -1.67614    9    diag,B
   15      0.509D-03      0.486D-04     -5120.21933859   4314.034298    0.00000    0.00000   -1.67757    9    diag,B
   16      0.330D-03      0.269D-04     -5120.21936372   4314.018740    0.00000    0.00000   -1.67741    9    diag,B
   17      0.207D-03      0.126D-04     -5120.21936787   4314.024331    0.00000    0.00000   -1.67729    9    diag,B
   18      0.817D-04      0.621D-05     -5120.21936862   4314.023919    0.00000    0.00000   -1.67741    9    diag,B
   19      0.423D-04      0.238D-05     -5120.21936870   4314.023128    0.00000    0.00000   -1.67764    9    diag,B
   20      0.135D-04      0.113D-05     -5120.21936872   4314.023679    0.00000    0.00000   -1.67767    9    orth
   21      0.369D-05      0.772D-06     -5120.21936873   4314.022438    0.00000    0.00000   -1.67778    0    orth

 Final alpha occupancy:  14   6   6   2
 Final beta  occupancy:  13   5   6   2

 !RKS STATE 1.2 Energy              -5120.219368726775
   --><property name="Energy" method="RKS" principal="true" stateSymmetry="2" stateNumber="1"
     value="-5120.21936872678"/><!--
 Nuclear energy                       100.63938688
 One-electron energy                -7262.11894529
 Two-electron energy                 2157.01121880
 Density functional                  -115.75102912     PBEX=-150.78149280 PBEC=  -2.66490952
 Virial quotient                       -0.88777140
 !RKS STATE 1.2 Dipole moment           0.00000000     0.00000000    -1.67777967
 Dipole moment /Debye                   0.00000000     0.00000000    -4.26421124
   --><property name="Dipole moment" method="RKS" principal="true" stateSymmetry="2"
     stateNumber="1" value="0.0 0.0 -1.67777966567741"/><!--

 Orbital energies:

         1.1          2.1          3.1          4.1          5.1          6.1          7.1          8.1          9.1         10.1
   -889.957607  -130.831509  -117.299232   -24.025747   -19.547413   -19.225029   -12.400455   -12.390146    -3.439932    -2.150502

        11.1         12.1         13.1         14.1         15.1         16.1
     -0.893643    -0.365267    -0.293041    -0.264759    -0.096994     0.014940

         1.2          2.2          3.2          4.2          5.2          6.2          7.2          8.2
   -117.293978   -19.535609   -12.398582    -2.131581    -0.328348    -0.330892    -0.005526     0.041249

         1.3          2.3          3.3          4.3          5.3          6.3          7.3          8.3
   -117.293047   -19.533290   -12.397099    -2.129188    -0.342822    -0.248727    -0.003173     0.042315

         1.4          2.4          3.4          4.4
    -12.390217    -0.293078     0.070616     0.255876

 HOMO      6.3    -0.248727 =      -6.7682eV
 LUMO     15.1    -0.096994 =      -2.6393eV
 LUMO-HOMO         0.151733 =       4.1289eV


 **********************************************************************************************************************************
 DATASETS  * FILE   NREC   LENGTH (MB)   RECORD NAMES
              1      23       20.91       500      610      700      900      950      970     1000      129      960     1700
                                          VAR    BASINP    GEOM    SYMINP    ZMAT    AOBASIS   BASIS     P2S    ABASIS    OPER
                                         1101     1401     1411     1412     1650     1100     1400     1410     1200     1210
                                          SR      EKINR    POTR     PVPR    MOLCAS      S      EKIN      POT      H0       H01
                                         1080     1600     1800
                                         AOSYM     SMH     GRID

              2       5        3.08       700     1000      520     1800     2100
                                         GEOM     BASIS   MCVARS    GRID      RKS

 PROGRAMS   *        TOTAL       RKS       INT
 CPU TIMES  *        12.95      4.38      8.16
 REAL TIME  *        14.37 SEC
 DISK USED  *         1.02 GB
 SF USED    *         0.04 MB
 GA USED    *         0.22 MB       (max)       0.22 MB       (current)
 **********************************************************************************************************************************
   -->
   <time start="07:01:42" end="07:01:56" cpu="12.95" system="1.04" real="14.37"/>
   <storage units="megabyte" memory="4097.84" sf="0.04" df="585.66" eaf="429.59" ga="0.22"/>
  </jobstep><!--
  --><jobstep command="RHF-SCF" commandset="SCFPRO">
   <!--


 PROGRAM * RHF-SCF (OPEN SHELL)       Authors: W. Meyer, H.-J. Werner


 NUMBER OF ELECTRONS:      28+   26-    SPACE SYMMETRY=2    SPIN SYMMETRY: Triplet
 CONVERGENCE THRESHOLDS:    1.00E-05 (Density)    1.08E-07 (Energy)
 MAX. NUMBER OF ITERATIONS:       60
 INTERPOLATION TYPE:            DIIS
 INTERPOLATION STEPS:              2 (START)      1 (STEP)
 LEVEL SHIFTS:                 -0.60 (CLOSED) -0.30 (OPEN)

 Number of closed-shell orbitals:   26 (  13   5   6   2 )
 Number of open-shell orbitals:      2 (   1   1   0   0 )


 Molecular orbitals read from record     2100.2  Type=RKS/CANONICAL (state 1.2)

 Molecular orbital dump at record        2101.2

 ITERATION    DDIFF          GRAD             ENERGY        2-EL.EN.            DIPOLE MOMENTS         DIIS   ORB.
    1      0.000D+00      0.000D+00     -5117.67826896   4087.602579    0.00000    0.00000   -1.67778    0    start
    2      0.000D+00      0.117D-01     -5117.70716389   4088.097449    0.00000    0.00000   -1.81726    1    diag,B
    3      0.732D-02      0.143D-02     -5117.71622965   4088.691421    0.00000    0.00000   -1.92430    2    diag,B
    4      0.137D-02      0.810D-03     -5117.72269429   4088.637131    0.00000    0.00000   -2.03089    3    diag,B
    5      0.124D-02      0.547D-03     -5117.72694152   4088.696374    0.00000    0.00000   -2.14432    4    diag,B
    6      0.132D-02      0.333D-03     -5117.72857974   4088.338278    0.00000    0.00000   -2.21596    5    diag,B
    7      0.940D-03      0.195D-03     -5117.72904743   4088.364997    0.00000    0.00000   -2.24599    6    diag,B
    8      0.457D-03      0.108D-03     -5117.72924239   4088.229569    0.00000    0.00000   -2.27049    7    orth
    9      0.371D-03      0.486D-04     -5117.72927106   4088.234930    0.00000    0.00000   -2.27597    8    diag,B
   10      0.146D-03      0.234D-04     -5117.72927640   4088.221434    0.00000    0.00000   -2.27672    9    diag,B
   11      0.561D-04      0.129D-04     -5117.72927878   4088.227993    0.00000    0.00000   -2.27683    9    diag,B
   12      0.422D-04      0.741D-05     -5117.72927966   4088.227473    0.00000    0.00000   -2.27623    9    diag,B
   13      0.219D-04      0.543D-05     -5117.72928025   4088.230514    0.00000    0.00000   -2.27640    9    diag,B
   14      0.156D-04      0.454D-05     -5117.72928079   4088.231861    0.00000    0.00000   -2.27632    9    diag,B
   15      0.140D-04      0.383D-05     -5117.72928142   4088.232220    0.00000    0.00000   -2.27642    9    diag,B
   16      0.197D-04      0.314D-05     -5117.72928217   4088.233865    0.00000    0.00000   -2.27657    9    diag,B
   17      0.329D-04      0.210D-05     -5117.72928252   4088.234321    0.00000    0.00000   -2.27656    9    diag,B
   18      0.265D-04      0.125D-05     -5117.72928261   4088.234147    0.00000    0.00000   -2.27644    9    orth
   19      0.150D-04      0.618D-06     -5117.72928262   4088.234028    0.00000    0.00000   -2.27637    9    diag,B
   20      0.484D-05      0.326D-06     -5117.72928263   4088.233846    0.00000    0.00000   -2.27638    0    orth

 Final alpha occupancy:  14   6   6   2
 Final beta  occupancy:  13   5   6   2

 !RHF STATE 1.2 Energy              -5117.729282625125
   --><property name="Energy" method="RHF" principal="true" stateSymmetry="2" stateNumber="1"
     value="-5117.72928262513"/><!--
 Nuclear energy                       100.63938688
 One-electron energy                -7262.48559243
 Two-electron energy                 2044.11692292
 Virial quotient                       -0.88706979
 !RHF STATE 1.2 Dipole moment           0.00000000     0.00000000    -2.27637620
 Dipole moment /Debye                   0.00000000     0.00000000    -5.78559222
   --><property name="Dipole moment" method="RHF" principal="true" stateSymmetry="2"
     stateNumber="1" value="0.0 0.0 -2.27637619797791"/><!--

 Orbital energies:

         1.1          2.1          3.1          4.1          5.1          6.1          7.1          8.1          9.1         10.1
   -899.578036  -134.536032  -120.429600   -25.689796   -20.933951   -20.512576   -13.346670   -13.344341    -3.994040    -2.549165

        11.1         12.1         13.1         14.1         15.1         16.1
     -1.139164    -0.466929    -0.454882    -0.439918    -0.013291     0.032413

         1.2          2.2          3.2          4.2          5.2          6.2          7.2          8.2
   -120.425742   -20.919242   -13.356088    -2.545533    -0.483170    -0.513637     0.022136     0.078451

         1.3          2.3          3.3          4.3          5.3          6.3          7.3          8.3
   -120.425703   -20.919257   -13.356653    -2.545387    -0.508817    -0.386441     0.023070     0.079836

         1.4          2.4          3.4          4.4
    -13.346581    -0.455252     0.094699     0.322356

 HOMO      6.3    -0.386441 =     -10.5156eV
 LUMO     15.1    -0.013291 =      -0.3617eV
 LUMO-HOMO         0.373150 =      10.1539eV


 **********************************************************************************************************************************
 DATASETS  * FILE   NREC   LENGTH (MB)   RECORD NAMES
              1      23       20.91       500      610      700      900      950      970     1000      129      960     1700
                                          VAR    BASINP    GEOM    SYMINP    ZMAT    AOBASIS   BASIS     P2S    ABASIS    OPER
                                         1101     1401     1411     1412     1650     1100     1400     1410     1200     1210
                                          SR      EKINR    POTR     PVPR    MOLCAS      S      EKIN      POT      H0       H01
                                         1080     1600     1800
                                         AOSYM     SMH     GRID

              2       6        5.96       700     1000      520     1800     2100     2101
                                         GEOM     BASIS   MCVARS    GRID      RKS      RHF

 PROGRAMS   *        TOTAL       RHF       RKS       INT
 CPU TIMES  *        17.00      4.05      4.38      8.16
 REAL TIME  *        18.62 SEC
 DISK USED  *         1.08 GB
 SF USED    *         0.04 MB
 GA USED    *         0.22 MB       (max)       0.22 MB       (current)
 **********************************************************************************************************************************
   -->
   <time start="07:01:56" end="07:02:00" cpu="4.05" system="0.16" real="4.25"/>
   <storage units="megabyte" memory="4097.84" sf="0.04" df="651.96" eaf="429.59" ga="0.22"/>
  </jobstep><!--
 SETTING BASIS          =    USERDEF
  --><jobstep command="RHF-SCF" commandset="SCFPRO">
   <!--


 Recomputing integrals since basis changed


 Using spherical harmonics



 PROGRAM * SEWARD (Integral evaluation for generally contracted gaussian basis sets)     Author: Roland Lindh, 1990

 Geometry written to block  1 of record 700


 Point group  C2v



 ATOMIC COORDINATES

 NR  ATOM    CHARGE       X              Y              Z

   1  PD     46.00    0.000000000    0.000000000    0.000000000
   2  O       8.00    0.000000000    0.000000000    3.656620051

 Bond lengths in Bohr (Angstrom)

 1-2  3.656620051
     ( 1.935000000)

 NUCLEAR CHARGE:                   54
 NUMBER OF PRIMITIVE AOS:         642
 NUMBER OF SYMMETRY AOS:          471
 NUMBER OF CONTRACTIONS:          471   ( 186A1  + 112B1  + 112B2  +  61A2  )
 NUMBER OF CORE ORBITALS:          19   (  10A1  +   4B1  +   4B2  +   1A2  )
 NUMBER OF VALENCE ORBITALS:       10   (   5A1  +   2B1  +   2B2  +   1A2  )


 NUCLEAR REPULSION ENERGY  100.63938688

 One-electron integrals computed with SEWARD

 10nd-order Douglas-Kroll-Hess method activated. McWeeny DKH parametrization is used.

 Computing Douglas-Kroll / X2C integrals

 AO integral compression algorithm  1   Integral accuracy      1.0D-12

     3420.717 MB (compressed) written to integral file ( 24.3%)

     Node minimum: 112.984 MB, node maximum: 238.813 MB


 NUMBER OF SORTED TWO-ELECTRON INTEGRALS:   68267011.     BUFFER LENGTH:  32768
 NUMBER OF SEGMENTS:   3  SEGMENT LENGTH:   31980583      RECORD LENGTH: 524288

 Memory used in sort:      32.54 MW

 SORT1 READ  1760380706. AND WROTE    27876895. INTEGRALS IN     81 RECORDS. CPU TIME:    38.24 SEC, REAL TIME:    47.55 SEC
 SORT2 READ   622115901. AND WROTE  1570932477. INTEGRALS IN  10718 RECORDS. CPU TIME:     1.59 SEC, REAL TIME:     3.53 SEC

 Node minimum:    68250355.  Node maximum:    68491598. integrals

 OPERATOR DM      FOR CENTER  0  COORDINATES:    0.000000    0.000000    0.000000

 EXTRA SYMMETRY OF AOS IN SYMMETRY 1:   1 1 1 1 1 1 1 1 1 1   1 1 1 1 1 1 1 1 1 1   1 1 1 1 1 1 1 1 1 1   1 1 1 1 1 1 1 1 1 1
                                        1 1 1 1 1 1 1 1 1 1   1 1 1 2 1 2 1 2 1 2   1 2 1 2 1 2 1 2 1 2   1 2 1 2 1 2 1 2 1 2
                                        1 2 1 2 1 2 1 2 1 2   1 2 1 2 1 2 1 3 2 1   3 2 1 3 2 1 3 2 2 3   1 2 3 1 2 3 1 4 3 2
                                        1 4 3 2 1 1 1 1 1 1   1 1 1 1 1 1 1 1 1 1   1 1 1 1 1 1 1 1 1 1   1 1 1 1 2 1 2 1 2 1
                                        2 1 2 1 2 1 2 1 2 1   2 1 3 2 1 3 2 1 3 2   2 3 1 2 3 1
 EXTRA SYMMETRY OF AOS IN SYMMETRY 2:   1 1 1 1 1 1 1 1 1 1   1 1 1 1 1 1 1 1 1 1   1 1 1 1 1 1 1 1 1 1   1 1 1 1 1 1 1 1 1 1
                                        1 2 1 2 1 2 1 2 1 2   1 2 1 2 1 2 1 2 1 2   3 1 2 3 1 2 3 3 2 1   3 2 1 1 1 1 1 1 1 1
                                        1 1 1 1 1 1 1 1 1 1   1 1 1 2 1 2 1 2 1 2   1 2 1 2 1 2 1 2 3 1   2 3
 EXTRA SYMMETRY OF AOS IN SYMMETRY 3:   1 1 1 1 1 1 1 1 1 1   1 1 1 1 1 1 1 1 1 1   1 1 1 1 1 1 1 1 1 1   1 1 1 1 1 1 1 1 1 1
                                        1 2 1 2 1 2 1 2 1 2   1 2 1 2 1 2 1 2 1 2   3 1 2 3 1 2 3 3 2 1   3 2 1 1 1 1 1 1 1 1
                                        1 1 1 1 1 1 1 1 1 1   1 1 1 2 1 2 1 2 1 2   1 2 1 2 1 2 1 2 3 1   2 3
 EXTRA SYMMETRY OF AOS IN SYMMETRY 4:   1 1 1 1 1 1 1 1 1 1   1 1 1 1 1 1 1 1 1 1   1 1 1 2 1 2 1 2 1 2   2 1 2 1 2 1 1 3 2 1
                                        3 2 1 1 1 1 1 1 1 1   1 1 2 1 2 1 2 2 1 2   1

 Eigenvalues of metric

         1 0.255E-07 0.834E-07 0.553E-06 0.849E-06 0.852E-06 0.179E-05 0.643E-05 0.739E-05
         2 0.285E-07 0.769E-06 0.969E-06 0.894E-05 0.174E-04 0.629E-04 0.270E-03 0.466E-03
         3 0.285E-07 0.769E-06 0.969E-06 0.894E-05 0.174E-04 0.629E-04 0.270E-03 0.466E-03
         4 0.948E-05 0.306E-03 0.301E-02 0.106E-01 0.180E-01 0.227E-01 0.298E-01 0.508E-01


 **********************************************************************************************************************************
 DATASETS  * FILE   NREC   LENGTH (MB)   RECORD NAMES
              1      22       24.20       500      610      700      900      950      970     1001      129      960     1700
                                          VAR    BASINP    GEOM    SYMINP    ZMAT    AOBASIS   BASIS     P2S    ABASIS    OPER
                                         1101     1401     1411     1412     1650     1100     1400     1410     1200     1210
                                          SR      EKINR    POTR     PVPR    MOLCAS      S      EKIN      POT      H0       H01
                                         1080     1600
                                         AOSYM     SMH

              2       7        6.16       700     1000      520     1800     2100     2101     1001
                                         GEOM     BASIS   MCVARS    GRID      RKS      RHF     BASIS

 PROGRAMS   *        TOTAL       INT       RHF       RKS       INT
 CPU TIMES  *       111.47     94.41      4.05      4.38      8.16
 REAL TIME  *       125.33 SEC
 DISK USED  *        11.54 GB
 SF USED    *         0.04 MB
 GA USED    *         0.22 MB       (max)       0.00 MB       (current)
 **********************************************************************************************************************************


 PROGRAM * RHF-SCF (OPEN SHELL)       Authors: W. Meyer, H.-J. Werner


 NUMBER OF ELECTRONS:      28+   26-    SPACE SYMMETRY=2    SPIN SYMMETRY: Triplet
 CONVERGENCE THRESHOLDS:    1.00E-05 (Density)    1.08E-07 (Energy)
 MAX. NUMBER OF ITERATIONS:       60
 INTERPOLATION TYPE:            DIIS
 INTERPOLATION STEPS:              2 (START)      1 (STEP)
 LEVEL SHIFTS:                 -0.60 (CLOSED) -0.30 (OPEN)

 Number of closed-shell orbitals:   26 (  13   5   6   2 )
 Number of open-shell orbitals:      2 (   1   1   0   0 )


 Molecular orbitals read from record     2101.2  Type=RHF/CANONICAL (state 1.2)

 Present basis size:     186 112 112  61
 Previous basis size:     73  43  43  23
 Previous occupation:     14   6   6   2
 Previous closed-shells:  13   5   6   2
 Previous core-orbitals:  10   4   4   1
 Present occupation:      14   6   6   2
 Present closed-shells:   13   5   6   2
 Present core-orbitals:   10   4   4   1
 Wavefunction symmetry:    2   Triplet

 Orbital overlap <old|new>:  < 1.1| 1.1> = 1.000000   < 2.1| 2.1> = 1.000000   < 3.1| 3.1> = 1.000000   < 4.1| 4.1> = 1.000000
                             < 5.1| 5.1> = 1.000000   < 6.1| 6.1> = 0.999164   < 7.1| 7.1> = 1.000000   < 8.1| 8.1> = 1.000000
                             < 9.1| 9.1> = 1.000000   <10.1|10.1> = 1.000000   < 1.2| 1.2> = 1.000000   < 2.2| 2.2> = 1.000000
                             < 3.2| 3.2> = 1.000000   < 4.2| 4.2> = 1.000000   < 1.3| 1.3> = 1.000000   < 2.3| 2.3> = 1.000000
                             < 3.3| 3.3> = 1.000000   < 4.3| 4.3> = 1.000000   < 1.4| 1.4> = 1.000000   <11.1|11.1> = 0.999956
                             <12.1|12.1> = 0.999996   <13.1|13.1> = 1.000000   < 5.2| 5.2> = 1.000000   < 5.3| 5.3> = 0.999999
                             < 6.3| 6.3> = 0.999997   < 2.4| 2.4> = 1.000000   <14.1|14.1> = 0.999999   < 6.2| 6.2> = 0.999996

 Molecular orbital dump at record        2102.2

 ITERATION    DDIFF          GRAD             ENERGY        2-EL.EN.            DIPOLE MOMENTS         DIIS   ORB.
    1      0.000D+00      0.000D+00     -5115.68335051   4088.172267    0.00000    0.00000   -2.27632    0    start
    2      0.000D+00      0.548D-01     -5115.77193107   4087.634320    0.00000    0.00000   -2.27680    1    diag,B
    3      0.118D+02      0.879D-03     -5115.77257797   4087.621941    0.00000    0.00000   -2.29688    2    diag,B
    4      0.494D+00      0.168D-03     -5115.77267946   4087.723323    0.00000    0.00000   -2.29846    3    diag,B
    5      0.337D-01      0.629D-04     -5115.77270471   4087.636212    0.00000    0.00000   -2.30356    4    diag,B
    6      0.590D-02      0.302D-04     -5115.77271052   4087.690309    0.00000    0.00000   -2.30559    5    diag,B
    7      0.360D-02      0.114D-04     -5115.77271191   4087.678868    0.00000    0.00000   -2.30705    6    diag,B
    8      0.234D-02      0.565D-05     -5115.77271263   4087.679143    0.00000    0.00000   -2.30857    7    orth
    9      0.191D-02      0.267D-05     -5115.77271282   4087.680347    0.00000    0.00000   -2.30945    8    diag,B
   10      0.618D-03      0.122D-05     -5115.77271287   4087.680170    0.00000    0.00000   -2.30983    9    diag,B
   11      0.303D-03      0.669D-06     -5115.77271289   4087.680132    0.00000    0.00000   -2.30996    9    diag,B
   12      0.121D-03      0.388D-06     -5115.77271289   4087.680507    0.00000    0.00000   -2.31000    9    diag,B
   13      0.130D-03      0.226D-06     -5115.77271291   4087.680438    0.00000    0.00000   -2.31001    9    diag,B
   14      0.125D-03      0.161D-06     -5115.77271290   4087.680572    0.00000    0.00000   -2.31001    9    diag,B
   15      0.125D-03      0.133D-06     -5115.77271290   4087.680648    0.00000    0.00000   -2.31001    9    diag,B
   16      0.522D-04      0.114D-06     -5115.77271290   4087.680675    0.00000    0.00000   -2.31001    9    diag,B
   17      0.101D-03      0.979D-07     -5115.77271291   4087.680698    0.00000    0.00000   -2.31001    9    diag,B
   18      0.508D-04      0.814D-07     -5115.77271291   4087.680720    0.00000    0.00000   -2.31001    9    orth
   19      0.710D-04      0.570D-07     -5115.77271291   4087.680752    0.00000    0.00000   -2.31000    9    diag,B
   20      0.143D-03      0.353D-07     -5115.77271291   4087.680756    0.00000    0.00000   -2.31000    9    diag,B
   21      0.128D-03      0.191D-07     -5115.77271291   4087.680734    0.00000    0.00000   -2.31000    9    diag,B
   22      0.544D-04      0.197D-07     -5115.77271291   4087.680734    0.00000    0.00000   -2.31000    9    diag,B
   23      0.686D-04      0.855D-08     -5115.77271290   4087.680737    0.00000    0.00000   -2.31000    9    diag,B
   24      0.550D-04      0.205D-07     -5115.77271292   4087.680737    0.00000    0.00000   -2.31000    9    diag,B
   25      0.667D-04      0.129D-07     -5115.77271291   4087.680736    0.00000    0.00000   -2.31000    9    diag,B
   26      0.136D-04      0.383D-08     -5115.77271291   4087.680734    0.00000    0.00000   -2.31000    9    diag,B
   27      0.180D-04      0.619D-08     -5115.77271290   4087.680735    0.00000    0.00000   -2.31000    9    diag,B
   28      0.472D-05      0.120D-07     -5115.77271291   4087.680735    0.00000    0.00000   -2.31000    0    orth

 Final alpha occupancy:  14   6   6   2
 Final beta  occupancy:  13   5   6   2

 !RHF STATE 1.2 Energy              -5115.772712913506
   --><property name="Energy" method="RHF" principal="true" stateSymmetry="2" stateNumber="1"
     value="-5115.77271291351"/><!--
 Nuclear energy                       100.63938688
 One-electron energy                -7260.25246741
 Two-electron energy                 2043.84036762
 Virial quotient                       -0.88736464
 !RHF STATE 1.2 Dipole moment           0.00000000     0.00000000    -2.31000154
 Dipole moment /Debye                   0.00000000     0.00000000    -5.87105371
   --><property name="Dipole moment" method="RHF" principal="true" stateSymmetry="2"
     stateNumber="1" value="0.0 0.0 -2.31000153734637"/><!--

 Orbital energies:

         1.1          2.1          3.1          4.1          5.1          6.1          7.1          8.1          9.1         10.1
   -899.572860  -134.537089  -120.430049   -25.691285   -20.935252   -19.682595   -13.348317   -13.345772    -3.995483    -2.550439

        11.1         12.1         13.1         14.1         15.1         16.1
     -1.091102    -0.471484    -0.456421    -0.442906    -0.013768     0.030197

         1.2          2.2          3.2          4.2          5.2          6.2          7.2          8.2
   -120.426288   -20.920711   -13.357578    -2.547016    -0.484643    -0.520314     0.021595     0.077059

         1.3          2.3          3.3          4.3          5.3          6.3          7.3          8.3
   -120.426246   -20.920707   -13.358132    -2.546873    -0.511427    -0.391551     0.022473     0.078312

         1.4          2.4          3.4          4.4
    -13.348240    -0.456696     0.093618     0.313059

 HOMO      6.3    -0.391551 =     -10.6546eV
 LUMO     15.1    -0.013768 =      -0.3747eV
 LUMO-HOMO         0.377782 =      10.2800eV


 **********************************************************************************************************************************
 DATASETS  * FILE   NREC   LENGTH (MB)   RECORD NAMES
              1      22       24.20       500      610      700      900      950      970     1001      129      960     1700
                                          VAR    BASINP    GEOM    SYMINP    ZMAT    AOBASIS   BASIS     P2S    ABASIS    OPER
                                         1101     1401     1411     1412     1650     1100     1400     1410     1200     1210
                                          SR      EKINR    POTR     PVPR    MOLCAS      S      EKIN      POT      H0       H01
                                         1080     1600
                                         AOSYM     SMH

              2       8       10.45       700     1000      520     1800     2100     2101     1001     2102
                                         GEOM     BASIS   MCVARS    GRID      RKS      RHF     BASIS     RHF

 PROGRAMS   *        TOTAL       RHF       INT       RHF       RKS       INT
 CPU TIMES  *       125.79     14.10     94.41      4.05      4.38      8.16
 REAL TIME  *       141.80 SEC
 DISK USED  *        11.90 GB
 SF USED    *         0.26 MB
 GA USED    *         0.22 MB       (max)       0.00 MB       (current)
 **********************************************************************************************************************************
   -->
   <time start="07:02:00" end="07:04:03" cpu="108.79" system="11.23" real="123.18"/>
   <storage units="megabyte" memory="4097.84" sf="0.26" df="1011.05" eaf="10886.42"
     ga="0.0"/>
  </jobstep><!--
 SETTING SCF            =     -5115.77271291  AU
 SETTING _CC_NORM_MAX   =         2.00000000
  --><jobstep command="RCCSD(T)" commandset="CCSD">
   <!--


 PROGRAM * CCSD (Restricted open-shell coupled cluster)     Authors: C. Hampel, H.-J. Werner, 1991, M. Deegan, P.J. Knowles, 1992


 Convergence thresholds:  THRVAR = 1.00D-08  THRDEN = 1.08D-06

 CCSD(T)     terms to be evaluated (factor= 1.000)


 Number of closed-shell orbitals:  26 (  13   5   6   2 )
 Number of active  orbitals:        2 (   1   1   0   0 )
 Number of external orbitals:     443 ( 172 106 106  59 )

 For full I/O caching in triples, increase memory by 456.44 Mwords to 968.72 Mwords.

 Number of N-1 electron functions:              54
 Number of N-2 electron functions:            1431
 Number of singly external CSFs:              7356
 Number of doubly external CSFs:          54592887
 Total number of CSFs:                    54600243

 Molecular orbitals read from record     2102.2  Type=RHF/CANONICAL (state 1.2)

 Integral transformation finished. Total CPU:  73.60 sec, npass=  1  Memory used: 103.89 MW

 Starting RMP2 calculation

 Wavefunction is spin-projected

 ITER.      SQ.NORM     CORR.ENERGY   TOTAL ENERGY   ENERGY CHANGE        DEN1      VAR(S)    VAR(P)  DIIS     TIME
   1      1.19707812    -2.01575198 -5117.78846489    -2.01575198    -0.00161177  0.96D-05  0.57D-03  1  1   105.14
   2      1.19844479    -2.01745550 -5117.79016841    -0.00170352    -0.00000565  0.25D-06  0.30D-05  2  2   121.50
   3      1.19852634    -2.01751047 -5117.79022337    -0.00005496    -0.00000004  0.10D-07  0.20D-07  3  3   139.54
   4      1.19852862    -2.01751064 -5117.79022355    -0.00000018    -0.00000000  0.27D-09  0.18D-09  4  4   158.37

 Norm of t1 vector:      0.04074963      S-energy:    -0.00559267      T1 diagnostic:  0.00031693
 Norm of t2 vector:      0.44369819      P-energy:    -2.01191797
                                         Alpha-Beta:  -1.38168370
                                         Alpha-Alpha: -0.33728961
                                         Beta-Beta:   -0.29294467

 Spin contamination <S**2-Sz**2-Sz>     0.00000000
  Reference energy                  -5115.772712905728
   --><property name="energy" method="Reference" stateSymmetry="1" stateNumber="1"
     value="-5115.77271290573"/><!--
  RHF-RMP2 correlation energy          -2.017510644328
   --><property name="energy" method="RHF-RMP2 correlation" stateSymmetry="1" stateNumber="1"
     value="-2.01751064432779"/><!--
 !RHF-RMP2 energy                   -5117.790223550055
   --><property name="energy" method="RHF-RMP2" principal="true" stateSymmetry="2"
     stateNumber="1" value="-5117.79022355006"/><!--
 (NB above energy spin projected)

 Starting RCCSD calculation

 ITER.      SQ.NORM     CORR.ENERGY   TOTAL ENERGY   ENERGY CHANGE        DEN1      VAR(S)    VAR(P)  DIIS     TIME
   1      1.17189849    -1.90415352 -5117.67686642    -1.90415352    -0.03544121  0.84D-02  0.40D-02  0  0   350.16
   2      1.19020709    -1.93700871 -5117.70972162    -0.03285520    -0.00586248  0.29D-03  0.12D-02  1  1   552.77
   3      1.20075231    -1.93355413 -5117.70626704     0.00345458    -0.08528449  0.12D-02  0.21D-02  1  0   741.05
   4      1.31492805    -1.93920729 -5117.71192020    -0.00565316    -4.03951917  0.26D-03  0.11D+00  1  0   937.80
   5      6.39712441    -1.93541751 -5117.70813041     0.00378979  -221.90772153  0.60D-03  0.54D+01  1  0  1131.89
   6    381.01257343    -2.02062374 -5117.79333664    -0.08520623-13175.24400905  0.53D-02  0.39D+03  1  0  1325.32

 UNREASONABLE NORM:381.012573 CALCULATION WILL BE STOPPED

 The threshold can be changed using option CC_NORM_MAX (see manual). The current value is CC_NORM_MAX=2.00

 Norm of t1 vector:      0.19485978      S-energy:    -0.00596288      T1 diagnostic:  0.01812024
                                                                       D1 diagnostic:  0.07969202
 Norm of t2 vector:     19.49293726      P-energy:    -2.01466085
                                         Alpha-Beta:  -1.43970433
                                         Alpha-Alpha: -0.30568232
                                         Beta-Beta:   -0.26927421

 Singles amplitudes (print threshold =  0.500E-01):

         I         SYM. A    A   T(IA) [Beta-Beta]

        12         1         1      0.11166427
        19         2         1      0.07676454

 Doubles amplitudes (print threshold =  0.500E-01):

         I         J         SYM. A    SYM. B    A         B      T(IJ, AB) [Alpha-Alpha]

        12        11         1         1        49        91      0.05017760
        12        11         1         1        59        91      0.05086979
        12        11         1         1        59       112      0.05366198
        12        11         1         1        84        91     -0.05870852
        12        11         1         1        84       112     -0.05973393
        12        11         1         1        91        49     -0.05017760
        12        11         1         1        91        59     -0.05086979
        12        11         1         1        91        84      0.05870852
        12        11         1         1        91       107      0.06168983
        12        11         1         1        91       125     -0.07795942
        12        11         1         1       107        91     -0.06168983
        12        11         1         1       107       112     -0.06246429
        12        11         1         1       112        59     -0.05366198
        12        11         1         1       112        84      0.05973393
        12        11         1         1       112       107      0.06246429
        12        11         1         1       112       125     -0.08275350
        12        11         1         1       112       131     -0.05445193
        12        11         1         1       124       125      0.06369688
        12        11         1         1       125        91      0.07795942
        12        11         1         1       125       112      0.08275350
        12        11         1         1       125       124     -0.06369688
        12        11         1         1       131       112      0.05445193

         I         J         SYM. A    SYM. B    A         B      T(IJ, AB) [Beta-Beta]

        12        11         1         1        49        91      0.05017760
        12        11         1         1        59        91      0.05086979
        12        11         1         1        59       112      0.05366198
        12        11         1         1        84        91     -0.05870852
        12        11         1         1        84       112     -0.05973393
        12        11         1         1        91        49     -0.05017760
        12        11         1         1        91        59     -0.05086979
        12        11         1         1        91        84      0.05870852
        12        11         1         1        91       107      0.06168983
        12        11         1         1        91       125     -0.07795942
        12        11         1         1       107        91     -0.06168983
        12        11         1         1       107       112     -0.06246429
        12        11         1         1       112        59     -0.05366198
        12        11         1         1       112        84      0.05973393
        12        11         1         1       112       107      0.06246429
        12        11         1         1       112       125     -0.08275350
        12        11         1         1       112       131     -0.05445193
        12        11         1         1       124       125      0.06369688
        12        11         1         1       125        91      0.07795942
        12        11         1         1       125       112      0.08275350
        12        11         1         1       125       124     -0.06369688
        12        11         1         1       131       112      0.05445193

         I         J         SYM. A    SYM. B    A         B      T(IJ, AB) [Alpha-Beta]

         6         6         2         2        56        86     -0.05020200
         6         6         2         2        62        73     -0.05245705
         6         6         2         2        62        86     -0.07389252
         6         6         2         2        62        89     -0.05484355
         6         6         2         2        73        62     -0.05245705
         6         6         2         2        73        78      0.06027592
         6         6         2         2        73        85     -0.05516968
         6         6         2         2        78        73      0.06027592
         6         6         2         2        78        86      0.08650117
         6         6         2         2        78        89      0.06563422
         6         6         2         2        85        73     -0.05516968
         6         6         2         2        85        86     -0.08114516
         6         6         2         2        85        89     -0.06342326
         6         6         2         2        86        56     -0.05020200
         6         6         2         2        86        62     -0.07389252
         6         6         2         2        86        78      0.08650117
         6         6         2         2        86        85     -0.08114516
         6         6         2         2        86        87     -0.05163603
         6         6         2         2        87        86     -0.05163603
         6         6         2         2        89        62     -0.05484355
         6         6         2         2        89        78      0.06563422
         6         6         2         2        89        85     -0.06342326
         6         6         3         3        61        72     -0.05242601
         6         6         3         3        61        85     -0.07386321
         6         6         3         3        61        88     -0.05483007
         6         6         3         3        72        61     -0.05242601
         6         6         3         3        72        77     -0.05917945
         6         6         3         3        72        84     -0.05508578
         6         6         3         3        77        72     -0.05917945
         6         6         3         3        77        85     -0.08494535
         6         6         3         3        77        88     -0.06446272
         6         6         3         3        84        72     -0.05508578
         6         6         3         3        84        85     -0.08103871
         6         6         3         3        84        88     -0.06334914
         6         6         3         3        85        61     -0.07386321
         6         6         3         3        85        77     -0.08494535
         6         6         3         3        85        84     -0.08103871
         6         6         3         3        85        86     -0.05156185
         6         6         3         3        86        85     -0.05156185
         6         6         3         3        88        61     -0.05483007
         6         6         3         3        88        77     -0.06446272
         6         6         3         3        88        84     -0.06334914
         9         9         2         2        39        73     -0.06317169
         9         9         2         2        39        86     -0.07056018
         9         9         2         2        51        56     -0.05054719
         9         9         2         2        51        62     -0.06562897
         9         9         2         2        51        78      0.06644864
         9         9         2         2        51        85     -0.05279427
         9         9         2         2        56        51     -0.05054719
         9         9         2         2        56        73      0.08950578
         9         9         2         2        56        86      0.10321580
         9         9         2         2        56        89      0.06370858
         9         9         2         2        62        51     -0.06562897
         9         9         2         2        62        73      0.12221947
         9         9         2         2        62        86      0.14690948
         9         9         2         2        62        89      0.09384309
         9         9         2         2        73        39     -0.06317169
         9         9         2         2        73        56      0.08950578
         9         9         2         2        73        62      0.12221947
         9         9         2         2        73        78     -0.13045310
         9         9         2         2        73        85      0.10940985
         9         9         2         2        73        87      0.06006511
         9         9         2         2        78        51      0.06644864
         9         9         2         2        78        73     -0.13045310
         9         9         2         2        78        86     -0.16499824
         9         9         2         2        78        89     -0.11015969
         9         9         2         2        85        51     -0.05279427
         9         9         2         2        85        73      0.10940985
         9         9         2         2        85        86      0.14681516
         9         9         2         2        85        89      0.10368612
         9         9         2         2        86        39     -0.07056018
         9         9         2         2        86        56      0.10321580
         9         9         2         2        86        62      0.14690948
         9         9         2         2        86        78     -0.16499824
         9         9         2         2        86        85      0.14681516
         9         9         2         2        86        87      0.08671173
         9         9         2         2        87        73      0.06006511
         9         9         2         2        87        86      0.08671173
         9         9         2         2        87        89      0.06622351
         9         9         2         2        89        56      0.06370858
         9         9         2         2        89        62      0.09384309
         9         9         2         2        89        78     -0.11015969
         9         9         2         2        89        85      0.10368612
         9         9         2         2        89        87      0.06622351
         9         9         3         3        38        72     -0.06149381
         9         9         3         3        38        85     -0.06870788
         9         9         3         3        50        55     -0.05028239
         9         9         3         3        50        61     -0.06570886
         9         9         3         3        50        77     -0.06536602
         9         9         3         3        50        84     -0.05282732
         9         9         3         3        55        50     -0.05028239
         9         9         3         3        55        72      0.08881887
         9         9         3         3        55        85      0.10245788
         9         9         3         3        55        88      0.06325747
         9         9         3         3        61        50     -0.06570886
         9         9         3         3        61        72      0.12207202
         9         9         3         3        61        85      0.14679654
         9         9         3         3        61        88      0.09379990
         9         9         3         3        72        38     -0.06149381
         9         9         3         3        72        55      0.08881887
         9         9         3         3        72        61      0.12207202
         9         9         3         3        72        77      0.12800424
         9         9         3         3        72        84      0.10919041
         9         9         3         3        72        86      0.05994868
         9         9         3         3        77        50     -0.06536602
         9         9         3         3        77        72      0.12800424
         9         9         3         3        77        85      0.16196986
         9         9         3         3        77        88      0.10817004
         9         9         3         3        84        50     -0.05282732
         9         9         3         3        84        72      0.10919041
         9         9         3         3        84        85      0.14657230
         9         9         3         3        84        88      0.10354207
         9         9         3         3        85        38     -0.06870788
         9         9         3         3        85        55      0.10245788
         9         9         3         3        85        61      0.14679654
         9         9         3         3        85        77      0.16196986
         9         9         3         3        85        84      0.14657230
         9         9         3         3        85        86      0.08656391
         9         9         3         3        86        72      0.05994868
         9         9         3         3        86        85      0.08656391
         9         9         3         3        86        88      0.06612202
         9         9         3         3        88        55      0.06325747
         9         9         3         3        88        61      0.09379990
         9         9         3         3        88        77      0.10817004
         9         9         3         3        88        84      0.10354207
         9         9         3         3        88        86      0.06612202
        10        10         1         1        35        88     -0.05698716
        10        10         1         1        36       107     -0.07339105
        10        10         1         1        36       125      0.07818630
        10        10         1         1        50        62     -0.05155062
        10        10         1         1        50        88     -0.07732055
        10        10         1         1        50       107      0.07371316
        10        10         1         1        50       108     -0.05741641
        10        10         1         1        50       125     -0.06849596
        10        10         1         1        51       107     -0.05293044
        10        10         1         1        51       125      0.05825953
        10        10         1         1        59       125     -0.05571682
        10        10         1         1        60        62      0.06177975
        10        10         1         1        60        88      0.09391222
        10        10         1         1        60       107     -0.09037436
        10        10         1         1        60       108      0.06822836
        10        10         1         1        60       123      0.05558949
        10        10         1         1        60       125      0.08623364
        10        10         1         1        62        50     -0.05155062
        10        10         1         1        62        60      0.06177975
        10        10         1         1        62        91     -0.05657076
        10        10         1         1        62       112     -0.05115688
        10        10         1         1        82        88     -0.06964357
        10        10         1         1        82       107      0.06535038
        10        10         1         1        82       108     -0.05413122
        10        10         1         1        82       125     -0.06061368
        10        10         1         1        88        35     -0.05698716
        10        10         1         1        88        50     -0.07732055
        10        10         1         1        88        60      0.09391222
        10        10         1         1        88        82     -0.06964357
        10        10         1         1        88        91     -0.08350948
        10        10         1         1        88        95     -0.05602192
        10        10         1         1        88       112     -0.07371326
        10        10         1         1        91        62     -0.05657076
        10        10         1         1        91        88     -0.08350948
        10        10         1         1        91       108     -0.07840450
        10        10         1         1        91       121     -0.05558962
        10        10         1         1        91       123     -0.05798559
        10        10         1         1        95        88     -0.05602192
        10        10         1         1       107        36     -0.07339105
        10        10         1         1       107        50      0.07371316
        10        10         1         1       107        51     -0.05293044
        10        10         1         1       107        60     -0.09037436
        10        10         1         1       107        82      0.06535038
        10        10         1         1       108        50     -0.05741641
        10        10         1         1       108        60      0.06822836
        10        10         1         1       108        82     -0.05413122
        10        10         1         1       108        91     -0.07840450
        10        10         1         1       108       112     -0.07805877
        10        10         1         1       108       124      0.05570059
        10        10         1         1       112        62     -0.05115688
        10        10         1         1       112        88     -0.07371326
        10        10         1         1       112       108     -0.07805877
        10        10         1         1       112       121     -0.06168488
        10        10         1         1       112       123     -0.05633268
        10        10         1         1       112       130     -0.05751800
        10        10         1         1       121        91     -0.05558962
        10        10         1         1       121       112     -0.06168488
        10        10         1         1       123        60      0.05558949
        10        10         1         1       123        91     -0.05798559
        10        10         1         1       123       112     -0.05633268
        10        10         1         1       124       108      0.05570059
        10        10         1         1       125        36      0.07818630
        10        10         1         1       125        50     -0.06849596
        10        10         1         1       125        51      0.05825953
        10        10         1         1       125        59     -0.05571682
        10        10         1         1       125        60      0.08623364
        10        10         1         1       125        82     -0.06061368
        10        10         1         1       125       125     -0.06101503
        10        10         1         1       130       112     -0.05751800
        10        10         2         2        22        73     -0.05907302
        10        10         2         2        22        86     -0.06033905
        10        10         2         2        27        62      0.05669602
        10        10         2         2        27        78     -0.05321153
        10        10         2         2        33        51     -0.05519936
        10        10         2         2        33        73      0.08396553
        10        10         2         2        33        86      0.08752144
        10        10         2         2        33        89      0.05009578
        10        10         2         2        39        51      0.07884036
        10        10         2         2        39        73     -0.12605550
        10        10         2         2        39        86     -0.13497843
        10        10         2         2        39        89     -0.07897750
        10        10         2         2        51        33     -0.05519936
        10        10         2         2        51        39      0.07884036
        10        10         2         2        51        56     -0.10474285
        10        10         2         2        51        62     -0.13318097
        10        10         2         2        51        78      0.13191662
        10        10         2         2        51        85     -0.10257788
        10        10         2         2        51        87     -0.05194373
        10        10         2         2        56        51     -0.10474285
        10        10         2         2        56        73      0.17730881
        10        10         2         2        56        86      0.19717809
        10        10         2         2        56        89      0.11870704
        10        10         2         2        57        86     -0.05447067
        10        10         2         2        62        27      0.05669602
        10        10         2         2        62        51     -0.13318097
        10        10         2         2        62        71     -0.06026308
        10        10         2         2        62        72      0.05553955
        10        10         2         2        62        73      0.23977469
        10        10         2         2        62        86      0.27983730
        10        10         2         2        62        89      0.17495202
        10        10         2         2        62        92      0.06867901
        10        10         2         2        71        62     -0.06026308
        10        10         2         2        71        78      0.06337782
        10        10         2         2        71        85     -0.05223786
        10        10         2         2        72        62      0.05553955
        10        10         2         2        72        78     -0.05848473
        10        10         2         2        73        22     -0.05907302
        10        10         2         2        73        33      0.08396553
        10        10         2         2        73        39     -0.12605550
        10        10         2         2        73        56      0.17730881
        10        10         2         2        73        62      0.23977469
        10        10         2         2        73        78     -0.25290757
        10        10         2         2        73        85      0.20932859
        10        10         2         2        73        87      0.11314627
        10        10         2         2        78        27     -0.05321153
        10        10         2         2        78        51      0.13191662
        10        10         2         2        78        71      0.06337782
        10        10         2         2        78        72     -0.05848473
        10        10         2         2        78        73     -0.25290757
        10        10         2         2        78        86     -0.31278740
        10        10         2         2        78        89     -0.20519466
        10        10         2         2        78        92     -0.08340053
        10        10         2         2        85        51     -0.10257788
        10        10         2         2        85        71     -0.05223786
        10        10         2         2        85        73      0.20932859
        10        10         2         2        85        86      0.27652167
        10        10         2         2        85        89      0.19272716
        10        10         2         2        85        92      0.08221299
        10        10         2         2        86        22     -0.06033905
        10        10         2         2        86        33      0.08752144
        10        10         2         2        86        39     -0.13497843
        10        10         2         2        86        56      0.19717809
        10        10         2         2        86        57     -0.05447067
        10        10         2         2        86        62      0.27983730
        10        10         2         2        86        78     -0.31278740
        10        10         2         2        86        85      0.27652167
        10        10         2         2        86        87      0.16181428
        10        10         2         2        86        90      0.07066123
        10        10         2         2        87        51     -0.05194373
        10        10         2         2        87        73      0.11314627
        10        10         2         2        87        86      0.16181428
        10        10         2         2        87        89      0.12256429
        10        10         2         2        87        92      0.05641600
        10        10         2         2        89        33      0.05009578
        10        10         2         2        89        39     -0.07897750
        10        10         2         2        89        56      0.11870704
        10        10         2         2        89        62      0.17495202
        10        10         2         2        89        78     -0.20519466
        10        10         2         2        89        85      0.19272716
        10        10         2         2        89        87      0.12256429
        10        10         2         2        89        90      0.05896748
        10        10         2         2        90        86      0.07066123
        10        10         2         2        90        89      0.05896748
        10        10         2         2        92        62      0.06867901
        10        10         2         2        92        78     -0.08340053
        10        10         2         2        92        85      0.08221299
        10        10         2         2        92        87      0.05641600
        10        10         3         3        21        72      0.05931890
        10        10         3         3        21        85      0.06058635
        10        10         3         3        26        61      0.05644480
        10        10         3         3        26        77      0.05204621
        10        10         3         3        32        50     -0.05446015
        10        10         3         3        32        72      0.08266799
        10        10         3         3        32        85      0.08617847
        10        10         3         3        38        50      0.07689554
        10        10         3         3        38        72     -0.12271722
        10        10         3         3        38        85     -0.13144342
        10        10         3         3        38        88     -0.07693591
        10        10         3         3        39        72     -0.05209799
        10        10         3         3        39        85     -0.05580014
        10        10         3         3        50        32     -0.05446015
        10        10         3         3        50        38      0.07689554
        10        10         3         3        50        55     -0.10412852
        10        10         3         3        50        61     -0.13325513
        10        10         3         3        50        77     -0.12968702
        10        10         3         3        50        84     -0.10258566
        10        10         3         3        50        86     -0.05195952
        10        10         3         3        55        50     -0.10412852
        10        10         3         3        55        72      0.17593975
        10        10         3         3        55        85      0.19572854
        10        10         3         3        55        88      0.11786897
        10        10         3         3        56        72     -0.05361146
        10        10         3         3        56        85     -0.05990079
        10        10         3         3        61        26      0.05644480
        10        10         3         3        61        50     -0.13325513
        10        10         3         3        61        70     -0.06061698
        10        10         3         3        61        71      0.05527986
        10        10         3         3        61        72      0.23947026
        10        10         3         3        61        85      0.27961507
        10        10         3         3        61        88      0.17487179
        10        10         3         3        61        91      0.06866382
        10        10         3         3        70        61     -0.06061698
        10        10         3         3        70        77     -0.06263621
        10        10         3         3        70        84     -0.05250939
        10        10         3         3        71        61      0.05527986
        10        10         3         3        71        77      0.05718998
        10        10         3         3        72        21      0.05931890
        10        10         3         3        72        32      0.08266799
        10        10         3         3        72        38     -0.12271722
        10        10         3         3        72        39     -0.05209799
        10        10         3         3        72        55      0.17593975
        10        10         3         3        72        56     -0.05361146
        10        10         3         3        72        61      0.23947026
        10        10         3         3        72        77      0.24814347
        10        10         3         3        72        78      0.05762894
        10        10         3         3        72        84      0.20890053
        10        10         3         3        72        86      0.11292594
        10        10         3         3        77        26      0.05204621
        10        10         3         3        77        50     -0.12968702
        10        10         3         3        77        70     -0.06263621
        10        10         3         3        77        71      0.05718998
        10        10         3         3        77        72      0.24814347
        10        10         3         3        77        85      0.30703513
        10        10         3         3        77        88      0.20148580
        10        10         3         3        77        91      0.08191352
        10        10         3         3        78        72      0.05762894
        10        10         3         3        78        85      0.07136388
        10        10         3         3        84        50     -0.10258566
        10        10         3         3        84        70     -0.05250939
        10        10         3         3        84        72      0.20890053
        10        10         3         3        84        85      0.27605707
        10        10         3         3        84        88      0.19245781
        10        10         3         3        84        91      0.08211772
        10        10         3         3        85        21      0.06058635
        10        10         3         3        85        32      0.08617847
        10        10         3         3        85        38     -0.13144342
        10        10         3         3        85        39     -0.05580014
        10        10         3         3        85        55      0.19572854
        10        10         3         3        85        56     -0.05990079
        10        10         3         3        85        61      0.27961507
        10        10         3         3        85        77      0.30703513
        10        10         3         3        85        78      0.07136388
        10        10         3         3        85        84      0.27605707
        10        10         3         3        85        86      0.16153671
        10        10         3         3        85        89      0.07062435
        10        10         3         3        86        50     -0.05195952
        10        10         3         3        86        72      0.11292594
        10        10         3         3        86        85      0.16153671
        10        10         3         3        86        88      0.12237626
        10        10         3         3        86        91      0.05633905
        10        10         3         3        88        38     -0.07693591
        10        10         3         3        88        55      0.11786897
        10        10         3         3        88        61      0.17487179
        10        10         3         3        88        77      0.20148580
        10        10         3         3        88        84      0.19245781
        10        10         3         3        88        86      0.12237626
        10        10         3         3        88        89      0.05894066
        10        10         3         3        89        85      0.07062435
        10        10         3         3        89        88      0.05894066
        10        10         3         3        91        61      0.06866382
        10        10         3         3        91        77      0.08191352
        10        10         3         3        91        84      0.08211772
        10        10         3         3        91        86      0.05633905
        11         6         1         1        91       112      0.05321378
        11         6         1         1        91       124     -0.05337655
        11         6         1         1       112        91      0.05287414
        11         6         1         1       112       112      0.05555314
        11         6         1         1       112       124     -0.05503021
        11         6         1         1       124        91     -0.05339209
        11         6         1         1       124       112     -0.05490667
        11         6         1         1       124       124      0.05268856
        11         6         2         2        39        73     -0.05876030
        11         6         2         2        39        86     -0.07402567
        11         6         2         2        51        62     -0.05984198
        11         6         2         2        51        78      0.06461073
        11         6         2         2        51        85     -0.05494443
        11         6         2         2        56        73      0.08598395
        11         6         2         2        56        86      0.11020995
        11         6         2         2        56        89      0.07396064
        11         6         2         2        62        51     -0.06003461
        11         6         2         2        62        73      0.12160866
        11         6         2         2        62        78      0.05475848
        11         6         2         2        62        86      0.15967001
        11         6         2         2        62        89      0.10983970
        11         6         2         2        73        39     -0.05853679
        11         6         2         2        73        56      0.08568107
        11         6         2         2        73        62      0.12121646
        11         6         2         2        73        78     -0.13467050
        11         6         2         2        73        85      0.11828657
        11         6         2         2        73        87      0.06870805
        11         6         2         2        78        51      0.06480503
        11         6         2         2        78        62      0.05476128
        11         6         2         2        78        73     -0.13507300
        11         6         2         2        78        78     -0.06186322
        11         6         2         2        78        85      0.05327638
        11         6         2         2        78        86     -0.18301935
        11         6         2         2        78        89     -0.13002228
        11         6         2         2        78        92     -0.05641032
        11         6         2         2        85        51     -0.05509881
        11         6         2         2        85        73      0.11862069
        11         6         2         2        85        78      0.05337853
        11         6         2         2        85        86      0.16713250
        11         6         2         2        85        89      0.12382792
        11         6         2         2        85        92      0.05581238
        11         6         2         2        86        39     -0.07373826
        11         6         2         2        86        56      0.10981044
        11         6         2         2        86        62      0.15914276
        11         6         2         2        86        78     -0.18246057
        11         6         2         2        86        85      0.16664837
        11         6         2         2        86        87      0.10202529
        11         6         2         2        87        73      0.06890070
        11         6         2         2        87        86      0.10231740
        11         6         2         2        87        89      0.08057203
        11         6         2         2        89        56      0.07368126
        11         6         2         2        89        62      0.10946291
        11         6         2         2        89        78     -0.12960824
        11         6         2         2        89        85      0.12345402
        11         6         2         2        89        87      0.08033274
        11         6         2         2        92        78     -0.05622632
        11         6         2         2        92        85      0.05563945
        11         6         3         3        38        72     -0.05721718
        11         6         3         3        38        85     -0.07209682
        11         6         3         3        50        61     -0.05998648
        11         6         3         3        50        77     -0.06362489
        11         6         3         3        50        84     -0.05502925
        11         6         3         3        55        72      0.08534198
        11         6         3         3        55        85      0.10941505
[...]
        28        28         2         2        51        39      0.07114970
        28        28         2         2        51        56     -0.08994333
        28        28         2         2        51        62     -0.10946290
        28        28         2         2        51        78      0.10419455
        28        28         2         2        51        85     -0.07807231
        28        28         2         2        56        51     -0.08994333
        28        28         2         2        56        73      0.14135195
        28        28         2         2        56        86      0.14813736
        28        28         2         2        56        89      0.08611199
        28        28         2         2        62        51     -0.10946290
        28        28         2         2        62        62      0.05921112
        28        28         2         2        62        73      0.18726628
        28        28         2         2        62        78     -0.05504540
        28        28         2         2        62        86      0.20844412
        28        28         2         2        62        89      0.12640781
        28        28         2         2        73        22     -0.05071273
        28        28         2         2        73        33      0.07045313
        28        28         2         2        73        39     -0.10287789
        28        28         2         2        73        56      0.14135195
        28        28         2         2        73        62      0.18726628
        28        28         2         2        73        78     -0.19358202
        28        28         2         2        73        85      0.15671939
        28        28         2         2        73        87      0.08260519
        28        28         2         2        78        51      0.10419455
        28        28         2         2        78        62     -0.05504540
        28        28         2         2        78        73     -0.19358202
        28        28         2         2        78        78      0.05346211
        28        28         2         2        78        86     -0.23119454
        28        28         2         2        78        89     -0.14796553
        28        28         2         2        78        92     -0.05910209
        28        28         2         2        85        51     -0.07807231
        28        28         2         2        85        73      0.15671939
        28        28         2         2        85        86      0.20225560
        28        28         2         2        85        89      0.13844570
        28        28         2         2        85        92      0.05821976
        28        28         2         2        86        33      0.06793018
        28        28         2         2        86        39     -0.10271259
        28        28         2         2        86        56      0.14813736
        28        28         2         2        86        62      0.20844412
        28        28         2         2        86        78     -0.23119454
        28        28         2         2        86        85      0.20225560
        28        28         2         2        86        87      0.11664324
        28        28         2         2        86        90      0.05013317
        28        28         2         2        87        73      0.08260519
        28        28         2         2        87        86      0.11664324
        28        28         2         2        87        89      0.08745111
        28        28         2         2        89        39     -0.05783053
        28        28         2         2        89        56      0.08611199
        28        28         2         2        89        62      0.12640781
        28        28         2         2        89        78     -0.14796553
        28        28         2         2        89        85      0.13844570
        28        28         2         2        89        87      0.08745111
        28        28         2         2        90        86      0.05013317
        28        28         2         2        92        78     -0.05910209
        28        28         2         2        92        85      0.05821976
        28        28         3         3        21        72      0.05090774
        28        28         3         3        32        50     -0.05182074
        28        28         3         3        32        72      0.06934043
        28        28         3         3        32        85      0.06687858
        28        28         3         3        38        50      0.06929014
        28        28         3         3        38        72     -0.10012837
        28        28         3         3        38        85     -0.10000696
        28        28         3         3        38        88     -0.05632628
        28        28         3         3        50        32     -0.05182074
        28        28         3         3        50        38      0.06929014
        28        28         3         3        50        55     -0.08929553
        28        28         3         3        50        61     -0.10939156
        28        28         3         3        50        77     -0.10232589
        28        28         3         3        50        84     -0.07800517
        28        28         3         3        55        50     -0.08929553
        28        28         3         3        55        72      0.14024581
        28        28         3         3        55        85      0.14704055
        28        28         3         3        55        88      0.08550227
        28        28         3         3        61        50     -0.10939156
        28        28         3         3        61        61      0.05923618
        28        28         3         3        61        72      0.18701571
        28        28         3         3        61        77      0.05399106
        28        28         3         3        61        85      0.20827480
        28        28         3         3        61        88      0.12635342
        28        28         3         3        72        21      0.05090774
        28        28         3         3        72        32      0.06934043
        28        28         3         3        72        38     -0.10012837
        28        28         3         3        72        55      0.14024581
        28        28         3         3        72        61      0.18701571
        28        28         3         3        72        77      0.18993246
        28        28         3         3        72        84      0.15640082
        28        28         3         3        72        86      0.08245040
        28        28         3         3        77        50     -0.10232589
        28        28         3         3        77        61      0.05399106
        28        28         3         3        77        72      0.18993246
        28        28         3         3        77        77      0.05139325
        28        28         3         3        77        85      0.22694470
        28        28         3         3        77        88      0.14529889
        28        28         3         3        77        91      0.05805220
        28        28         3         3        78        85      0.05274414
        28        28         3         3        84        50     -0.07800517
        28        28         3         3        84        72      0.15640082
        28        28         3         3        84        85      0.20191800
        28        28         3         3        84        88      0.13825870
        28        28         3         3        84        91      0.05815567
        28        28         3         3        85        32      0.06687858
        28        28         3         3        85        38     -0.10000696
        28        28         3         3        85        55      0.14704055
        28        28         3         3        85        61      0.20827480
        28        28         3         3        85        77      0.22694470
        28        28         3         3        85        78      0.05274414
        28        28         3         3        85        84      0.20191800
        28        28         3         3        85        86      0.11644837
        28        28         3         3        85        89      0.05010958
        28        28         3         3        86        72      0.08245040
        28        28         3         3        86        85      0.11644837
        28        28         3         3        86        88      0.08732267
        28        28         3         3        88        38     -0.05632628
        28        28         3         3        88        55      0.08550227
        28        28         3         3        88        61      0.12635342
        28        28         3         3        88        77      0.14529889
        28        28         3         3        88        84      0.13825870
        28        28         3         3        88        86      0.08732267
        28        28         3         3        89        85      0.05010958
        28        28         3         3        91        77      0.05805220
        28        28         3         3        91        84      0.05815567
        20        12         1         2        59        62      0.05295565
        20        12         1         2        84        62     -0.05383193
        20        12         1         2        91        39     -0.05848571
        20        12         1         2        91        56      0.07443670
        20        12         1         2        91        62      0.09289603
        20        12         1         2        91        78     -0.08977976
        20        12         1         2        91        85      0.06965530
        20        12         1         2       112        39     -0.05792175
        20        12         1         2       112        56      0.07692949
        20        12         1         2       112        62      0.09955817
        20        12         1         2       112        78     -0.10109103
        20        12         1         2       112        85      0.08179436
        20        12         1         2       124        56     -0.05055990
        20        12         1         2       124        62     -0.06746150
        20        12         1         2       124        78      0.07113840
        20        12         1         2       124        85     -0.06049478
        20        12         2         1        39        91     -0.05922435
        20        12         2         1        39       112     -0.05786882
        20        12         2         1        56        91      0.07407970
        20        12         2         1        56       112      0.07724644
        20        12         2         1        56       124     -0.05065185
        20        12         2         1        62        59      0.05352073
        20        12         2         1        62        84     -0.05408943
        20        12         2         1        62        91      0.09329181
        20        12         2         1        62       112      0.09932589
        20        12         2         1        62       124     -0.06774898
        20        12         2         1        78        91     -0.08950453
        20        12         2         1        78       112     -0.10123274
        20        12         2         1        78       124      0.07122395
        20        12         2         1        85        91      0.06971751
        20        12         2         1        85       112      0.08164622
        20        12         2         1        85       124     -0.06072853
        25        12         1         3        84        61     -0.05386999
        25        12         1         3        91        55      0.06017865
        25        12         1         3        91        61      0.07560059
        25        12         1         3        91        77      0.07179422
        25        12         1         3        91        84      0.05675671
        25        12         1         3       112        55      0.06358014
        25        12         1         3       112        61      0.08285806
        25        12         1         3       112        77      0.08252079
        25        12         1         3       112        84      0.06808252
        25        12         1         3       124        61     -0.05477648
        25        12         1         3       124        77     -0.05659454
        25        12         3         1        55        91      0.05890233
        25        12         3         1        55       112      0.06272858
        25        12         3         1        61        84     -0.05353081
        25        12         3         1        61        91      0.07433022
        25        12         3         1        61       112      0.08139521
        25        12         3         1        61       124     -0.05423833
        25        12         3         1        77        91      0.07026423
        25        12         3         1        77       112      0.08124136
        25        12         3         1        77       124     -0.05593615
        25        12         3         1        84        91      0.05569600
        25        12         3         1        84       112      0.06693346
        12        25         1         3        84        61     -0.05353081
        12        25         1         3        91        55      0.05890233
        12        25         1         3        91        61      0.07433022
        12        25         1         3        91        77      0.07026423
        12        25         1         3        91        84      0.05569600
        12        25         1         3       112        55      0.06272858
        12        25         1         3       112        61      0.08139521
        12        25         1         3       112        77      0.08124136
        12        25         1         3       112        84      0.06693346
        12        25         1         3       124        61     -0.05423833
        12        25         1         3       124        77     -0.05593615
        12        25         3         1        55        91      0.06017865
        12        25         3         1        55       112      0.06358014
        12        25         3         1        61        84     -0.05386999
        12        25         3         1        61        91      0.07560059
        12        25         3         1        61       112      0.08285806
        12        25         3         1        61       124     -0.05477648
        12        25         3         1        77        91      0.07179422
        12        25         3         1        77       112      0.08252079
        12        25         3         1        77       124     -0.05659454
        12        25         3         1        84        91      0.05675671
        12        25         3         1        84       112      0.06808252
        26        12         1         3        91        61     -0.06323481
        26        12         1         3        91        77     -0.06014808
        26        12         1         3       112        55     -0.05171136
        26        12         1         3       112        61     -0.06768196
        26        12         1         3       112        77     -0.06768143
        26        12         1         3       112        84     -0.05571202
        26        12         3         1        55        91     -0.05016555
        26        12         3         1        55       112     -0.05245681
        26        12         3         1        61        91     -0.06432488
        26        12         3         1        61       112     -0.06818141
        26        12         3         1        77        91     -0.06068868
        26        12         3         1        77       112     -0.06850499
        26        12         3         1        84       112     -0.05617491
        12        26         1         3        91        55     -0.05016555
        12        26         1         3        91        61     -0.06432488
        12        26         1         3        91        77     -0.06068868
        12        26         1         3       112        55     -0.05245681
        12        26         1         3       112        61     -0.06818141
        12        26         1         3       112        77     -0.06850499
        12        26         1         3       112        84     -0.05617491
        12        26         3         1        55       112     -0.05171136
        12        26         3         1        61        91     -0.06323481
        12        26         3         1        61       112     -0.06768196
        12        26         3         1        77        91     -0.06014808
        12        26         3         1        77       112     -0.06768143
        12        26         3         1        84       112     -0.05571202

 ?ERROR: NO CONVERGENCE. TRIPLES WILL NOT BE DONE. THIS CAN BE AVOIDED USING THE NOCHECK OPTION.

 Spin contamination <S**2-Sz**2-Sz>     0.00000000


  Correlated core orbitals:             1.1       2.1       3.1       4.1       5.1       6.1       7.1       8.1       9.1      10.1
                                        1.2       2.2       3.2       4.2       1.3       2.3       3.3       4.3       1.4
  Orbital energies:                  -899.5732 -134.5421 -120.4382  -25.6943  -20.9423  -19.7013  -13.3509  -13.3698   -4.0245   -2.6150
                                     -120.4294  -20.9223  -13.3606   -2.5673 -120.4296  -20.9223  -13.3603   -2.5691  -13.3502

  RCCSD core-core energy               -0.996095940302
   --><property name="core-core energy" method="RCCSD" stateSymmetry="2" stateNumber="1"
     value="-0.996095940301739"/><!--
  RCCSD core-valence energy            -0.390612857417
   --><property name="core-valence energy" method="RCCSD" stateSymmetry="2" stateNumber="1"
     value="-0.390612857416547"/><!--
  RCCSD valence correlation energy     -0.633914938601
   --><property name="valence correlation energy" method="RCCSD" stateSymmetry="2"
     stateNumber="1" value="-0.633914938601349"/><!--


 RESULTS
 =======

  Reference energy                  -5115.772712905728
   --><property name="energy" method="Reference" stateSymmetry="1" stateNumber="1"
     value="-5115.77271290573"/><!--
  RCCSD singles energy                 -0.005962884379
   --><property name="energy" method="RCCSD singles" stateSymmetry="1" stateNumber="1"
     value="-0.596288437920389E-02"/><!--
  RCCSD pair energy                    -2.014660851940
   --><property name="energy" method="RCCSD pair" stateSymmetry="1" stateNumber="1"
     value="-2.01466085194043"/><!--
  RCCSD correlation energy             -2.020623736320
   --><property name="energy" method="RCCSD correlation" stateSymmetry="1" stateNumber="1"
     value="-2.02062373631964"/><!--

 !RHF-RCCSD energy                  -5117.793336642048
   --><property name="energy" method="RHF-RCCSD" principal="true" stateSymmetry="1"
     stateNumber="1" value="-5117.79333664205"/><!--

 Program statistics:

 Available memory in ccsd:               511993348
 Min. memory needed in ccsd:             149344989
 Max. memory used in ccsd:               220082757
 Max. memory used in cckext:             170621120 ( 6 integral passes)
 Max. memory used in cckint:             103892429 ( 1 integral passes)


 ? Error
 ? No convergence. This error exit can be avoided using the NOCHECK option
 ? The problem occurs in ccsd
   --><error type="Error" location="ccsd"
     message="No convergence. This error exit can be avoided using the NOCHECK option"/><!--
  --></jobstep><!--
  -->
  <input>
  <!--
 --></job><!--
--></molpro>
