
 Primary working directories    : /global/cscratch1/sd/bkincaid
 Secondary working directories  : /global/cscratch1/sd/bkincaid
 Wavefunction directory         : /global/homes/b/bkincaid/wfu/
 Main file repository           : /global/cscratch1/sd/bkincaid/

 SHA1      : 19cd028119e0e09f93f0674bd8af7968d9b3eff6
 NAME      : 2015.1.36
 ARCHNAME  : linux/x86_64
 FC        : /opt/cray/pe/craype/2.5.14/bin/ftn
 BLASLIB   : -L/opt/intel/compilers_and_libraries_2018.1.163/linux/mkl/lib/intel64 -Wl,-_start-group -lmkl_intel_ilp64 -lmkl_intel_thread -lmkl_core -Wl,-_end-group -liomp5
 id        : lbl

 Nodes     nprocs
 nid00995    11
 Number of processes for MPI-2 version of Molpro:   nprocs(total)=   12   nprocs(compute)=   11   nprocs(helper)=    1

 Using customized tuning parameters: mindgm=7; mindgv=16; mindgc=1; mindgr=1; noblas=0; minvec=7
 default implementation of scratch files=sf  

 ***,Calculation for PtH groundstate
 memory,1024,m
 gthresh,twoint=1.0E-15
 gthresh,throvl=1.0E-15
                                                                                 !symmetry,nosym
 
 set,dkroll=1,dkho=10,dkhp=4
 
 basis={
 
 Including file /global/u1/b/bkincaid/molpro/Pt/molecules/PtO/tz/UC/1.6/O-contracted.basis
 
 Including file /global/u1/b/bkincaid/molpro/Pt/molecules/PtO/tz/UC/1.6/Pt-contracted.basis
 }
 
 ne = 86
 z = 1.6
 
 geometry={
 2
 PtH
 Pt 0.0 0.0 0.0
 O 0.0 0.0 z
 }
 
 A1=20
 B1=10
 B2=9
 A2=4
 
 basis={
 
 Including file /global/u1/b/bkincaid/molpro/Pt/molecules/PtO/tz/UC/1.6/Pt-aug-cc-pwCVTZ.basis
 
 Including file /global/u1/b/bkincaid/molpro/Pt/molecules/PtO/tz/UC/1.6/O-aug-cc-pCVTZ.basis
 }
 
 {rhf
 wf,nelec=ne,spin=0,sym=1
 occ,A1,B1,B2,A2
 closed,A1,B1,B2,A2
 orbital,2101.2
 }
 
 {rhf,nitord=1,maxit=0;
 start,2101.2
 wf,nelec=ne,spin=0,sym=1
 occ,A1,B1,B2,A2
 closed,A1,B1,B2,A2
 rotate,13.1,15.1,0
 orbital,3101.2
 }
 
 scf=energy
 _CC_NORM_MAX=2.0
 {rccsd(t);maxit,100;core,14,7,7,3}
 ccsd=energy
 
 table,z,scf,ccsd
 save, 3.csv, new
 

 Variables initialized (889), CPU time= 0.01 sec
 Commands  initialized (702), CPU time= 0.01 sec, 572 directives.
 Default parameters read. Elapsed time= 0.13 sec

 Checking input...
 Passed
1


                                         ***  PROGRAM SYSTEM MOLPRO  ***
                                       Copyright, TTI GmbH Stuttgart, 2015
                                    Version 2015.1 linked Dec 29 2018 15:55:43


 **********************************************************************************************************************************
 LABEL *   Calculation for PtH groundstate                                               
  64 bit mpp version                                                                     DATE: 10-Sep-21          TIME: 14:24:20  
 **********************************************************************************************************************************

 SHA1:             19cd028119e0e09f93f0674bd8af7968d9b3eff6
 **********************************************************************************************************************************

 THRESHOLDS:

 ZERO    =  1.00D-12  ONEINT  =  1.00D-12  TWOINT  =  1.00D-15  PREFAC  =  1.00D-14  LOCALI  =  1.00D-09  EORDER  =  1.00D-04
 ENERGY  =  0.00D+00  ETEST   =  0.00D+00  EDENS   =  0.00D+00  THRDEDEF=  1.00D-06  GRADIENT=  1.00D-02  STEP    =  1.00D-03
 ORBITAL =  1.00D-05  CIVEC   =  1.00D-05  COEFF   =  1.00D-04  PRINTCI =  5.00D-02  PUNCHCI =  9.90D+01  OPTGRAD =  3.00D-04
 OPTENERG=  1.00D-06  OPTSTEP =  3.00D-04  THRGRAD =  1.00D-10  COMPRESS=  1.00D-11  VARMIN  =  1.00D-07  VARMAX  =  1.00D-03
 THRDOUB =  0.00D+00  THRDIV  =  1.00D-05  THRRED  =  1.00D-07  THRPSP  =  1.00D+00  THRDC   =  1.00D-10  THRCS   =  1.00D-10
 THRNRM  =  1.00D-08  THREQ   =  0.00D+00  THRDE   =  1.00D+00  THRREF  =  1.00D-05  SPARFAC =  1.00D+00  THRDLP  =  1.00D-07
 THRDIA  =  1.00D-10  THRDLS  =  1.00D-07  THRGPS  =  0.00D+00  THRKEX  =  0.00D+00  THRDIS  =  2.00D-01  THRVAR  =  1.00D-10
 THRLOC  =  1.00D-06  THRGAP  =  1.00D-06  THRLOCT = -1.00D+00  THRGAPT = -1.00D+00  THRORB  =  1.00D-06  THRMLTP =  0.00D+00
 THRCPQCI=  1.00D-10  KEXTA   =  0.00D+00  THRCOARS=  0.00D+00  SYMTOL  =  1.00D-06  GRADTOL =  1.00D-06  THROVL  =  1.00D-08
 THRORTH =  1.00D-08  GRID    =  1.00D-06  GRIDMAX =  1.00D-03  DTMAX   =  0.00D+00  THROCCDE=  1.00D-01  THROCCDE=  1.00D-01



 THRESHOLDS:

 ZERO    =  1.00D-12  ONEINT  =  1.00D-12  TWOINT  =  1.00D-15  PREFAC  =  1.00D-14  LOCALI  =  1.00D-09  EORDER  =  1.00D-04
 ENERGY  =  0.00D+00  ETEST   =  0.00D+00  EDENS   =  0.00D+00  THRDEDEF=  1.00D-06  GRADIENT=  1.00D-02  STEP    =  1.00D-03
 ORBITAL =  1.00D-05  CIVEC   =  1.00D-05  COEFF   =  1.00D-04  PRINTCI =  5.00D-02  PUNCHCI =  9.90D+01  OPTGRAD =  3.00D-04
 OPTENERG=  1.00D-06  OPTSTEP =  3.00D-04  THRGRAD =  1.00D-10  COMPRESS=  1.00D-11  VARMIN  =  1.00D-07  VARMAX  =  1.00D-03
 THRDOUB =  0.00D+00  THRDIV  =  1.00D-05  THRRED  =  1.00D-07  THRPSP  =  1.00D+00  THRDC   =  1.00D-10  THRCS   =  1.00D-10
 THRNRM  =  1.00D-08  THREQ   =  0.00D+00  THRDE   =  1.00D+00  THRREF  =  1.00D-05  SPARFAC =  1.00D+00  THRDLP  =  1.00D-07
 THRDIA  =  1.00D-10  THRDLS  =  1.00D-07  THRGPS  =  0.00D+00  THRKEX  =  0.00D+00  THRDIS  =  2.00D-01  THRVAR  =  1.00D-10
 THRLOC  =  1.00D-06  THRGAP  =  1.00D-06  THRLOCT = -1.00D+00  THRGAPT = -1.00D+00  THRORB  =  1.00D-06  THRMLTP =  0.00D+00
 THRCPQCI=  1.00D-10  KEXTA   =  0.00D+00  THRCOARS=  0.00D+00  SYMTOL  =  1.00D-06  GRADTOL =  1.00D-06  THROVL  =  1.00D-15
 THRORTH =  1.00D-08  GRID    =  1.00D-06  GRIDMAX =  1.00D-03  DTMAX   =  0.00D+00  THROCCDE=  1.00D-01  THROCCDE=  1.00D-01


 SETTING DKROLL         =         1.00000000                                  
 SETTING DKHO           =        10.00000000                                  
 SETTING DKHP           =         4.00000000                                  

 Variable memory set to 1024000000 words,  buffer space   230000 words

 SETTING BASIS          =    USERDEF
 SETTING NE             =        86.00000000                                  
 SETTING Z              =         1.60000000                                  

Geometry recognized as XYZ

 SETTING A1             =        20.00000000                                  
 SETTING B1             =        10.00000000                                  
 SETTING B2             =         9.00000000                                  
 SETTING A2             =         4.00000000                                  
 SETTING BASIS          =    USERDEF


 Recomputing integrals since basis changed


 Using spherical harmonics



 PROGRAM * SEWARD (Integral evaluation for generally contracted gaussian basis sets)     Author: Roland Lindh, 1990

 Geometry written to block  1 of record 700


 Point group  C2v 



 ATOMIC COORDINATES

 NR  ATOM    CHARGE       X              Y              Z

   1  PT     78.00    0.000000000    0.000000000    0.000000000
   2  O       8.00    0.000000000    0.000000000    3.023561799

 Bond lengths in Bohr (Angstrom)

 1-2  3.023561799
     ( 1.600000000)

 NUCLEAR CHARGE:                   86
 NUMBER OF PRIMITIVE AOS:         515
 NUMBER OF SYMMETRY AOS:          418
 NUMBER OF CONTRACTIONS:          418   ( 171A1  + 100B1  + 100B2  +  47A2  )
 NUMBER OF CORE ORBITALS:          35   (  16A1  +   8B1  +   8B2  +   3A2  )
 NUMBER OF VALENCE ORBITALS:       10   (   5A1  +   2B1  +   2B2  +   1A2  )


 NUCLEAR REPULSION ENERGY  206.37911226

 One-electron integrals computed with SEWARD

 10nd-order Douglas-Kroll-Hess method activated. McWeeny DKH parametrization is used.

 Computing Douglas-Kroll / X2C integrals

 AO integral compression algorithm  1   Integral accuracy      1.0D-15

     3589.538 MB (compressed) written to integral file ( 38.7%)

     Node minimum: 198.967 MB, node maximum: 664.273 MB


 NUMBER OF SORTED TWO-ELECTRON INTEGRALS:   89205809.     BUFFER LENGTH:  32768
 NUMBER OF SEGMENTS:   3  SEGMENT LENGTH:   31992396      RECORD LENGTH: 524288

 Memory used in sort:      32.55 MW

 SORT1 READ  1160821837. AND WROTE    37301506. INTEGRALS IN    107 RECORDS. CPU TIME:    18.69 SEC, REAL TIME:    24.36 SEC
 SORT2 READ   406129603. AND WROTE   981437681. INTEGRALS IN  12463 RECORDS. CPU TIME:     2.55 SEC, REAL TIME:     5.63 SEC

 Node minimum:    89159788.  Node maximum:    89385973. integrals

 OPERATOR DM      FOR CENTER  0  COORDINATES:    0.000000    0.000000    0.000000

 EXTRA SYMMETRY OF AOS IN SYMMETRY 1:   1 1 1 1 1 1 1 1 1 1   1 1 1 1 1 1 1 1 1 1   1 1 1 1 1 1 1 1 1 1   1 1 1 1 1 1 1 1 1 1
                                        1 1 1 1 1 1 1 1 1 1   1 1 1 1 1 1 1 1 1 1   1 1 1 1 1 1 1 1 1 1   1 1 1 1 1 1 1 1 1 1
                                        1 1 1 1 1 1 1 1 1 1   1 1 1 1 1 1 1 1 1 1   1 1 1 1 1 1 1 1 1 1   1 1 1 1 1 1 1 1 1 1
                                        1 1 1 1 1 1 1 1 1 1   2 1 1 2 1 1 2 1 1 1   1 1 1 1 1 1 1 1 1 1   1 1 1 1 1 1 1 1 1 1
                                        1 1 1 1 1 1 1 1 1 1   1
 EXTRA SYMMETRY OF AOS IN SYMMETRY 2:   1 1 1 1 1 1 1 1 1 1   1 1 1 1 1 1 1 1 1 1   1 1 1 1 1 1 1 1 1 1   1 1 1 1 1 1 1 1 1 1
                                        1 1 1 1 1 2 1 2 1 2   1 2 1 2 1 2 1 2 1 2   1 2 1 2 1 2 1 2 1 2   1 2 1 2 1 2 1 2 1 2
                                        1 2 1 2 1 1 1 1 1 1   1 1 1 1 1 1 1 2 1 2
 EXTRA SYMMETRY OF AOS IN SYMMETRY 3:   1 1 1 1 1 1 1 1 1 1   1 1 1 1 1 1 1 1 1 1   1 1 1 1 1 1 1 1 1 1   1 1 1 1 1 1 1 1 1 1
                                        1 1 1 1 1 2 1 2 1 2   1 2 1 2 1 2 1 2 1 2   1 2 1 2 1 2 1 2 1 2   1 2 1 2 1 2 1 2 1 2
                                        1 2 1 2 1 1 1 1 1 1   1 1 1 1 1 1 1 2 1 2
 EXTRA SYMMETRY OF AOS IN SYMMETRY 4:   1 1 1 1 1 1 1 1 1 1   1 1 1 1 1 1 1 1 1 1   1 1 1 1 1 1 1 1 1 1   1 1 1 1 1 1 2 1 2 1
                                        2 1 1 1 1 1 1

 Eigenvalues of metric

         1 0.630E-05 0.138E-04 0.385E-04 0.564E-04 0.669E-04 0.112E-03 0.162E-03 0.185E-03
         2 0.139E-04 0.272E-03 0.733E-03 0.954E-03 0.178E-02 0.191E-02 0.207E-02 0.236E-02
         3 0.139E-04 0.272E-03 0.733E-03 0.954E-03 0.178E-02 0.191E-02 0.207E-02 0.236E-02
         4 0.824E-03 0.191E-02 0.217E-02 0.243E-02 0.655E-02 0.712E-02 0.117E-01 0.170E-01


 **********************************************************************************************************************************
 DATASETS  * FILE   NREC   LENGTH (MB)   RECORD NAMES
              1      22       23.40       500      610      700      900      950      970     1000      129      960     1700   
                                          VAR    BASINP    GEOM    SYMINP    ZMAT    AOBASIS   BASIS     P2S    ABASIS    OPER   
                                         1101     1401     1411     1412     1650     1100     1400     1410     1200     1210   
                                          SR      EKINR    POTR     PVPR    MOLCAS      S      EKIN      POT      H0       H01  
                                         1080     1600   
                                         AOSYM     SMH  

 PROGRAMS   *        TOTAL       INT
 CPU TIMES  *       171.08    170.79
 REAL TIME  *       181.93 SEC
 DISK USED  *         8.46 GB      
 GA USED    *         0.00 MB       (max)       0.00 MB       (current)
 **********************************************************************************************************************************


 PROGRAM * RHF-SCF (CLOSED SHELL)       Authors: W. Meyer, H.-J. Werner


 NUMBER OF ELECTRONS:      43+   43-    SPACE SYMMETRY=1    SPIN SYMMETRY: Singlet 
 CONVERGENCE THRESHOLDS:    1.00E-05 (Density)    1.72E-07 (Energy)
 MAX. NUMBER OF ITERATIONS:       60
 INTERPOLATION TYPE:            DIIS
 INTERPOLATION STEPS:              2 (START)      1 (STEP)
 LEVEL SHIFTS:                  0.00 (CLOSED)  0.00 (OPEN) 

 Number of closed-shell orbitals:   43 (  20  10   9   4 )


 Orbital guess generated from atomic densities. Full valence occupancy:   21  10  10   4

 Molecular orbital dump at record        2101.2

 ITERATION    DDIFF          GRAD             ENERGY        2-EL.EN.            DIPOLE MOMENTS         DIIS   ORB.
    1      0.000D+00      0.000D+00    -18465.76362213  13220.253469    0.00000    0.00000   -0.15394    0    start
    2      0.000D+00      0.431D-01    -18476.66392361  14813.531069    0.00000    0.00000    6.24469    1    diag
    3      0.326D+01      0.848D-01    -18484.96794504  14471.261305    0.00000    0.00000    0.76659    2    diag
    4      0.888D-01      0.334D-01    -18487.14769928  14309.028028    0.00000    0.00000    0.67402    3    diag
    5      0.134D-01      0.145D-01    -18487.85366364  14168.586832    0.00000    0.00000   -1.76702    4    diag
    6      0.713D-02      0.451D-02    -18487.92900112  14161.589361    0.00000    0.00000   -1.09943    5    diag
    7      0.224D-02      0.143D-02    -18487.95120626  14143.118201    0.00000    0.00000   -1.47058    6    diag
    8      0.139D-02      0.973D-03    -18487.95993628  14141.386471    0.00000    0.00000   -1.48279    7    diag
    9      0.891D-03      0.698D-03    -18487.96538311  14144.184694    0.00000    0.00000   -1.37760    8    diag
   10      0.814D-03      0.214D-03    -18487.96745949  14142.544162    0.00000    0.00000   -1.35202    9    orth
   11      0.652D-03      0.105D-03    -18487.96770682  14141.889974    0.00000    0.00000   -1.34377    9    diag
   12      0.188D-03      0.519D-04    -18487.96779030  14141.435657    0.00000    0.00000   -1.34295    9    diag
   13      0.136D-03      0.181D-04    -18487.96779858  14141.400959    0.00000    0.00000   -1.33631    9    diag
   14      0.422D-04      0.865D-05    -18487.96780007  14141.392922    0.00000    0.00000   -1.33644    9    diag
   15      0.134D-04      0.266D-05    -18487.96780025  14141.392736    0.00000    0.00000   -1.33584    9    diag
   16      0.362D-05      0.152D-05    -18487.96780031  14141.394200    0.00000    0.00000   -1.33532    9    diag
   17      0.244D-05      0.750D-06    -18487.96780032  14141.391669    0.00000    0.00000   -1.33535    0    orth

 Final occupancy:  20  10   9   4

 !RHF STATE 1.1 Energy               -18487.9678003221    
 Nuclear energy                       206.37911226
 One-electron energy               -25765.04274684
 Two-electron energy                 7070.69583426
 Virial quotient                       -0.67713034
 !RHF STATE 1.1 Dipole moment           0.00000000     0.00000000    -1.33535411
 Dipole moment /Debye                   0.00000000     0.00000000    -3.39390930

 Orbital energies:

         1.1          2.1          3.1          4.1          5.1          6.1          7.1          8.1          9.1         10.1
  -2897.706567  -514.594867  -447.487740  -123.434478  -103.494682   -80.989140   -80.981045   -27.935743   -21.266996   -20.649839

        11.1         12.1         13.1         14.1         15.1         16.1         17.1         18.1         19.1         20.1
    -12.838866   -12.819925    -4.530661    -3.484844    -3.464108    -2.707356    -1.302873    -0.651451    -0.483292    -0.352469

        21.1         22.1
     -0.003174     0.021279

         1.2          2.2          3.2          4.2          5.2          6.2          7.2          8.2          9.2         10.2
   -447.485057  -103.483016   -80.984760   -21.241797   -12.829048    -3.469379    -3.459496    -2.658290    -0.654865    -0.400081

        11.2         12.2
      0.036608     0.100892

         1.3          2.3          3.3          4.3          5.3          6.3          7.3          8.3          9.3         10.3
   -447.487754  -103.493133   -80.985368   -21.260512   -12.832431    -3.484738    -3.460226    -2.667068    -0.550144    -0.007351

        11.3
      0.045223

         1.4          2.4          3.4          4.4          5.4          6.4
    -80.984332   -12.825030    -3.470315    -0.481758     0.110526     0.158071

 HOMO     20.1    -0.352469 =      -9.5912eV
 LUMO     10.3    -0.007351 =      -0.2000eV
 LUMO-HOMO         0.345118 =       9.3911eV


 **********************************************************************************************************************************
 DATASETS  * FILE   NREC   LENGTH (MB)   RECORD NAMES
              1      22       23.40       500      610      700      900      950      970     1000      129      960     1700   
                                          VAR    BASINP    GEOM    SYMINP    ZMAT    AOBASIS   BASIS     P2S    ABASIS    OPER   
                                         1101     1401     1411     1412     1650     1100     1400     1410     1200     1210   
                                          SR      EKINR    POTR     PVPR    MOLCAS      S      EKIN      POT      H0       H01  
                                         1080     1600   
                                         AOSYM     SMH  

              2       4        3.86       700     1000      520     2101   
                                         GEOM     BASIS   MCVARS     RHF  

 PROGRAMS   *        TOTAL       RHF       INT
 CPU TIMES  *       226.46     55.36    170.79
 REAL TIME  *       239.56 SEC
 DISK USED  *         8.80 GB      
 SF USED    *         0.21 MB      
 GA USED    *         0.00 MB       (max)       0.00 MB       (current)
 **********************************************************************************************************************************


 PROGRAM * RHF-SCF (CLOSED SHELL)       Authors: W. Meyer, H.-J. Werner


 NUMBER OF ELECTRONS:      43+   43-    SPACE SYMMETRY=1    SPIN SYMMETRY: Singlet 
 CONVERGENCE THRESHOLDS:    1.00E-05 (Density)    1.72E-07 (Energy)
 MAX. NUMBER OF ITERATIONS:        0
 INTERPOLATION TYPE:            DIIS
 INTERPOLATION STEPS:              2 (START)      1 (STEP)
 LEVEL SHIFTS:                  0.00 (CLOSED)  0.00 (OPEN) 

 Number of closed-shell orbitals:   43 (  20  10   9   4 )


 Molecular orbitals read from record     2101.2  Type=RHF/CANONICAL (state 1.1)

 Molecular orbital dump at record        3101.2
 ROTATION OF ORBITALS  13.1   15.1       90.00 DEGREES

 ITERATION    DDIFF          GRAD             ENERGY        2-EL.EN.            DIPOLE MOMENTS         DIIS   ORB.
    1      0.000D+00      0.000D+00    -18487.96780032  14141.391669    0.00000    0.00000   -1.33535    0    start

 Final occupancy:  20  10   9   4

 !RHF STATE 1.1 Energy               -18487.9678003221    
 Nuclear energy                       206.37911226
 One-electron energy               -25765.04274684
 Two-electron energy                 7070.69583426
 Virial quotient                       -0.67713034
 !RHF STATE 1.1 Dipole moment           0.00000000     0.00000000    -1.33535411
 Dipole moment /Debye                   0.00000000     0.00000000    -3.39390930

 Orbital energies:

         1.1          2.1          3.1          4.1          5.1          6.1          7.1          8.1          9.1         10.1
  -2897.706567  -514.594867  -447.487740  -123.434478  -103.494682   -80.989140   -80.981045   -27.935743   -21.266996   -20.649839

        11.1         12.1         13.1         14.1         15.1         16.1         17.1         18.1         19.1         20.1
    -12.838866   -12.819925    -4.530661    -3.484844    -3.464108    -2.707356    -1.302873    -0.651451    -0.483292    -0.352469

        21.1         22.1
     -0.003174     0.021279

         1.2          2.2          3.2          4.2          5.2          6.2          7.2          8.2          9.2         10.2
   -447.485057  -103.483016   -80.984760   -21.241797   -12.829048    -3.469379    -3.459496    -2.658290    -0.654865    -0.400081

        11.2         12.2
      0.036608     0.100892

         1.3          2.3          3.3          4.3          5.3          6.3          7.3          8.3          9.3         10.3
   -447.487754  -103.493133   -80.985368   -21.260512   -12.832431    -3.484738    -3.460226    -2.667068    -0.550144    -0.007351

        11.3
      0.045223

         1.4          2.4          3.4          4.4          5.4          6.4
    -80.984332   -12.825030    -3.470315    -0.481758     0.110526     0.158071

 HOMO     20.1    -0.352469 =      -9.5912eV
 LUMO     10.3    -0.007351 =      -0.2000eV
 LUMO-HOMO         0.345118 =       9.3911eV


 **********************************************************************************************************************************
 DATASETS  * FILE   NREC   LENGTH (MB)   RECORD NAMES
              1      22       23.40       500      610      700      900      950      970     1000      129      960     1700   
                                          VAR    BASINP    GEOM    SYMINP    ZMAT    AOBASIS   BASIS     P2S    ABASIS    OPER   
                                         1101     1401     1411     1412     1650     1100     1400     1410     1200     1210   
                                          SR      EKINR    POTR     PVPR    MOLCAS      S      EKIN      POT      H0       H01  
                                         1080     1600   
                                         AOSYM     SMH  

              2       5        8.43       700     1000      520     2101     3101   
                                         GEOM     BASIS   MCVARS     RHF      RHF  

 PROGRAMS   *        TOTAL       RHF       RHF       INT
 CPU TIMES  *       226.90      0.43     55.36    170.79
 REAL TIME  *       240.15 SEC
 DISK USED  *         8.80 GB      
 SF USED    *         0.21 MB      
 GA USED    *         0.00 MB       (max)       0.00 MB       (current)
 **********************************************************************************************************************************
 SETTING SCF            =    -18487.96780032  AU                              
 SETTING _CC_NORM_MAX   =         2.00000000                                  


 PROGRAM * CCSD (Restricted open-shell coupled cluster)     Authors: C. Hampel, H.-J. Werner, 1991, M. Deegan, P.J. Knowles, 1992


 Convergence thresholds:  THRVAR = 1.00D-08  THRDEN = 1.72D-06

 CCSD(T)     terms to be evaluated (factor= 1.000)


 Number of core orbitals:          31 (  14   7   7   3 )
 Number of closed-shell orbitals:  12 (   6   3   2   1 )
 Number of external orbitals:     375 ( 151  90  91  43 )

 Memory could be reduced to 279.02 Mwords without degradation in triples

 Number of N-1 electron functions:              24
 Number of N-2 electron functions:             276
 Number of singly external CSFs:              2802
 Number of doubly external CSFs:           7566540
 Total number of CSFs:                     7569342

 Molecular orbitals read from record     3101.2  Type=RHF/CANONICAL (state 1.1)

 Integral transformation finished. Total CPU:  10.46 sec, npass=  1  Memory used:  33.65 MW

 Starting RMP2 calculation

 Wavefunction is spin-projected

 ITER.      SQ.NORM     CORR.ENERGY   TOTAL ENERGY   ENERGY CHANGE        DEN1      VAR(S)    VAR(P)  DIIS     TIME
   1      1.25885826    -0.97677623-18488.94457655    -0.97677623    -0.00338859  0.21D-09  0.17D-02  1  1    51.78
   2      1.26307063    -0.98043001-18488.94823034    -0.00365378    -0.00001121  0.79D-11  0.81D-05  2  2    70.30
   3      1.26331963    -0.98055768-18488.94835800    -0.00012766    -0.00000004  0.26D-12  0.31D-07  3  3    84.96
   4      1.26332575    -0.98055904-18488.94835937    -0.00000137    -0.00000000  0.84D-14  0.20D-09  4  4   102.60

 Norm of t1 vector:      0.00008052      S-energy:    -0.00000000      T1 diagnostic:  0.00001162
 Norm of t2 vector:      0.51315275      P-energy:    -0.98055904
                                         Alpha-Beta:  -0.67970671
                                         Alpha-Alpha: -0.15042617
                                         Beta-Beta:   -0.15042617

 Spin contamination <S**2-Sz**2-Sz>     0.00000000
  Reference energy                   -18487.9678003221    
  RHF-RMP2 correlation energy          -0.980559044438
 !RHF-RMP2 energy                    -18488.9483593665    
 (NB above energy spin projected)

 Starting RCCSD calculation

 ITER.      SQ.NORM     CORR.ENERGY   TOTAL ENERGY   ENERGY CHANGE        DEN1      VAR(S)    VAR(P)  DIIS     TIME
   1      1.19976140    -0.87081521-18488.83861553    -0.87081521    -0.04348959  0.14D-01  0.90D-02  1  1   123.16
   2      1.22389447    -0.90321194-18488.87101227    -0.03239673    -0.00385354  0.49D-03  0.15D-02  2  2   133.45
   3      1.23643676    -0.90537213-18488.87317245    -0.00216019    -0.00089803  0.74D-03  0.17D-03  3  3   146.19
   4      1.24569262    -0.90783693-18488.87563726    -0.00246481    -0.00018122  0.14D-03  0.43D-04  4  4   166.59
   5      1.25296804    -0.90908953-18488.87688985    -0.00125259    -0.00004228  0.41D-04  0.88D-05  5  5   186.41
   6      1.25616974    -0.90929055-18488.87709087    -0.00020102    -0.00001328  0.14D-04  0.28D-05  6  6   203.42
   7      1.25826329    -0.90937448-18488.87717480    -0.00008393    -0.00000374  0.32D-05  0.87D-06  6  1   220.56
   8      1.25900696    -0.90937563-18488.87717596    -0.00000116    -0.00000078  0.59D-06  0.20D-06  6  3   234.47
   9      1.25942583    -0.90941092-18488.87721125    -0.00003529    -0.00000014  0.12D-06  0.35D-07  6  2   251.55
  10      1.25949691    -0.90941511-18488.87721544    -0.00000419    -0.00000004  0.34D-07  0.97D-08  6  5   265.06
  11      1.25948423    -0.90941007-18488.87721039     0.00000504    -0.00000001  0.12D-07  0.24D-08  6  6   281.56
  12      1.25952312    -0.90941386-18488.87721419    -0.00000379    -0.00000000  0.20D-08  0.78D-09  6  4   302.79
  13      1.25952820    -0.90941247-18488.87721280     0.00000139    -0.00000000  0.64D-09  0.24D-09  6  1   321.59

 Norm of t1 vector:      0.18278065      S-energy:    -0.00000129      T1 diagnostic:  0.02638211
                                                                       D1 diagnostic:  0.10459513
 Norm of t2 vector:      0.47552017      P-energy:    -0.90941119
                                         Alpha-Beta:  -0.66091813
                                         Alpha-Alpha: -0.12424653
                                         Beta-Beta:   -0.12424653

 Doubles amplitudes (print threshold =  0.500E-01):

         I         J         SYM. A    SYM. B    A         B      T(IJ, AB) [Alpha-Beta]

        11        11         3         3         1         1     -0.08952044

 Spin contamination <S**2-Sz**2-Sz>     0.00000000

 Memory could be reduced to 288.37 Mwords without degradation in triples
 

  Correlated core orbitals:            15.1      16.1       8.2       8.3
  Orbital energies:                    -4.5307   -2.7074   -2.6583   -2.6671
 
  RCCSD core-core energy               -0.093733381516
  RCCSD core-valence energy            -0.208682935814
  RCCSD valence correlation energy     -0.606996156681
 

 RESULTS
 =======

  Reference energy                   -18487.9678003221    
  RCCSD singles energy                 -0.000001287389
  RCCSD pair energy                    -0.909411186622
  RCCSD correlation energy             -0.909412474011
  Triples (T) contribution             -0.049969926927
  Total correlation energy             -0.959382400938
 
  RHF-RCCSD energy                   -18488.8772127961    
  RHF-RCCSD[T] energy                -18488.9325790657    
  RHF-RCCSD-T energy                 -18488.9265853672    
 !RHF-RCCSD(T) energy                -18488.9271827230    

 Program statistics:

 Available memory in ccsd:              1023998628
 Min. memory needed in ccsd:              21690276
 Max. memory used in ccsd:                31061910
 Max. memory used in cckext:              29174621 (13 integral passes)
 Max. memory used in cckint:              33648281 ( 1 integral passes)



 **********************************************************************************************************************************
 DATASETS  * FILE   NREC   LENGTH (MB)   RECORD NAMES
              1      22       23.40       500      610      700      900      950      970     1000      129      960     1700   
                                          VAR    BASINP    GEOM    SYMINP    ZMAT    AOBASIS   BASIS     P2S    ABASIS    OPER   
                                         1101     1401     1411     1412     1650     1100     1400     1410     1200     1210   
                                          SR      EKINR    POTR     PVPR    MOLCAS      S      EKIN      POT      H0       H01  
                                         1080     1600   
                                         AOSYM     SMH  

              2       5        8.43       700     1000      520     2101     3101   
                                         GEOM     BASIS   MCVARS     RHF      RHF  

 PROGRAMS   *        TOTAL  RCCSD(T)       RHF       RHF       INT
 CPU TIMES  *       725.19    498.27      0.43     55.36    170.79
 REAL TIME  *       909.01 SEC
 DISK USED  *        19.31 GB      
 SF USED    *         4.82 GB      
 GA USED    *         0.00 MB       (max)       0.00 MB       (current)
 **********************************************************************************************************************************
 SETTING CCSD           =    -18488.92718272  AU                              
                                                                                                                                                                                                                                                                

      Z          SCF            CCSD
    1.6   -18487.96780   -18488.92718
                                                  

 RCCSD(T)/USERDEF energy= -18488.927182723044

        RCCSD(T)        RHF-SCF         RHF-SCF 
 -18488.92718272 -18487.96780032 -18487.96780032
 **********************************************************************************************************************************
 Molpro calculation terminated
 Variable memory released
