
 Primary working directories    : /global/cscratch1/sd/bkincaid
 Secondary working directories  : /global/cscratch1/sd/bkincaid
 Wavefunction directory         : /global/homes/b/bkincaid/wfu/
 Main file repository           : /global/cscratch1/sd/bkincaid/

 SHA1      : 19cd028119e0e09f93f0674bd8af7968d9b3eff6
 NAME      : 2015.1.36
 ARCHNAME  : linux/x86_64
 FC        : /opt/cray/pe/craype/2.5.14/bin/ftn
 BLASLIB   : -L/opt/intel/compilers_and_libraries_2018.1.163/linux/mkl/lib/intel64 -Wl,-_start-group -lmkl_intel_ilp64 -lmkl_intel_thread -lmkl_core -Wl,-_end-group -liomp5
 id        : lbl

 Nodes     nprocs
 nid12793    23
 Number of processes for MPI-2 version of Molpro:   nprocs(total)=   24   nprocs(compute)=   23   nprocs(helper)=    1

 Using customized tuning parameters: mindgm=7; mindgv=16; mindgc=1; mindgr=1; noblas=0; minvec=7
 default implementation of scratch files=sf  

 ***,Calculation for Ag atom, singlet and triplet
 memory,512,m
 geometry={
 1
 Pd
 Pd  0.0 0.0 0.0
 }
 
 basis={
 Including file /global/u1/b/bkincaid/molpro/Pd/atoms/ecps/SBKJC/basis/sbkjc
 Including file /global/u1/b/bkincaid/molpro/Pd/atoms/ecps/SBKJC/basis/5z.basis
 }
 
 Including file /global/u1/b/bkincaid/molpro/Pd/atoms/ecps/SBKJC/basis/states.proc
 
 do i=1,13
     if (i.eq.1) then
         Idten
     else if (i.eq.2) then
         EAs2d9
     else if (i.eq.3) then
         Is1d9
     else if (i.eq.4) then
         Is2d8
     else if (i.eq.5) then
         IId9
     else if (i.eq.6) then
         IIs1d8
     else if (i.eq.7) then
         IIId8
     else if (i.eq.8) then
         IVd7
     else if (i.eq.9) then
         Vd6
     else if (i.eq.10) then
         VId5
     else if (i.eq.11) then
         XIKr
     else if (i.eq.12) then
         XIVp3
     else if (i.eq.13) then
         XVIIs2
     endif
     scf(i)=energy
     _CC_NORM_MAX=2.0
    {rccsd(t),maxit=100;core}
     ccsd(i)=energy
 enddo
 
 table,scf,ccsd
 type,csv
 save

 Variables initialized (889), CPU time= 0.01 sec
 Commands  initialized (702), CPU time= 0.02 sec, 572 directives.
 Default parameters read. Elapsed time= 0.19 sec

 Checking input...
 Passed
1


                                         ***  PROGRAM SYSTEM MOLPRO  ***
                                       Copyright, TTI GmbH Stuttgart, 2015
                                    Version 2015.1 linked Dec 29 2018 15:55:43


 **********************************************************************************************************************************
 LABEL *   Calculation for Ag atom, singlet and triplet                                  
  64 bit mpp version                                                                     DATE: 29-Mar-21          TIME: 17:09:34  
 **********************************************************************************************************************************

 SHA1:             19cd028119e0e09f93f0674bd8af7968d9b3eff6
 **********************************************************************************************************************************

Geometry recognized as XYZ


 Variable memory set to  512000000 words,  buffer space   230000 words

 SETTING BASIS          =    USERDEF

 DO I                   =         1.00000000   

 Running procedure=IDTEN


 Recomputing integrals since basis changed


 Using spherical harmonics



 PROGRAM * SEWARD (Integral evaluation for generally contracted gaussian basis sets)     Author: Roland Lindh, 1990

 Geometry written to block  1 of record 700

 Orientation using atomic masses  
 Molecule type: Atom
 Symmetry elements: X,Y,Z
 Rotational constants:       0.0000000      0.0000000      0.0000000 GHz  (calculated with average atomic masses)

 Point group  D2h 



 ATOMIC COORDINATES

 NR  ATOM    CHARGE       X              Y              Z

   1  PD     18.00    0.000000000    0.000000000    0.000000000

 NUCLEAR CHARGE:                   18
 NUMBER OF PRIMITIVE AOS:         429
 NUMBER OF SYMMETRY AOS:          313
 NUMBER OF CONTRACTIONS:          313   (  83Ag  +  42B3u +  42B2u +  31B1g +  42B1u +  31B2g +  31B3g +  11Au  )
 NUMBER OF CORE ORBITALS:           4   (   1Ag  +   1B3u +   1B2u +   0B1g +   1B1u +   0B2g +   0B3g +   0Au  )
 NUMBER OF VALENCE ORBITALS:        6   (   3Ag  +   0B3u +   0B2u +   1B1g +   0B1u +   1B2g +   1B3g +   0Au  )


 NUCLEAR REPULSION ENERGY    0.00000000

 EXTRA SYMMETRY OF AOS IN SYMMETRY 1:   1 1 1 1 1 1 1 1 1 1   1 1 1 1 1 1 1 1 1 1   1 1 1 1 1 1 1 1 1 2   3 2 3 2 3 2 3 2 3 2
                                        3 2 3 2 3 2 3 2 3 2   3 2 3 2 3 2 3 2 3 2   3 2 3 4 5 6 4 5 6 4   5 6 4 5 6 7 8 910 7
                                        8 910
 EXTRA SYMMETRY OF AOS IN SYMMETRY 2:   1 1 1 1 1 1 1 1 1 1   1 1 1 1 1 1 1 1 1 1   1 1 1 2 3 2 3 2 3 2   3 2 3 4 5 6 4 5 6 4
                                        5 6
 EXTRA SYMMETRY OF AOS IN SYMMETRY 3:   1 1 1 1 1 1 1 1 1 1   1 1 1 1 1 1 1 1 1 1   1 1 1 2 3 2 3 2 3 2   3 2 3 4 5 6 4 5 6 4
                                        5 6
 EXTRA SYMMETRY OF AOS IN SYMMETRY 4:   1 1 1 1 1 1 1 1 1 1   1 1 1 1 1 1 1 2 3 2   3 2 3 2 3 4 5 6 4 5   6
 EXTRA SYMMETRY OF AOS IN SYMMETRY 5:   1 1 1 1 1 1 1 1 1 1   1 1 1 1 1 1 1 1 1 1   1 1 1 2 3 2 3 2 3 2   3 2 3 4 5 6 4 5 6 4
                                        5 6
 EXTRA SYMMETRY OF AOS IN SYMMETRY 6:   1 1 1 1 1 1 1 1 1 1   1 1 1 1 1 1 1 2 3 2   3 2 3 2 3 4 5 6 4 5   6
 EXTRA SYMMETRY OF AOS IN SYMMETRY 7:   1 1 1 1 1 1 1 1 1 1   1 1 1 1 1 1 1 2 3 2   3 2 3 2 3 4 5 6 4 5   6
 EXTRA SYMMETRY OF AOS IN SYMMETRY 8:   1 1 1 1 1 2 3 2 3 2   3

 Eigenvalues of metric

         1 0.199E-05 0.951E-05 0.951E-05 0.294E-04 0.121E-03 0.307E-03 0.307E-03 0.364E-03
         2 0.984E-06 0.472E-03 0.163E-02 0.409E-02 0.952E-02 0.187E-01 0.302E-01 0.519E-01
         3 0.984E-06 0.472E-03 0.163E-02 0.409E-02 0.952E-02 0.187E-01 0.302E-01 0.519E-01
         4 0.951E-05 0.307E-03 0.302E-02 0.107E-01 0.287E-01 0.531E-01 0.105E+00 0.153E+00
         5 0.984E-06 0.472E-03 0.163E-02 0.409E-02 0.952E-02 0.187E-01 0.302E-01 0.519E-01
         6 0.951E-05 0.307E-03 0.302E-02 0.107E-01 0.287E-01 0.531E-01 0.105E+00 0.153E+00
         7 0.951E-05 0.307E-03 0.302E-02 0.107E-01 0.287E-01 0.531E-01 0.105E+00 0.153E+00
         8 0.127E+00 0.300E+00 0.300E+00 0.340E+00 0.792E+00 0.909E+00 0.909E+00 0.150E+01


 Contracted 2-electron integrals neglected if value below      1.0D-13

 Warning: maximum contribution to expansion of semi-local PP integrals   0.4D+10

 AO integral compression algorithm  1   Integral accuracy      1.0D-13

     702.808 MB (compressed) written to integral file ( 38.6%)

     Node minimum: 13.107 MB, node maximum: 55.050 MB


 NUMBER OF SORTED TWO-ELECTRON INTEGRALS:    6728960.     BUFFER LENGTH:  32768
 NUMBER OF SEGMENTS:   1  SEGMENT LENGTH:    6728960      RECORD LENGTH: 524288

 Memory used in sort:       7.29 MW

 SORT1 READ   227623651. AND WROTE     3197070. INTEGRALS IN     10 RECORDS. CPU TIME:     6.17 SEC, REAL TIME:     6.32 SEC
 SORT2 READ    75008247. AND WROTE   155396568. INTEGRALS IN   3036 RECORDS. CPU TIME:     3.04 SEC, REAL TIME:     3.26 SEC

 Node minimum:     6630452.  Node maximum:     6850849. integrals

 OPERATOR DM      FOR CENTER  0  COORDINATES:    0.000000    0.000000    0.000000


 **********************************************************************************************************************************
 DATASETS  * FILE   NREC   LENGTH (MB)   RECORD NAMES
              1      19       20.62       500      610      700      900      950      970     1000      129      960     1100   
                                          VAR    BASINP    GEOM    SYMINP    ZMAT    AOBASIS   BASIS     P2S    ABASIS      S 
                                         1400     1410     1420     1200     1210     1080     1600     1650     1700   
                                           T        V       ECP      H0       H01     AOSYM     SMH    MOLCAS    OPER   

 PROGRAMS   *        TOTAL       INT
 CPU TIMES  *        42.91     42.33
 REAL TIME  *        44.74 SEC
 DISK USED  *         1.63 GB      
 GA USED    *         0.00 MB       (max)       0.00 MB       (current)
 **********************************************************************************************************************************


 PROGRAM * RHF-SCF (CLOSED SHELL)       Authors: W. Meyer, H.-J. Werner


 NUMBER OF ELECTRONS:       9+    9-    SPACE SYMMETRY=1    SPIN SYMMETRY: Singlet 
 CONVERGENCE THRESHOLDS:    1.00E-05 (Density)    1.00E-07 (Energy)
 MAX. NUMBER OF ITERATIONS:       60
 INTERPOLATION TYPE:            DIIS
 INTERPOLATION STEPS:              2 (START)      1 (STEP)
 LEVEL SHIFTS:                  0.00 (CLOSED)  0.00 (OPEN) 

 Number of closed-shell orbitals:    9 (   3   1   1   1   1   1   1   0 )


 
 Extra symmetries of mos in symmetry 1:   1   3   2
 Orbital guess generated from atomic densities. Full valence occupancy:    4   1   1   1   1   1   1   0


 Molecular orbital dump at record        4202.2

 ITERATION    DDIFF          GRAD             ENERGY        2-EL.EN.            DIPOLE MOMENTS         DIIS   ORB.
    1      0.000D+00      0.000D+00      -126.43841162    206.948282    0.00000    0.00000    0.00000    0    start
    2      0.000D+00      0.125D-01      -126.44143190    197.757051    0.00000    0.00000    0.00000    1    diag
    3      0.795D-02      0.128D-01      -126.47661514    202.212361    0.00000    0.00000    0.00000    2    diag
    4      0.307D-02      0.134D-03      -126.47662098    202.181142    0.00000    0.00000    0.00000    3    diag
    5      0.124D-03      0.466D-04      -126.47662150    202.192757    0.00000    0.00000    0.00000    4    diag
    6      0.375D-04      0.162D-05      -126.47662150    202.192090    0.00000    0.00000    0.00000    5    diag
    7      0.472D-05      0.454D-06      -126.47662150    202.192310    0.00000    0.00000    0.00000    0    orth

 Final occupancy:   3   1   1   1   1   1   1   0

 !RHF STATE 1.1 Energy               -126.476621499793
 Nuclear energy                         0.00000000
 One-electron energy                 -227.57277663
 Two-electron energy                  101.09615513
 Virial quotient                       -2.65970871
 !RHF STATE 1.1 Dipole moment           0.00000000     0.00000000     0.00000000
 Dipole moment /Debye                   0.00000000     0.00000000     0.00000000

 ELECTRON ORBITALS
 =================


   Orb  Occ    Energy  Couls-En    Coefficients

                                   1 1s      1 1s      1 1s      1 1s      1 1s      1 1s      1 1s      1 1s      1 1s      1 1s   
                                   1 1s      1 1s      1 1s      1 1s      1 1s      1 1s      1 1s      1 1s      1 1s      1 1s   
                                   1 1s      1 1s      1 1s      1 1s      1 1s      1 1s      1 1s      1 1s      1 1s      1 3d0  
                                   1 3d2+    1 3d0     1 3d2+    1 3d0     1 3d2+    1 3d0     1 3d2+    1 3d0     1 3d2+    1 3d0  
                                   1 3d2+    1 3d0     1 3d2+    1 3d0     1 3d2+    1 3d0     1 3d2+    1 3d0     1 3d2+    1 3d0  
                                   1 3d2+    1 3d0     1 3d2+    1 3d0     1 3d2+    1 3d0     1 3d2+    1 3d0     1 3d2+    1 3d0  
                                   1 3d2+    1 3d0     1 3d2+    1 5g0     1 5g4+    1 5g2+    1 5g0     1 5g4+    1 5g2+    1 5g0  
                                   1 5g4+    1 5g2+    1 5g0     1 5g4+    1 5g2+    1 7i6+    1 7i4+    1 7i2+    1 7i0     1 7i6+ 
                                   1 7i4+    1 7i2+    1 7i0  

   1.1   2    -3.8388  -20.0944  0.000000 -0.000000  0.000000 -0.000000  0.000000 -0.000000  0.000001 -0.000002  0.000007 -0.000018
                                 0.000049 -0.000125  0.000330 -0.000835  0.002000 -0.005962  0.010998 -0.043196  0.085002  0.287619
                                 0.814963  0.469942  0.473756  0.045869 -0.022727  0.009774 -1.520451  0.241320 -0.002651  0.000000
                                -0.000000 -0.000000  0.000000  0.000000 -0.000000 -0.000000 -0.000000  0.000000  0.000000 -0.000000
                                -0.000000  0.000000  0.000000 -0.000000 -0.000000  0.000000  0.000000  0.000000  0.000000  0.000000
                                 0.000000 -0.000000 -0.000000 -0.000000 -0.000000 -0.000000  0.000000 -0.000000 -0.000000 -0.000000
                                -0.000000 -0.000000  0.000000 -0.000000  0.000000  0.000000  0.000000  0.000000 -0.000000 -0.000000
                                 0.000000 -0.000000 -0.000000 -0.000000  0.000000 -0.000000 -0.000000  0.000000 -0.000000  0.000000
                                 0.000000 -0.000000  0.000000

   2.1   2    -0.3283  -11.1227 -0.000000  0.000000 -0.000000  0.000000 -0.000000  0.000000 -0.000000  0.000000 -0.000000  0.000000
                                -0.000000  0.000000 -0.000000  0.000000 -0.000000  0.000000 -0.000000  0.000000 -0.000000  0.000000
                                 0.000001 -0.000001 -0.000001  0.000001 -0.000002  0.000002 -0.000001  0.000002 -0.000001 -0.000000
                                 0.000000  0.000002 -0.000006 -0.000001  0.000004  0.000062 -0.000188  0.000023 -0.000069  0.000517
                                -0.001556 -0.002600  0.007824  0.000098 -0.000295 -0.000823  0.002476 -0.045107  0.135753 -0.103794
                                 0.312375 -0.104474  0.314420 -0.068062  0.204835 -0.024267  0.073032 -0.032720  0.098471 -0.018754
                                 0.056439 -0.000784  0.002361 -0.000000  0.000000  0.000000  0.000000 -0.000000 -0.000000 -0.000000
                                 0.000000  0.000000 -0.000000 -0.000000  0.000000 -0.000000 -0.000000  0.000000 -0.000000  0.000000
                                 0.000000 -0.000000  0.000000

   3.1   2    -0.3283  -11.1227 -0.000000  0.000000 -0.000000  0.000000 -0.000000  0.000000 -0.000000  0.000000 -0.000000  0.000000
                                -0.000000  0.000000 -0.000000  0.000000 -0.000000  0.000000 -0.000000 -0.000000  0.000000  0.000000
                                 0.000000 -0.000000 -0.000000 -0.000000  0.000000 -0.000001 -0.000001  0.000001  0.000000  0.000000
                                 0.000000 -0.000006 -0.000002  0.000004  0.000001 -0.000188 -0.000062 -0.000069 -0.000023 -0.001556
                                -0.000517  0.007824  0.002600 -0.000295 -0.000098  0.002476  0.000823  0.135753  0.045108  0.312375
                                 0.103795  0.314420  0.104474  0.204835  0.068062  0.073032  0.024267  0.098472  0.032719  0.056439
                                 0.018753  0.002361  0.000784 -0.000000 -0.000000 -0.000000 -0.000000  0.000000  0.000000  0.000000
                                -0.000000 -0.000000  0.000000  0.000000  0.000000  0.000000 -0.000000  0.000000 -0.000000 -0.000000
                                 0.000000 -0.000000  0.000000

   4.1   0     0.0096   -3.0207  0.000000 -0.000000  0.000000 -0.000000  0.000000 -0.000000  0.000000 -0.000000  0.000000 -0.000001
                                 0.000002 -0.000007  0.000016 -0.000041  0.000111 -0.000150  0.000717  0.000250  0.001417 -0.076800
                                -0.291456  0.258249  0.054219 -0.156143  0.515197 -0.752227  0.323603 -0.382688  1.399058 -0.000000
                                -0.000000  0.000000  0.000000 -0.000000 -0.000000  0.000000  0.000000 -0.000000 -0.000000  0.000000
                                 0.000000 -0.000000  0.000000  0.000000 -0.000000 -0.000000  0.000000 -0.000002  0.000003 -0.000000
                                 0.000002  0.000000 -0.000001  0.000000  0.000000  0.000000 -0.000000  0.000002 -0.000002  0.000001
                                -0.000003  0.000000  0.000000 -0.000000  0.000000  0.000000  0.000000 -0.000000 -0.000000 -0.000000
                                 0.000000  0.000000  0.000000 -0.000000 -0.000000 -0.000000  0.000000 -0.000000  0.000000  0.000000
                                -0.000000  0.000000 -0.000000

   5.1   0     0.0613   -3.2920  0.000000 -0.000000  0.000000 -0.000000  0.000000 -0.000000  0.000001 -0.000002  0.000005 -0.000015
                                 0.000040 -0.000103  0.000267 -0.000676  0.001673 -0.004281  0.009824 -0.027111  0.071937 -0.242225
                                -0.603325  1.233422  0.691892 -0.631362  1.493868 -3.568904  0.483217 -1.273407  2.295812  0.000000
                                -0.000000 -0.000000  0.000000  0.000000 -0.000000 -0.000000 -0.000000  0.000000 -0.000000 -0.000000
                                -0.000000  0.000000  0.000000 -0.000000  0.000000  0.000000 -0.000000  0.000000 -0.000000  0.000000
                                -0.000000 -0.000000  0.000000 -0.000000  0.000000 -0.000000  0.000000 -0.000000  0.000000 -0.000001
                                 0.000000 -0.000000 -0.000000 -0.000000 -0.000000 -0.000000  0.000000 -0.000000  0.000000 -0.000000
                                -0.000000 -0.000000  0.000000  0.000000 -0.000000 -0.000000  0.000000  0.000000 -0.000000  0.000000
                                -0.000000 -0.000000  0.000000

                                   1 2px     1 2px     1 2px     1 2px     1 2px     1 2px     1 2px     1 2px     1 2px     1 2px  
                                   1 2px     1 2px     1 2px     1 2px     1 2px     1 2px     1 2px     1 2px     1 2px     1 2px  
                                   1 2px     1 2px     1 2px     1 4f1+    1 4f3+    1 4f1+    1 4f3+    1 4f1+    1 4f3+    1 4f1+ 
                                   1 4f3+    1 4f1+    1 4f3+    1 6h1+    1 6h3+    1 6h5+    1 6h1+    1 6h3+    1 6h5+    1 6h1+ 
                                   1 6h3+    1 6h5+ 

   1.2   2    -2.4034  -16.9229  0.000000 -0.000000  0.000000 -0.000000  0.000001 -0.000003  0.000007 -0.000039  0.000035 -0.000460
                                -0.000265 -0.003724 -0.001613  0.031661 -0.652646  0.357297  0.294883  0.043778 -0.004887  0.002552
                                 0.416289  0.531753 -0.000780 -0.000000  0.000000  0.000000  0.000000  0.000000 -0.000000 -0.000000
                                 0.000000  0.000000 -0.000000  0.000000 -0.000000 -0.000000  0.000000 -0.000000 -0.000000 -0.000000
                                 0.000000  0.000000

   2.2   0     0.0273   -1.8315  0.000000 -0.000000  0.000000 -0.000000  0.000001 -0.000002  0.000009 -0.000027  0.000083 -0.000216
                                 0.000591 -0.001369  0.003899 -0.013616  0.323515  0.034631  0.033703 -0.074032  0.220251 -0.529305
                                -0.334758 -0.050615  1.309265 -0.000000  0.000000 -0.000000  0.000000 -0.000000  0.000000 -0.000000
                                 0.000000  0.000000 -0.000000  0.000000  0.000000 -0.000000  0.000000 -0.000000 -0.000000 -0.000000
                                 0.000000 -0.000000

   3.2   0     0.0982   -2.8696 -0.000000  0.000000 -0.000000  0.000000 -0.000002  0.000007 -0.000025  0.000083 -0.000238  0.000680
                                -0.001610  0.004451 -0.010740  0.033226 -0.750738 -0.152982 -0.148062  0.254465 -0.579527  2.034108
                                 0.813292  0.048806 -1.163398 -0.000000  0.000000 -0.000000  0.000000 -0.000000  0.000000 -0.000000
                                 0.000000  0.000000 -0.000000  0.000000  0.000000  0.000000  0.000000 -0.000000 -0.000000 -0.000000
                                 0.000000 -0.000000

                                   1 2py     1 2py     1 2py     1 2py     1 2py     1 2py     1 2py     1 2py     1 2py     1 2py  
                                   1 2py     1 2py     1 2py     1 2py     1 2py     1 2py     1 2py     1 2py     1 2py     1 2py  
                                   1 2py     1 2py     1 2py     1 4f1-    1 4f3-    1 4f1-    1 4f3-    1 4f1-    1 4f3-    1 4f1- 
                                   1 4f3-    1 4f1-    1 4f3-    1 6h1-    1 6h3-    1 6h5-    1 6h1-    1 6h3-    1 6h5-    1 6h1- 
                                   1 6h3-    1 6h5- 

   1.3   2    -2.4034  -16.9229  0.000000 -0.000000  0.000000 -0.000000  0.000001 -0.000003  0.000007 -0.000039  0.000035 -0.000460
                                -0.000265 -0.003724 -0.001613  0.031661 -0.652646  0.357297  0.294883  0.043778 -0.004887  0.002552
                                 0.416289  0.531753 -0.000780 -0.000000 -0.000000  0.000000 -0.000000  0.000000 -0.000000 -0.000000
                                -0.000000 -0.000000  0.000000 -0.000000  0.000000  0.000000 -0.000000  0.000000  0.000000  0.000000
                                -0.000000 -0.000000

   2.3   0     0.0273   -1.8315  0.000000 -0.000000  0.000000 -0.000000  0.000001 -0.000002  0.000009 -0.000027  0.000083 -0.000216
                                 0.000591 -0.001369  0.003899 -0.013616  0.323515  0.034631  0.033703 -0.074033  0.220251 -0.529305
                                -0.334758 -0.050615  1.309265 -0.000000  0.000000 -0.000000  0.000000 -0.000000  0.000000 -0.000000
                                 0.000000  0.000000 -0.000000  0.000000  0.000000 -0.000000 -0.000000 -0.000000 -0.000000  0.000000
                                 0.000000 -0.000000

   3.3   0     0.0982   -2.8696 -0.000000  0.000000 -0.000000  0.000000 -0.000002  0.000007 -0.000025  0.000083 -0.000238  0.000680
                                -0.001610  0.004451 -0.010740  0.033226 -0.750738 -0.152982 -0.148062  0.254465 -0.579527  2.034108
                                 0.813292  0.048806 -1.163398 -0.000000  0.000000 -0.000000  0.000000 -0.000000  0.000000 -0.000000
                                 0.000000  0.000000 -0.000000  0.000000 -0.000000  0.000000 -0.000000 -0.000000 -0.000000  0.000000
                                 0.000000 -0.000000

                                   1 3d2-    1 3d2-    1 3d2-    1 3d2-    1 3d2-    1 3d2-    1 3d2-    1 3d2-    1 3d2-    1 3d2- 
                                   1 3d2-    1 3d2-    1 3d2-    1 3d2-    1 3d2-    1 3d2-    1 3d2-    1 5g2-    1 5g4-    1 5g2- 
                                   1 5g4-    1 5g2-    1 5g4-    1 5g2-    1 5g4-    1 7i2-    1 7i6-    1 7i4-    1 7i2-    1 7i6- 
                                   1 7i4- 

   1.4   2    -0.3283  -11.1227  0.000000 -0.000007  0.000004 -0.000198 -0.000073 -0.001640  0.008244 -0.000311  0.002609  0.143050
                                 0.329167  0.331323  0.215846  0.076958  0.103765  0.059474  0.002488 -0.000000  0.000000  0.000000
                                -0.000000  0.000000 -0.000000  0.000000 -0.000000 -0.000000 -0.000000  0.000000 -0.000000 -0.000000
                                 0.000000

   2.4   0     0.1009   -2.2240  0.000001 -0.000005  0.000031 -0.000111  0.000441 -0.001153  0.003007 -0.011816  0.060618  0.542537
                                 0.450729 -0.190748  0.186269 -0.476977 -0.406488 -0.610156  1.256273 -0.000000  0.000000  0.000000
                                -0.000000 -0.000000  0.000000  0.000000 -0.000000  0.000000  0.000000  0.000000 -0.000000 -0.000000
                                -0.000000

   3.4   0     0.3434   -3.3237 -0.000002  0.000021 -0.000101  0.000466 -0.001362  0.004599 -0.014265  0.038001 -0.196578 -1.832757
                                -1.665989  0.453921 -0.826271  1.896495  1.249261  1.953575 -0.890555 -0.000000  0.000000  0.000000
                                -0.000000 -0.000000  0.000000  0.000000 -0.000000  0.000000  0.000000  0.000000 -0.000000 -0.000000
                                 0.000000

                                   1 2pz     1 2pz     1 2pz     1 2pz     1 2pz     1 2pz     1 2pz     1 2pz     1 2pz     1 2pz  
                                   1 2pz     1 2pz     1 2pz     1 2pz     1 2pz     1 2pz     1 2pz     1 2pz     1 2pz     1 2pz  
                                   1 2pz     1 2pz     1 2pz     1 4f0     1 4f2+    1 4f0     1 4f2+    1 4f0     1 4f2+    1 4f0  
                                   1 4f2+    1 4f0     1 4f2+    1 6h2+    1 6h4+    1 6h0     1 6h2+    1 6h4+    1 6h0     1 6h2+ 
                                   1 6h4+    1 6h0  

   1.5   2    -2.4034  -16.9229  0.000000 -0.000000  0.000000 -0.000000  0.000001 -0.000003  0.000007 -0.000039  0.000035 -0.000460
                                -0.000265 -0.003724 -0.001613  0.031661 -0.652646  0.357297  0.294883  0.043778 -0.004887  0.002552
                                 0.416289  0.531753 -0.000780 -0.000000 -0.000000  0.000000 -0.000000  0.000000 -0.000000 -0.000000
                                -0.000000 -0.000000  0.000000  0.000000 -0.000000 -0.000000  0.000000 -0.000000 -0.000000 -0.000000
                                -0.000000 -0.000000

   2.5   0     0.0273   -1.8315  0.000000 -0.000000  0.000000 -0.000000  0.000001 -0.000002  0.000009 -0.000027  0.000083 -0.000216
                                 0.000591 -0.001369  0.003899 -0.013616  0.323515  0.034631  0.033703 -0.074033  0.220251 -0.529305
                                -0.334757 -0.050615  1.309265 -0.000000  0.000000 -0.000000  0.000000 -0.000000  0.000000 -0.000000
                                 0.000000  0.000000 -0.000000  0.000000  0.000000  0.000000 -0.000000 -0.000000 -0.000000  0.000000
                                -0.000000 -0.000000

   3.5   0     0.0982   -2.8696 -0.000000  0.000000 -0.000000  0.000000 -0.000002  0.000007 -0.000025  0.000083 -0.000238  0.000680
                                -0.001610  0.004451 -0.010740  0.033226 -0.750738 -0.152982 -0.148062  0.254465 -0.579527  2.034108
                                 0.813292  0.048806 -1.163398 -0.000000  0.000000 -0.000000  0.000000 -0.000000  0.000000 -0.000000
                                 0.000000  0.000000 -0.000000  0.000000  0.000000  0.000000  0.000000 -0.000000 -0.000000  0.000000
                                -0.000000  0.000000

                                   1 3d1+    1 3d1+    1 3d1+    1 3d1+    1 3d1+    1 3d1+    1 3d1+    1 3d1+    1 3d1+    1 3d1+ 
                                   1 3d1+    1 3d1+    1 3d1+    1 3d1+    1 3d1+    1 3d1+    1 3d1+    1 5g1+    1 5g3+    1 5g1+ 
                                   1 5g3+    1 5g1+    1 5g3+    1 5g1+    1 5g3+    1 7i5+    1 7i3+    1 7i1+    1 7i5+    1 7i3+ 
                                   1 7i1+ 

   1.6   2    -0.3283  -11.1227  0.000000 -0.000007  0.000004 -0.000198 -0.000073 -0.001640  0.008244 -0.000311  0.002609  0.143050
                                 0.329167  0.331323  0.215846  0.076958  0.103765  0.059474  0.002488 -0.000000  0.000000  0.000000
                                -0.000000  0.000000 -0.000000  0.000000 -0.000000 -0.000000  0.000000 -0.000000 -0.000000  0.000000
                                -0.000000

   2.6   0     0.1009   -2.2240  0.000001 -0.000005  0.000031 -0.000111  0.000441 -0.001153  0.003007 -0.011816  0.060618  0.542537
                                 0.450729 -0.190748  0.186269 -0.476977 -0.406488 -0.610156  1.256273 -0.000000  0.000000  0.000000
                                -0.000000 -0.000000  0.000000  0.000000 -0.000000  0.000000 -0.000000  0.000000 -0.000000 -0.000000
                                -0.000000

   3.6   0     0.3434   -3.3237 -0.000002  0.000021 -0.000101  0.000466 -0.001362  0.004599 -0.014265  0.038001 -0.196578 -1.832757
                                -1.665989  0.453921 -0.826271  1.896495  1.249261  1.953575 -0.890555 -0.000000  0.000000  0.000000
                                -0.000000 -0.000000  0.000000  0.000000 -0.000000  0.000000 -0.000000  0.000000 -0.000000  0.000000
                                -0.000000

                                   1 3d1-    1 3d1-    1 3d1-    1 3d1-    1 3d1-    1 3d1-    1 3d1-    1 3d1-    1 3d1-    1 3d1- 
                                   1 3d1-    1 3d1-    1 3d1-    1 3d1-    1 3d1-    1 3d1-    1 3d1-    1 5g1-    1 5g3-    1 5g1- 
                                   1 5g3-    1 5g1-    1 5g3-    1 5g1-    1 5g3-    1 7i5-    1 7i3-    1 7i1-    1 7i5-    1 7i3- 
                                   1 7i1- 

   1.7   2    -0.3283  -11.1227  0.000000 -0.000007  0.000004 -0.000198 -0.000073 -0.001640  0.008244 -0.000311  0.002609  0.143050
                                 0.329167  0.331323  0.215846  0.076958  0.103765  0.059474  0.002488 -0.000000  0.000000  0.000000
                                -0.000000  0.000000 -0.000000  0.000000 -0.000000 -0.000000  0.000000 -0.000000 -0.000000  0.000000
                                -0.000000

   2.7   0     0.1009   -2.2240  0.000001 -0.000005  0.000031 -0.000111  0.000441 -0.001153  0.003007 -0.011816  0.060618  0.542537
                                 0.450729 -0.190748  0.186269 -0.476977 -0.406488 -0.610156  1.256273 -0.000000  0.000000  0.000000
                                -0.000000 -0.000000  0.000000  0.000000 -0.000000  0.000000 -0.000000  0.000000 -0.000000 -0.000000
                                -0.000000

   3.7   0     0.3434   -3.3237 -0.000002  0.000021 -0.000101  0.000466 -0.001362  0.004599 -0.014265  0.038001 -0.196578 -1.832757
                                -1.665989  0.453921 -0.826271  1.896495  1.249261  1.953575 -0.890555 -0.000000  0.000000  0.000000
                                -0.000000 -0.000000  0.000000  0.000000 -0.000000  0.000000 -0.000000  0.000000 -0.000000 -0.000000
                                -0.000000

                                   1 4f2-    1 4f2-    1 4f2-    1 4f2-    1 4f2-    1 6h4-    1 6h2-    1 6h4-    1 6h2-    1 6h4- 
                                   1 6h2- 

   1.8   0     0.5014   -3.3352  0.007280 -0.009294  0.084164 -0.214902  1.106994 -0.000000  0.000000  0.000000 -0.000000 -0.000000
                                 0.000000

   2.8   0     1.3600   -4.7358  0.019204  0.117721 -0.031875  1.231897 -0.620994 -0.000000  0.000000  0.000000 -0.000000 -0.000000
                                 0.000000

 HOMO      1.4    -0.328271 =      -8.9327eV
 LUMO      4.1     0.009638 =       0.2623eV
 LUMO-HOMO         0.337910 =       9.1950eV


 **********************************************************************************************************************************
 DATASETS  * FILE   NREC   LENGTH (MB)   RECORD NAMES
              1      19       20.65       500      610      700      900      950      970     1000      129      960     1100   
                                          VAR    BASINP    GEOM    SYMINP    ZMAT    AOBASIS   BASIS     P2S    ABASIS      S 
                                         1400     1410     1420     1200     1210     1080     1600     1650     1700   
                                           T        V       ECP      H0       H01     AOSYM     SMH    MOLCAS    OPER   

              2       5        5.70       200      700     1000      520     4202   
                                        OPTIONS   GEOM     BASIS   MCVARS     RHF  

 PROGRAMS   *        TOTAL       RHF       INT
 CPU TIMES  *        43.51      0.60     42.33
 REAL TIME  *        45.48 SEC
 DISK USED  *         2.26 GB      
 SF USED    *         0.06 MB      
 GA USED    *         0.00 MB       (max)       0.00 MB       (current)
 **********************************************************************************************************************************
 SETTING SCF(1)         =      -126.47662150  AU                              
 SETTING _CC_NORM_MAX   =         2.00000000                                  


 PROGRAM * CCSD (Restricted open-shell coupled cluster)     Authors: C. Hampel, H.-J. Werner, 1991, M. Deegan, P.J. Knowles, 1992


 Convergence thresholds:  THRVAR = 1.00D-08  THRDEN = 1.00D-06

 CCSD(T)     terms to be evaluated (factor= 1.000)


 Number of closed-shell orbitals:   9 (   3   1   1   1   1   1   1   0 )
 Number of external orbitals:     304 (  80  41  41  30  41  30  30  11 )

 Memory could be reduced to 61.01 Mwords without degradation in triples

 Number of N-1 electron functions:              18
 Number of N-2 electron functions:             153
 Number of singly external CSFs:               906
 Number of doubly external CSFs:           1373280
 Total number of CSFs:                     1374186

 Molecular orbitals read from record     4202.2  Type=RHF/CANONICAL (state 1.1)

 Integral transformation finished. Total CPU:   1.29 sec, npass=  1  Memory used:  10.89 MW

 Starting RMP2 calculation

 Wavefunction is spin-projected

 ITER.      SQ.NORM     CORR.ENERGY   TOTAL ENERGY   ENERGY CHANGE        DEN1      VAR(S)    VAR(P)  DIIS     TIME
   1      1.15005956    -0.84254756  -127.31916906    -0.84254756    -0.00141009  0.16D-11  0.53D-03  1  1     1.60
   2      1.15129744    -0.84403333  -127.32065483    -0.00148577    -0.00000372  0.60D-13  0.25D-05  2  2     1.94
   3      1.15136850    -0.84407558  -127.32069708    -0.00004224    -0.00000001  0.16D-14  0.11D-07  3  3     2.16
   4      1.15137041    -0.84407592  -127.32069742    -0.00000034    -0.00000000  0.37D-16  0.59D-10  4  4     2.43

 Norm of t1 vector:      0.00000804      S-energy:    -0.00000000      T1 diagnostic:  0.00000134
 Norm of t2 vector:      0.38906350      P-energy:    -0.84407592
                                         Alpha-Beta:  -0.59045779
                                         Alpha-Alpha: -0.12680906
                                         Beta-Beta:   -0.12680906

 Spin contamination <S**2-Sz**2-Sz>     0.00000000
  Reference energy                   -126.476621499793
  RHF-RMP2 correlation energy          -0.844075922288
 !RHF-RMP2 energy                    -127.320697422081
 (NB above energy spin projected)

 Starting RCCSD calculation

 ITER.      SQ.NORM     CORR.ENERGY   TOTAL ENERGY   ENERGY CHANGE        DEN1      VAR(S)    VAR(P)  DIIS     TIME
   1      1.11674080    -0.77778968  -127.25441117    -0.77778968    -0.01814441  0.19D-02  0.36D-02  1  1     3.56
   2      1.12458900    -0.79337607  -127.26999757    -0.01558640    -0.00084468  0.63D-04  0.30D-03  2  2     4.36
   3      1.12505102    -0.79324616  -127.26986766     0.00012991    -0.00007933  0.50D-04  0.17D-04  3  3     5.40
   4      1.12558160    -0.79346622  -127.27008772    -0.00022006    -0.00000762  0.26D-05  0.28D-05  4  4     6.27
   5      1.12589048    -0.79355489  -127.27017639    -0.00008866    -0.00000070  0.53D-06  0.21D-06  5  5     7.26
   6      1.12596298    -0.79356286  -127.27018436    -0.00000798    -0.00000008  0.30D-07  0.31D-07  6  6     8.35
   7      1.12598306    -0.79356297  -127.27018447    -0.00000011    -0.00000001  0.17D-07  0.21D-08  6  1    18.80
   8      1.12598768    -0.79356410  -127.27018560    -0.00000113    -0.00000000  0.16D-08  0.18D-09  6  2    23.13
   9      1.12598848    -0.79356346  -127.27018496     0.00000064    -0.00000000  0.25D-09  0.60D-10  6  3    24.14

 Norm of t1 vector:      0.04319126      S-energy:    -0.00000010      T1 diagnostic:  0.00719854
                                                                       D1 diagnostic:  0.01331217
 Norm of t2 vector:      0.35231093      P-energy:    -0.79356336
                                         Alpha-Beta:  -0.57508116
                                         Alpha-Alpha: -0.10924110
                                         Beta-Beta:   -0.10924110

 Spin contamination <S**2-Sz**2-Sz>     0.00000000

 Memory could be reduced to 62.09 Mwords without degradation in triples
 

  Correlated core orbitals:             1.1       1.2       1.3       1.5
  Orbital energies:                    -3.8388   -2.4034   -2.4034   -2.4034
 
  RCCSD core-core energy               -0.123670184566
  RCCSD core-valence energy            -0.295194076958
  RCCSD valence correlation energy     -0.374699202012
 

 RESULTS
 =======

  Reference energy                   -126.476621499793
  RCCSD singles energy                 -0.000000099770
  RCCSD pair energy                    -0.793563363767
  RCCSD correlation energy             -0.793563463537
  Triples (T) contribution             -0.033725107240
  Total correlation energy             -0.827288570777
 
  RHF-RCCSD energy                   -127.270184963330
  RHF-RCCSD[T] energy                -127.304715696684
  RHF-RCCSD-T energy                 -127.303828109619
 !RHF-RCCSD(T) energy                -127.303910070570

 Program statistics:

 Available memory in ccsd:               511999162
 Min. memory needed in ccsd:               4090972
 Max. memory used in ccsd:                 5761543
 Max. memory used in cckext:               4393063 ( 9 integral passes)
 Max. memory used in cckint:              10891406 ( 1 integral passes)



 **********************************************************************************************************************************
 DATASETS  * FILE   NREC   LENGTH (MB)   RECORD NAMES
              1      19       20.65       500      610      700      900      950      970     1000      129      960     1100   
                                          VAR    BASINP    GEOM    SYMINP    ZMAT    AOBASIS   BASIS     P2S    ABASIS      S 
                                         1400     1410     1420     1200     1210     1080     1600     1650     1700   
                                           T        V       ECP      H0       H01     AOSYM     SMH    MOLCAS    OPER   

              2       5        5.70       200      700     1000      520     4202   
                                        OPTIONS   GEOM     BASIS   MCVARS     RHF  

 PROGRAMS   *        TOTAL  RCCSD(T)       RHF       INT
 CPU TIMES  *        84.00     40.47      0.60     42.33
 REAL TIME  *        94.10 SEC
 DISK USED  *         6.20 GB      
 SF USED    *       917.24 MB      
 GA USED    *         0.00 MB       (max)       0.00 MB       (current)
 **********************************************************************************************************************************
 SETTING CCSD(1)        =      -127.30391007  AU                              

 DO I                   =         2.00000000   

 Running procedure=EAS2D9


 PROGRAM * RHF-SCF (OPEN SHELL)       Authors: W. Meyer, H.-J. Werner


 NUMBER OF ELECTRONS:      10+    9-    SPACE SYMMETRY=1    SPIN SYMMETRY: Doublet 
 CONVERGENCE THRESHOLDS:    1.00E-05 (Density)    1.00E-07 (Energy)
 MAX. NUMBER OF ITERATIONS:       60
 INTERPOLATION TYPE:            DIIS
 INTERPOLATION STEPS:              2 (START)      1 (STEP)
 LEVEL SHIFTS:                 -0.60 (CLOSED) -0.30 (OPEN) 

 Number of closed-shell orbitals:    9 (   3   1   1   1   1   1   1   0 )
 Number of open-shell orbitals:      1 (   1   0   0   0   0   0   0   0 )


 
 Extra symmetries of mos in symmetry 1:   1   1   3   2
 Orbital guess generated from atomic densities. Full valence occupancy:    4   1   1   1   1   1   1   0


 Molecular orbital dump at record        4202.2

 ITERATION    DDIFF          GRAD             ENERGY        2-EL.EN.            DIPOLE MOMENTS         DIIS   ORB.
    1      0.000D+00      0.000D+00      -126.45397703    206.718491    0.00000    0.00000    0.00000    0    start
    2      0.000D+00      0.582D-02      -126.46187817    206.481288    0.00000    0.00000    0.00000    1    diag,B
    3      0.428D-02      0.128D-02      -126.46469903    206.044330    0.00000    0.00000    0.00000    2    diag,B
    4      0.146D-02      0.863D-03      -126.46702525    205.750687    0.00000    0.00000    0.00000    3    diag,B
    5      0.151D-02      0.640D-03      -126.46897203    205.316048    0.00000    0.00000    0.00000    4    diag,B
    6      0.170D-02      0.434D-03      -126.47033109    204.936771    0.00000    0.00000    0.00000    5    diag,B
    7      0.209D-02      0.276D-03      -126.47102407    204.687636    0.00000    0.00000    0.00000    6    fixocc
    8      0.338D-02      0.148D-03      -126.47122724    204.534537    0.00000    0.00000    0.00000    7    diag,B
    9      0.308D-02      0.664D-04      -126.47125796    204.484893    0.00000    0.00000    0.00000    8    diag,B
   10      0.180D-02      0.192D-04      -126.47125982    204.464346    0.00000    0.00000    0.00000    9    orth
   11      0.338D-03      0.970D-05      -126.47126028    204.470431    0.00000    0.00000    0.00000    9    diag,B
   12      0.459D-04      0.664D-05      -126.47126058    204.467713    0.00000    0.00000    0.00000    9    diag,B
   13      0.345D-04      0.632D-05      -126.47126081    204.468331    0.00000    0.00000    0.00000    9    diag,B
   14      0.654D-05      0.628D-05      -126.47126110    204.468339    0.00000    0.00000    0.00000    9    diag,B
   15      0.224D-05      0.628D-05      -126.47126105    204.468298    0.00000    0.00000    0.00000    9    diag,B
   16      0.434D-06      0.628D-05      -126.47126169    204.468296    0.00000    0.00000    0.00000    0    orth

 Final alpha occupancy:   4   1   1   1   1   1   1   0
 Final beta  occupancy:   3   1   1   1   1   1   1   0

 !RHF STATE 1.1 Energy               -126.471261689012
 Nuclear energy                         0.00000000
 One-electron energy                 -228.70540955
 Two-electron energy                  102.23414787
 Virial quotient                       -2.69889565
 !RHF STATE 1.1 Dipole moment           0.00000000     0.00000000     0.00000000
 Dipole moment /Debye                   0.00000000     0.00000000     0.00000000

 ELECTRON ORBITALS
 =================


   Orb  Occ    Energy  Couls-En    Coefficients

                                   1 1s      1 1s      1 1s      1 1s      1 1s      1 1s      1 1s      1 1s      1 1s      1 1s   
                                   1 1s      1 1s      1 1s      1 1s      1 1s      1 1s      1 1s      1 1s      1 1s      1 1s   
                                   1 1s      1 1s      1 1s      1 1s      1 1s      1 1s      1 1s      1 1s      1 1s      1 3d0  
                                   1 3d2+    1 3d0     1 3d2+    1 3d0     1 3d2+    1 3d0     1 3d2+    1 3d0     1 3d2+    1 3d0  
                                   1 3d2+    1 3d0     1 3d2+    1 3d0     1 3d2+    1 3d0     1 3d2+    1 3d0     1 3d2+    1 3d0  
                                   1 3d2+    1 3d0     1 3d2+    1 3d0     1 3d2+    1 3d0     1 3d2+    1 3d0     1 3d2+    1 3d0  
                                   1 3d2+    1 3d0     1 3d2+    1 5g0     1 5g4+    1 5g2+    1 5g0     1 5g4+    1 5g2+    1 5g0  
                                   1 5g4+    1 5g2+    1 5g0     1 5g4+    1 5g2+    1 7i6+    1 7i4+    1 7i2+    1 7i0     1 7i6+ 
                                   1 7i4+    1 7i2+    1 7i0  

   1.1   2    -3.8000  -20.0745  0.000000 -0.000000  0.000000 -0.000000  0.000000 -0.000000  0.000001 -0.000002  0.000006 -0.000018
                                 0.000049 -0.000124  0.000328 -0.000830  0.001987 -0.005935  0.010916 -0.043106  0.084662  0.292907
                                 0.833692  0.448089  0.454709  0.040331 -0.020600  0.008868 -1.541060  0.281073 -0.002405  0.000000
                                 0.000000 -0.000000 -0.000000  0.000000  0.000000 -0.000001 -0.000001  0.000001  0.000001 -0.000008
                                -0.000013  0.000031  0.000057 -0.000011 -0.000012 -0.000230 -0.000220  0.000840  0.001288  0.000408
                                 0.001451 -0.000710  0.000303 -0.000468  0.000044 -0.000072  0.000040  0.000553  0.000888  0.000729
                                 0.000930 -0.000006 -0.000003 -0.000170 -0.000025  0.000092 -0.000526 -0.000081  0.000277 -0.000535
                                -0.000085  0.000274 -0.000021 -0.000002  0.000009  0.000000 -0.000001  0.000001  0.000000 -0.000000
                                 0.000000  0.000001 -0.000002

   2.1   2    -0.0212   -4.7256 -0.000000  0.000000 -0.000000  0.000000 -0.000000  0.000000 -0.000000  0.000000 -0.000001  0.000004
                                -0.000011  0.000028 -0.000075  0.000189 -0.000456  0.001368 -0.002585  0.010472 -0.024902 -0.021825
                                -0.210485 -0.067887 -0.182000  0.060727  0.397968  0.200109  0.298961 -0.108256  0.504058 -0.000000
                                -0.000000  0.000000  0.000000 -0.000000 -0.000000  0.000002  0.000003  0.000001  0.000001  0.000016
                                 0.000023 -0.000083 -0.000119  0.000001  0.000002  0.000048  0.000033 -0.001091 -0.001687 -0.002922
                                -0.004311 -0.001894 -0.003254  0.002149  0.001432  0.003173  0.002985 -0.001500 -0.001967 -0.001274
                                -0.001556  0.003003  0.003006 -0.000108 -0.000025  0.000041 -0.000206 -0.000051  0.000075  0.000031
                                -0.000006 -0.000036  0.000282  0.000055 -0.000127 -0.000001  0.000002 -0.000002 -0.000004 -0.000000
                                 0.000000 -0.000001  0.000001

   3.1   2    -0.2541  -11.2657 -0.000000  0.000000 -0.000000  0.000000 -0.000000  0.000000 -0.000000  0.000000 -0.000000  0.000000
                                -0.000000  0.000001 -0.000002  0.000006 -0.000014  0.000048 -0.000079  0.000406 -0.000904 -0.002812
                                -0.015667  0.003890  0.000757  0.009490  0.003493  0.001368  0.019792 -0.016100 -0.000179  0.000000
                                 0.000000 -0.000003 -0.000006  0.000002  0.000004 -0.000078 -0.000189 -0.000030 -0.000073 -0.000647
                                -0.001565  0.003264  0.007893 -0.000105 -0.000254  0.001040  0.002514  0.055608  0.134509  0.129848
                                 0.314025  0.128658  0.311017  0.072489  0.175103  0.020592  0.049682  0.042047  0.101672  0.024843
                                 0.060073  0.000997  0.002393  0.000223  0.000571  0.000703  0.000725  0.001494  0.001619  0.000545
                                 0.001424  0.001775  0.000138  0.000593  0.000875  0.000069 -0.000126  0.000149  0.000110  0.000062
                                -0.000105  0.000130  0.000096

   4.1   +    -0.3348  -11.4872 -0.000000  0.000000 -0.000000  0.000000 -0.000000  0.000000 -0.000000  0.000000 -0.000000  0.000000
                                -0.000000  0.000000 -0.000000  0.000000  0.000000  0.000006  0.000002  0.000095 -0.000242 -0.001495
                                -0.010680  0.007716  0.005582  0.008841 -0.000969 -0.000361  0.010666 -0.015423 -0.003541  0.000000
                                -0.000000 -0.000007  0.000003  0.000004 -0.000002 -0.000193  0.000080 -0.000072  0.000030 -0.001595
                                 0.000660  0.008029 -0.003324 -0.000247  0.000104  0.001945 -0.000810  0.138989 -0.057566  0.324650
                                -0.134334  0.313329 -0.129522  0.157680 -0.065190  0.034437 -0.014295  0.102486 -0.042413  0.060603
                                -0.025086  0.000628 -0.000292  0.001136 -0.000500  0.000462  0.003152 -0.001358  0.001241  0.002633
                                -0.001116  0.001010  0.000817 -0.000350  0.000318 -0.000062  0.000177 -0.000534  0.000850 -0.000053
                                 0.000140 -0.000415  0.000684

   5.1   0     0.1376   -2.1324  0.000000 -0.000000  0.000000 -0.000000  0.000000 -0.000000  0.000001 -0.000002  0.000006 -0.000017
                                 0.000045 -0.000116  0.000298 -0.000754  0.001872 -0.004720  0.011028 -0.029270  0.078839 -0.303678
                                -0.804340  1.461316  0.771389 -0.785182  1.659854 -3.529220  0.693516 -1.561233  2.663362  0.000000
                                 0.000000 -0.000000 -0.000000  0.000000  0.000000 -0.000002 -0.000002  0.000001  0.000001 -0.000018
                                -0.000014  0.000082  0.000062 -0.000039 -0.000039  0.000171  0.000168  0.002847  0.002486  0.003980
                                 0.003158  0.001008  0.000288 -0.000773 -0.001064 -0.002118 -0.002153 -0.000114 -0.000352 -0.000973
                                -0.001113  0.000098  0.000161  0.000124  0.000023 -0.000053 -0.000038 -0.000002  0.000044 -0.000577
                                -0.000096  0.000309 -0.000511 -0.000091  0.000255  0.000001 -0.000001 -0.000000  0.000007 -0.000001
                                 0.000002 -0.000001 -0.000005

   6.1   0     0.2163   -2.0502 -0.000000  0.000000 -0.000000  0.000000 -0.000000  0.000000 -0.000000  0.000000 -0.000000  0.000000
                                -0.000000  0.000000 -0.000000  0.000000 -0.000001 -0.000000 -0.000004 -0.000014  0.000021  0.000674
                                 0.002878 -0.002206 -0.000515  0.000153 -0.004159  0.001891 -0.003214  0.003701 -0.001194  0.000001
                                -0.000000 -0.000007  0.000003  0.000037 -0.000015 -0.000140  0.000058  0.000514 -0.000214 -0.001434
                                 0.000596  0.003930 -0.001635 -0.013898  0.005784  0.071369 -0.029701  0.643713 -0.267872  0.543653
                                -0.226224 -0.206375  0.085887  0.230729 -0.096032 -0.511326  0.212775 -0.472284  0.196554 -0.712704
                                 0.296604  1.190760 -0.495540 -0.000070  0.000032 -0.000029 -0.000139  0.000060 -0.000054 -0.000208
                                 0.000088 -0.000078  0.000458 -0.000205  0.000191  0.000004 -0.000011  0.000034 -0.000054  0.000001
                                -0.000002  0.000004 -0.000008

                                   1 2px     1 2px     1 2px     1 2px     1 2px     1 2px     1 2px     1 2px     1 2px     1 2px  
                                   1 2px     1 2px     1 2px     1 2px     1 2px     1 2px     1 2px     1 2px     1 2px     1 2px  
                                   1 2px     1 2px     1 2px     1 4f1+    1 4f3+    1 4f1+    1 4f3+    1 4f1+    1 4f3+    1 4f1+ 
                                   1 4f3+    1 4f1+    1 4f3+    1 6h1+    1 6h3+    1 6h5+    1 6h1+    1 6h3+    1 6h5+    1 6h1+ 
                                   1 6h3+    1 6h5+ 

   1.2   2    -2.3525  -16.9017  0.000000 -0.000000  0.000000 -0.000000  0.000001 -0.000003  0.000007 -0.000038  0.000030 -0.000448
                                -0.000305 -0.003658 -0.001869  0.032717 -0.678197  0.357348  0.286860  0.037109 -0.003652  0.002326
                                 0.441159  0.541961 -0.000609  0.001183  0.000053  0.003540  0.000805  0.004905  0.000295  0.001524
                                -0.000588  0.000142 -0.000002  0.000290 -0.000120  0.000048  0.000037 -0.000009  0.000006 -0.000089
                                 0.000039 -0.000015

   2.2   0     0.1160   -1.5891  0.000000 -0.000000  0.000000 -0.000000  0.000001 -0.000004  0.000016 -0.000052  0.000155 -0.000413
                                 0.001088 -0.002639  0.007199 -0.024436  0.574418  0.073178  0.069963 -0.137035  0.386499 -0.873499
                                -0.600312 -0.078587  1.479545 -0.000000 -0.000008  0.000005 -0.000066  0.000014  0.000027 -0.000032
                                 0.000132  0.000268  0.000766 -0.000015  0.000007 -0.000003  0.000009 -0.000004  0.000002  0.000093
                                -0.000040  0.000018

   3.2   0     0.2087   -2.9435 -0.000000  0.000000 -0.000000  0.000000 -0.000002  0.000008 -0.000030  0.000101 -0.000291  0.000827
                                -0.001968  0.005407 -0.013127  0.040802 -0.921949 -0.183889 -0.177474  0.321423 -0.612663  1.977350
                                 0.996628  0.062106 -0.987641 -0.000001 -0.000040  0.000033 -0.000302  0.000061  0.000122 -0.000089
                                 0.000990  0.001182  0.003589 -0.000077  0.000033 -0.000013  0.000054 -0.000025  0.000011  0.000479
                                -0.000207  0.000091

                                   1 2py     1 2py     1 2py     1 2py     1 2py     1 2py     1 2py     1 2py     1 2py     1 2py  
                                   1 2py     1 2py     1 2py     1 2py     1 2py     1 2py     1 2py     1 2py     1 2py     1 2py  
                                   1 2py     1 2py     1 2py     1 4f1-    1 4f3-    1 4f1-    1 4f3-    1 4f1-    1 4f3-    1 4f1- 
                                   1 4f3-    1 4f1-    1 4f3-    1 6h1-    1 6h3-    1 6h5-    1 6h1-    1 6h3-    1 6h5-    1 6h1- 
                                   1 6h3-    1 6h5- 

   1.3   2    -2.3479  -16.8903  0.000000 -0.000000  0.000000 -0.000000  0.000001 -0.000003  0.000007 -0.000038  0.000031 -0.000452
                                -0.000294 -0.003683 -0.001791  0.032395 -0.674667  0.357389  0.288486  0.039040 -0.003659  0.002442
                                 0.438221  0.539223 -0.000637  0.000612  0.000369  0.002375  0.001633  0.002597  0.001590  0.000234
                                -0.000064  0.000065  0.000036  0.000183 -0.000107  0.000050  0.000027 -0.000010  0.000008 -0.000055
                                 0.000034 -0.000015

   2.3   0     0.1163   -1.5798  0.000000 -0.000000  0.000000 -0.000000  0.000001 -0.000004  0.000016 -0.000053  0.000157 -0.000418
                                 0.001098 -0.002670  0.007265 -0.024615  0.578091  0.074351  0.070984 -0.139401  0.387101 -0.884803
                                -0.604507 -0.078235  1.485800 -0.000007 -0.000007 -0.000051 -0.000050  0.000027  0.000023  0.000081
                                 0.000083  0.000743  0.000677 -0.000009  0.000005 -0.000002  0.000005 -0.000003  0.000001  0.000056
                                -0.000032  0.000016

   3.3   0     0.2115   -2.9025 -0.000000  0.000000 -0.000000  0.000000 -0.000002  0.000009 -0.000031  0.000104 -0.000298  0.000846
                                -0.002022  0.005523 -0.013482  0.042109 -0.953635 -0.186216 -0.179946  0.322935 -0.643598  2.002835
                                 1.028872  0.068611 -0.987109 -0.000033 -0.000034 -0.000231 -0.000234  0.000128  0.000102  0.000734
                                 0.000710  0.003564  0.003234 -0.000046  0.000028 -0.000012  0.000030 -0.000018  0.000009  0.000298
                                -0.000171  0.000084

                                   1 3d2-    1 3d2-    1 3d2-    1 3d2-    1 3d2-    1 3d2-    1 3d2-    1 3d2-    1 3d2-    1 3d2- 
                                   1 3d2-    1 3d2-    1 3d2-    1 3d2-    1 3d2-    1 3d2-    1 3d2-    1 5g2-    1 5g4-    1 5g2- 
                                   1 5g4-    1 5g2-    1 5g4-    1 5g2-    1 5g4-    1 7i2-    1 7i6-    1 7i4-    1 7i2-    1 7i6- 
                                   1 7i4- 

   1.4   2    -0.2599  -11.2833  0.000000 -0.000007  0.000004 -0.000205 -0.000079 -0.001696  0.008556 -0.000278  0.002694  0.145846
                                 0.340555  0.336809  0.188207  0.052422  0.110247  0.065178  0.002375  0.000558  0.000607  0.001267
                                 0.001599  0.001412  0.001500  0.000698  0.000608  0.000233  0.000075 -0.000149  0.000199  0.000066
                                -0.000125

   2.4   0     0.2172   -2.0498  0.000001 -0.000007  0.000040 -0.000152  0.000563 -0.001555  0.004231 -0.015199  0.078008  0.702746
                                 0.591836 -0.228419  0.249130 -0.563084 -0.517322 -0.779694  1.293984 -0.000014 -0.000075 -0.000004
                                -0.000140 -0.000079 -0.000224  0.000159  0.000442 -0.000033 -0.000011  0.000021 -0.000009 -0.000003
                                 0.000006

   3.4   0     0.4807   -3.1793 -0.000003  0.000021 -0.000104  0.000475 -0.001404  0.004691 -0.014466  0.039131 -0.202390 -1.881521
                                -1.701680  0.472923 -0.797776  1.867876  1.288268  2.008398 -0.838959 -0.000056 -0.000299  0.000004
                                -0.000497 -0.000322 -0.000835  0.000982  0.002904 -0.000138 -0.000046  0.000090  0.000016  0.000005
                                -0.000010

                                   1 2pz     1 2pz     1 2pz     1 2pz     1 2pz     1 2pz     1 2pz     1 2pz     1 2pz     1 2pz  
                                   1 2pz     1 2pz     1 2pz     1 2pz     1 2pz     1 2pz     1 2pz     1 2pz     1 2pz     1 2pz  
                                   1 2pz     1 2pz     1 2pz     1 4f0     1 4f2+    1 4f0     1 4f2+    1 4f0     1 4f2+    1 4f0  
                                   1 4f2+    1 4f0     1 4f2+    1 6h2+    1 6h4+    1 6h0     1 6h2+    1 6h4+    1 6h0     1 6h2+ 
                                   1 6h4+    1 6h0  

   1.5   2    -2.3539  -16.9057  0.000000 -0.000000  0.000000 -0.000000  0.000000 -0.000003  0.000007 -0.000038  0.000029 -0.000447
                                -0.000308 -0.003649 -0.001897  0.032834 -0.679466  0.357347  0.286280  0.036403 -0.003657  0.002284
                                 0.442204  0.542964 -0.000599 -0.000687  0.000710 -0.001084  0.002415 -0.002747  0.002979 -0.001879
                                 0.000620 -0.000097  0.000082 -0.000141  0.000033  0.000298 -0.000015  0.000007  0.000031  0.000044
                                -0.000009 -0.000094

   2.5   0     0.1159   -1.5928  0.000000 -0.000000  0.000000 -0.000000  0.000001 -0.000004  0.000016 -0.000052  0.000154 -0.000412
                                 0.001084 -0.002627  0.007174 -0.024371  0.573098  0.072730  0.069574 -0.136082  0.386317 -0.869233
                                -0.598790 -0.078749  1.477152 -0.000012 -0.000004 -0.000104 -0.000027  0.000036  0.000020  0.000239
                                 0.000042  0.000992  0.000508  0.000008 -0.000002 -0.000017 -0.000004  0.000001  0.000011 -0.000046
                                 0.000010  0.000105

   3.5   0     0.2076   -2.9601 -0.000000  0.000000 -0.000000  0.000000 -0.000002  0.000008 -0.000030  0.000100 -0.000288  0.000820
                                -0.001947  0.005363 -0.012989  0.040292 -0.909539 -0.183007 -0.176522  0.321092 -0.600662  1.967157
                                 0.984014  0.059497 -0.987687 -0.000055 -0.000021 -0.000474 -0.000121  0.000186  0.000083  0.001667
                                 0.000390  0.004701  0.002294  0.000039 -0.000008 -0.000083 -0.000027  0.000005  0.000067 -0.000231
                                 0.000052  0.000536

                                   1 3d1+    1 3d1+    1 3d1+    1 3d1+    1 3d1+    1 3d1+    1 3d1+    1 3d1+    1 3d1+    1 3d1+ 
                                   1 3d1+    1 3d1+    1 3d1+    1 3d1+    1 3d1+    1 3d1+    1 3d1+    1 5g1+    1 5g3+    1 5g1+ 
                                   1 5g3+    1 5g1+    1 5g3+    1 5g1+    1 5g3+    1 7i5+    1 7i3+    1 7i1+    1 7i5+    1 7i3+ 
                                   1 7i1+ 

   1.6   2    -0.2929  -11.3730  0.000000 -0.000007  0.000004 -0.000207 -0.000079 -0.001711  0.008624 -0.000297  0.002539  0.147200
                                 0.344240  0.337992  0.181222  0.045501  0.111283  0.065961  0.001436  0.000425  0.000489  0.001084
                                 0.001211  0.001027  0.001196  0.000402  0.000497  0.000043 -0.000175  0.000464  0.000037 -0.000142
                                 0.000383

   2.6   0     0.2166   -2.0507  0.000001 -0.000007  0.000040 -0.000152  0.000560 -0.001551  0.004232 -0.015104  0.077537  0.698932
                                 0.589361 -0.225889  0.248949 -0.557627 -0.513806 -0.774791  1.291523 -0.000042 -0.000038 -0.000074
                                -0.000061 -0.000132 -0.000127  0.000282  0.000276 -0.000006  0.000024 -0.000063 -0.000001  0.000005
                                -0.000013

   3.6   0     0.4773   -3.1703 -0.000002  0.000021 -0.000103  0.000469 -0.001388  0.004632 -0.014271  0.038697 -0.200109 -1.859968
                                -1.681465  0.469054 -0.783828  1.862343  1.274226  1.986063 -0.840699 -0.000173 -0.000157 -0.000272
                                -0.000221 -0.000498 -0.000487  0.001813  0.001736 -0.000025  0.000102 -0.000271  0.000004 -0.000016
                                 0.000042

                                   1 3d1-    1 3d1-    1 3d1-    1 3d1-    1 3d1-    1 3d1-    1 3d1-    1 3d1-    1 3d1-    1 3d1- 
                                   1 3d1-    1 3d1-    1 3d1-    1 3d1-    1 3d1-    1 3d1-    1 3d1-    1 5g1-    1 5g3-    1 5g1- 
                                   1 5g3-    1 5g1-    1 5g3-    1 5g1-    1 5g3-    1 7i5-    1 7i3-    1 7i1-    1 7i5-    1 7i3- 
                                   1 7i1- 

   1.7   2    -0.2687  -11.3078  0.000000 -0.000007  0.000004 -0.000205 -0.000079 -0.001700  0.008575 -0.000283  0.002652  0.146204
                                 0.341549  0.337157  0.186327  0.050474  0.110541  0.065406  0.002084  0.000691  0.000524  0.001860
                                 0.001261  0.001684  0.001309  0.000638  0.000596  0.000043 -0.000153  0.000289  0.000038 -0.000126
                                 0.000248

   2.7   0     0.2170   -2.0499  0.000001 -0.000007  0.000040 -0.000152  0.000562 -0.001554  0.004232 -0.015174  0.077881  0.701728
                                 0.591190 -0.227717  0.249099 -0.561612 -0.516366 -0.778366  1.293325 -0.000095 -0.000032 -0.000183
                                -0.000045 -0.000280 -0.000116  0.000560  0.000239 -0.000006  0.000021 -0.000041 -0.000001  0.000005
                                -0.000011

   3.7   0     0.4798   -3.1767 -0.000003  0.000021 -0.000104  0.000473 -0.001400  0.004674 -0.014412  0.039013 -0.201769 -1.875642
                                -1.696164  0.471873 -0.793959  1.866376  1.284452  2.002323 -0.839417 -0.000385 -0.000128 -0.000662
                                -0.000154 -0.001035 -0.000452  0.003690  0.001512 -0.000025  0.000091 -0.000175  0.000003 -0.000011
                                 0.000020

                                   1 4f2-    1 4f2-    1 4f2-    1 4f2-    1 4f2-    1 6h4-    1 6h2-    1 6h4-    1 6h2-    1 6h4- 
                                   1 6h2- 

   1.8   0     0.6555   -3.1951  0.007650 -0.008348  0.086026 -0.207383  1.102903  0.000074  0.000074 -0.000110 -0.000109  0.001100
                                 0.001105

   2.8   0     1.4788   -4.7020  0.022588  0.120839 -0.005006  1.208573 -0.620478  0.000253  0.000254  0.000750  0.000756  0.003607
                                 0.003647

 HOMO      1.4    -0.259899 =      -7.0722eV
 LUMO      2.5     0.115851 =       3.1525eV
 LUMO-HOMO         0.375750 =      10.2247eV


 **********************************************************************************************************************************
 DATASETS  * FILE   NREC   LENGTH (MB)   RECORD NAMES
              1      19       20.65       500      610      700      900      950      970     1000      129      960     1100   
                                          VAR    BASINP    GEOM    SYMINP    ZMAT    AOBASIS   BASIS     P2S    ABASIS      S 
                                         1400     1410     1420     1200     1210     1080     1600     1650     1700   
                                           T        V       ECP      H0       H01     AOSYM     SMH    MOLCAS    OPER   

              2       5        5.82       200      700     1000      520     4202   
                                        OPTIONS   GEOM     BASIS   MCVARS     RHF  

 PROGRAMS   *        TOTAL       RHF  RCCSD(T)       RHF       INT
 CPU TIMES  *        84.96      0.95     40.47      0.60     42.33
 REAL TIME  *        95.30 SEC
 DISK USED  *         6.20 GB      
 SF USED    *       917.24 MB      
 GA USED    *         0.00 MB       (max)       0.00 MB       (current)
 **********************************************************************************************************************************


 PROGRAM * POP (Mulliken population analysis)

 
 Density matrix read from record         4202.2  Type=RHF/CHARGE (state 1.1)
 
 Population analysis by basis function type

 Unique atom        s        p        d        f        g    Total    Charge
   1  PD      3.99987  5.99966  8.99991  0.00034  0.00022 19.00000  - 1.00000


 **********************************************************************************************************************************
 DATASETS  * FILE   NREC   LENGTH (MB)   RECORD NAMES
              1      19       20.65       500      610      700      900      950      970     1000      129      960     1100   
                                          VAR    BASINP    GEOM    SYMINP    ZMAT    AOBASIS   BASIS     P2S    ABASIS      S 
                                         1400     1410     1420     1200     1210     1080     1600     1650     1700   
                                           T        V       ECP      H0       H01     AOSYM     SMH    MOLCAS    OPER   

              2       5        5.82       200      700     1000      520     4202   
                                        OPTIONS   GEOM     BASIS   MCVARS     RHF  

 PROGRAMS   *        TOTAL       POP       RHF  RCCSD(T)       RHF       INT
 CPU TIMES  *        84.96      0.00      0.95     40.47      0.60     42.33
 REAL TIME  *        95.31 SEC
 DISK USED  *         6.20 GB      
 SF USED    *       917.24 MB      
 GA USED    *         0.00 MB       (max)       0.00 MB       (current)
 **********************************************************************************************************************************


 PROGRAM * MULTI (Direct Multiconfiguration SCF)       Authors: P.J. Knowles, H.-J. Werner (1984)     S.T. Elbert (1988)


 Number of closed-shell orbitals:   5 (   2   1   1   0   1   0   0   0 )
 Number of active  orbitals:        5 (   2   0   0   1   0   1   1   0 )
 Number of external orbitals:     303 (  79  41  41  30  41  30  30  11 )

 State symmetry 1

 Number of electrons:     9    Spin symmetry=Doublet   Space symmetry=1
 Number of states:        2
 Number of CSFs:          2   (2 determinants, 5 intermediate states)

 State symmetry 2

 Number of electrons:     9    Spin symmetry=Doublet   Space symmetry=4
 Number of states:        1
 Number of CSFs:          1   (1 determinants, 5 intermediate states)

 State symmetry 3

 Number of electrons:     9    Spin symmetry=Doublet   Space symmetry=6
 Number of states:        1
 Number of CSFs:          1   (1 determinants, 5 intermediate states)

 State symmetry 4

 Number of electrons:     9    Spin symmetry=Doublet   Space symmetry=7
 Number of states:        1
 Number of CSFs:          1   (1 determinants, 5 intermediate states)

 Molecular orbitals read from record     4202.2  Type=RHF/CANONICAL (state 1.1)
 *** IN SYMMETRY 1 ORBITAL  1 SYMMETRY CONTAMINATION OF 0.280D-02 HAS BEEN REMOVED
 *** IN SYMMETRY 1 ORBITAL  2 SYMMETRY CONTAMINATION OF 0.181D-01 HAS BEEN REMOVED
 *** IN SYMMETRY 1 ORBITAL  3 SYMMETRY CONTAMINATION OF 0.328D+00 HAS BEEN REMOVED
 *** IN SYMMETRY 1 ORBITAL  4 SYMMETRY CONTAMINATION OF 0.327D+00 HAS BEEN REMOVED

 EXTRA SYMMETRY OF MOS IN SYMMETRY 1:   1 1 3 2 1 2 3 1 2 3   1 2 3 4 6 5 1 2 3 4   6 5 2 3 1 4 6 510 9   7 8 2 3 1 4 6 510 9
                                        7 8 2 3 1 2 3 1 2 3   1 2 3 1 2 3 1 2 3 1   2 3 1 2 3 1 1 2 3 1   2 3 1 1 1 1 1 1 1 1
                                        1 1 1
 *** IN SYMMETRY 2 ORBITAL  1 SYMMETRY CONTAMINATION OF 0.570D-02 HAS BEEN REMOVED
 EXTRA SYMMETRY OF MOS IN SYMMETRY 2:   1 1 1 1 2 3 1 2 3 1   1 5 6 2 3 4 5 6 2 3   1 4 6 5 1 2 3 1 1 1   1 1 1 1 1 1 1 1 1 1
                                        1 4
 *** IN SYMMETRY 3 ORBITAL  1 SYMMETRY CONTAMINATION OF 0.420D-02 HAS BEEN REMOVED
 EXTRA SYMMETRY OF MOS IN SYMMETRY 3:   1 1 1 1 2 3 1 2 3 4   5 6 1 2 3 4 6 5 2 3   1 4 6 5 1 2 3 1 1 1   1 1 1 1 1 1 1 1 1 1
                                        1 1
 *** IN SYMMETRY 4 ORBITAL  1 SYMMETRY CONTAMINATION OF 0.719D-02 HAS BEEN REMOVED
 EXTRA SYMMETRY OF MOS IN SYMMETRY 4:   1 1 1 1 2 3 1 2 3 1   2 3 4 5 6 1 2 3 4 5   6 1 1 1 1 1 1 1 1 1   1
 *** IN SYMMETRY 5 ORBITAL  1 SYMMETRY CONTAMINATION OF 0.581D-02 HAS BEEN REMOVED
 EXTRA SYMMETRY OF MOS IN SYMMETRY 5:   1 1 1 1 2 3 1 2 3 1   6 4 5 2 3 6 4 5 2 3   1 6 4 5 1 2 3 1 1 1   1 1 1 1 1 1 1 1 1 1
                                        1 1
 *** IN SYMMETRY 6 ORBITAL  1 SYMMETRY CONTAMINATION OF 0.603D-02 HAS BEEN REMOVED
 EXTRA SYMMETRY OF MOS IN SYMMETRY 6:   1 1 1 1 2 3 1 2 3 1   2 3 6 5 4 1 2 3 6 5   4 1 1 1 1 1 1 1 1 1   1
 *** IN SYMMETRY 7 ORBITAL  1 SYMMETRY CONTAMINATION OF 0.749D-02 HAS BEEN REMOVED
 EXTRA SYMMETRY OF MOS IN SYMMETRY 7:   1 1 1 1 2 3 1 2 3 1   2 3 6 5 4 1 2 3 6 5   4 1 1 1 1 1 1 1 1 1   1
 EXTRA SYMMETRY OF MOS IN SYMMETRY 8:   1 1 3 2 1 3 2 1 3 2   1

 Wavefunction dump at record             5202.2

 Convergence thresholds  0.10E-01 (gradient)  0.10E-05 (energy)  0.10E-02 (step length)

 Weight factors for state symmetry  1:    0.20000   0.20000
 Weight factors for state symmetry  2:    0.20000
 Weight factors for state symmetry  3:    0.20000
 Weight factors for state symmetry  4:    0.20000

 Number of orbital rotations:      533   (     4 Core/Active    281 Core/Virtual   0 Active/Active    248 Active/Virtual)
 Total number of variables:        540


 ITER. MIC  NCI  NEG     ENERGY(VAR)     ENERGY(PROJ)   ENERGY CHANGE     GRAD(0)  GRAD(ORB)   GRAD(CI)     STEP       TIME

   1   40   16    0    -126.46685652    -126.46781000   -0.00095348    0.32804306 0.00000000 0.00000000  0.28D-01      0.31
   2   31   20    0    -126.46781041    -126.46781053   -0.00000012    0.33519342 0.00000000 0.00000000  0.73D-03      0.54
   3   44   24    0    -126.46781053    -126.46781053   -0.00000000    0.00000010 0.00000000 0.00000000  0.27D-06      0.80

 ** WVFN ****  CONVERGENCE REACHED, FINAL GRADIENT:  0.44D-10



 Results for state 1.1
 =====================

 !MCSCF STATE 1.1 Energy             -126.467810534360
 Nuclear energy                         0.00000000
 Kinetic energy                        46.85606200
 One electron energy                 -228.70723109
 Two electron energy                  102.23942056
 Virial ratio                           3.69907041

 !MCSCF STATE 1.1 Dipole moment         0.00000000     0.00000000     0.00000000
 Dipole moment /Debye                   0.00000000     0.00000000     0.00000000

 Results for state 2.1
 =====================

 !MCSCF STATE 2.1 Energy             -126.467810534360
 Nuclear energy                         0.00000000
 Kinetic energy                        46.85606200
 One electron energy                 -228.70723109
 Two electron energy                  102.23942056
 Virial ratio                           3.69907041

 !MCSCF STATE 2.1 Dipole moment         0.00000000     0.00000000     0.00000000
 Dipole moment /Debye                   0.00000000     0.00000000     0.00000000



 Results for state 1.4
 =====================

 !MCSCF STATE 1.4 Energy             -126.467810534360
 Nuclear energy                         0.00000000
 Kinetic energy                        46.85606200
 One electron energy                 -228.70723109
 Two electron energy                  102.23942056
 Virial ratio                           3.69907041

 !MCSCF STATE 1.4 Dipole moment         0.00000000     0.00000000     0.00000000
 Dipole moment /Debye                   0.00000000     0.00000000     0.00000000



 Results for state 1.6
 =====================

 !MCSCF STATE 1.6 Energy             -126.467810534360
 Nuclear energy                         0.00000000
 Kinetic energy                        46.85606200
 One electron energy                 -228.70723109
 Two electron energy                  102.23942056
 Virial ratio                           3.69907041

 !MCSCF STATE 1.6 Dipole moment         0.00000000     0.00000000     0.00000000
 Dipole moment /Debye                   0.00000000     0.00000000     0.00000000



 Results for state 1.7
 =====================

 !MCSCF STATE 1.7 Energy             -126.467810534360
 Nuclear energy                         0.00000000
 Kinetic energy                        46.85606200
 One electron energy                 -228.70723109
 Two electron energy                  102.23942056
 Virial ratio                           3.69907041

 !MCSCF STATE 1.7 Dipole moment         0.00000000     0.00000000     0.00000000
 Dipole moment /Debye                   0.00000000     0.00000000     0.00000000

 State-averaged charge density matrix saved on record  5202.2 (density set 1)


 NATURAL ORBITALS (state averaged)
 =================================

   Orb     Occ        Energy       Coefficients

                                   1 1s      1 1s      1 1s      1 1s      1 1s      1 1s      1 1s      1 1s      1 1s      1 1s   
                                   1 1s      1 1s      1 1s      1 1s      1 1s      1 1s      1 1s      1 1s      1 1s      1 1s   
                                   1 1s      1 1s      1 1s      1 1s      1 1s      1 1s      1 1s      1 1s      1 1s      1 3d0  
                                   1 3d2+    1 3d0     1 3d2+    1 3d0     1 3d2+    1 3d0     1 3d2+    1 3d0     1 3d2+    1 3d0  
                                   1 3d2+    1 3d0     1 3d2+    1 3d0     1 3d2+    1 3d0     1 3d2+    1 3d0     1 3d2+    1 3d0  
                                   1 3d2+    1 3d0     1 3d2+    1 3d0     1 3d2+    1 3d0     1 3d2+    1 3d0     1 3d2+    1 3d0  
                                   1 3d2+    1 3d0     1 3d2+    1 5g0     1 5g4+    1 5g2+    1 5g0     1 5g4+    1 5g2+    1 5g0  
                                   1 5g4+    1 5g2+    1 5g0     1 5g4+    1 5g2+    1 7i6+    1 7i4+    1 7i2+    1 7i0     1 7i6+ 
                                   1 7i4+    1 7i2+    1 7i0  

   1.1  2.00000    -3.800004     0.000000 -0.000000  0.000000 -0.000000  0.000000 -0.000000  0.000001 -0.000002  0.000006 -0.000018
                                 0.000049 -0.000124  0.000328 -0.000830  0.001987 -0.005936  0.010916 -0.043107  0.084666  0.292896
                                 0.833679  0.448179  0.454737  0.040361 -0.020606  0.008869 -1.541050  0.280963 -0.002413  0.000000
                                 0.000000  0.000000  0.000000  0.000000  0.000000  0.000000  0.000000  0.000000  0.000000  0.000000
                                 0.000000  0.000000  0.000000  0.000000  0.000000  0.000000  0.000000  0.000000  0.000000  0.000000
                                 0.000000  0.000000  0.000000  0.000000  0.000000  0.000000  0.000000  0.000000  0.000000  0.000000
                                 0.000000  0.000000  0.000000  0.000000  0.000000  0.000000  0.000000  0.000000  0.000000  0.000000
                                 0.000000  0.000000  0.000000  0.000000  0.000000  0.000000  0.000000  0.000000  0.000000  0.000000
                                 0.000000  0.000000  0.000000

   2.1  2.00000    -0.021128    -0.000000  0.000000 -0.000000  0.000000 -0.000000  0.000000 -0.000000  0.000000 -0.000001  0.000004
                                -0.000011  0.000028 -0.000075  0.000189 -0.000456  0.001367 -0.002584  0.010471 -0.024897 -0.021896
                                -0.210760 -0.067627 -0.181769  0.060648  0.397949  0.199729  0.299249 -0.108667  0.504628  0.000000
                                 0.000000  0.000000  0.000000  0.000000  0.000000  0.000000  0.000000  0.000000  0.000000  0.000000
                                 0.000000  0.000000  0.000000  0.000000  0.000000  0.000000  0.000000  0.000000  0.000000  0.000000
                                 0.000000  0.000000  0.000000  0.000000  0.000000  0.000000  0.000000  0.000000  0.000000  0.000000
                                 0.000000  0.000000  0.000000  0.000000  0.000000  0.000000  0.000000  0.000000  0.000000  0.000000
                                 0.000000  0.000000  0.000000  0.000000  0.000000  0.000000  0.000000  0.000000  0.000000  0.000000
                                 0.000000  0.000000  0.000000

   3.1  1.80000    -0.214933     0.000000  0.000000  0.000000  0.000000  0.000000  0.000000  0.000000  0.000000  0.000000  0.000000
                                 0.000000  0.000000  0.000000  0.000000  0.000000  0.000000  0.000000  0.000000  0.000000  0.000000
                                 0.000000  0.000000  0.000000  0.000000  0.000000  0.000000  0.000000  0.000000  0.000000  0.000000
                                 0.000000 -0.000007  0.000000  0.000004  0.000000 -0.000206  0.000000 -0.000079  0.000000 -0.001703
                                 0.000000  0.008587  0.000000 -0.000280  0.000000  0.002592  0.000000  0.146602  0.000000  0.342523
                                 0.000000  0.337424  0.000000  0.184748  0.000000  0.048970  0.000000  0.110620  0.000000  0.065482
                                 0.000000  0.001879  0.000000  0.000000  0.000000  0.000000  0.000000  0.000000  0.000000  0.000000
                                 0.000000  0.000000  0.000000  0.000000  0.000000  0.000000  0.000000  0.000000  0.000000  0.000000
                                 0.000000  0.000000  0.000000

   4.1  1.80000    -0.214933     0.000000  0.000000  0.000000  0.000000  0.000000  0.000000  0.000000  0.000000  0.000000  0.000000
                                 0.000000  0.000000  0.000000  0.000000  0.000000  0.000000  0.000000  0.000000  0.000000  0.000000
                                 0.000000  0.000000  0.000000  0.000000  0.000000  0.000000  0.000000  0.000000  0.000000  0.000000
                                 0.000000  0.000000 -0.000007  0.000000  0.000004  0.000000 -0.000206  0.000000 -0.000079  0.000000
                                -0.001703  0.000000  0.008587  0.000000 -0.000280  0.000000  0.002592  0.000000  0.146602  0.000000
                                 0.342523  0.000000  0.337424  0.000000  0.184748  0.000000  0.048970  0.000000  0.110620  0.000000
                                 0.065482  0.000000  0.001879  0.000000  0.000000  0.000000  0.000000  0.000000  0.000000  0.000000
                                 0.000000  0.000000  0.000000  0.000000  0.000000  0.000000  0.000000  0.000000  0.000000  0.000000
                                 0.000000  0.000000  0.000000

                                   1 2px     1 2px     1 2px     1 2px     1 2px     1 2px     1 2px     1 2px     1 2px     1 2px  
                                   1 2px     1 2px     1 2px     1 2px     1 2px     1 2px     1 2px     1 2px     1 2px     1 2px  
                                   1 2px     1 2px     1 2px     1 4f1+    1 4f3+    1 4f1+    1 4f3+    1 4f1+    1 4f3+    1 4f1+ 
                                   1 4f3+    1 4f1+    1 4f3+    1 6h1+    1 6h3+    1 6h5+    1 6h1+    1 6h3+    1 6h5+    1 6h1+ 
                                   1 6h3+    1 6h5+ 

   1.2  2.00000    -2.351326     0.000000 -0.000000  0.000000 -0.000000  0.000001 -0.000003  0.000007 -0.000038  0.000030 -0.000449
                                -0.000302 -0.003664 -0.001852  0.032648 -0.677447  0.357391  0.287211  0.037523 -0.003660  0.002351
                                 0.440521  0.541390 -0.000615  0.000000  0.000000  0.000000  0.000000  0.000000  0.000000  0.000000
                                 0.000000  0.000000  0.000000  0.000000  0.000000  0.000000  0.000000  0.000000  0.000000  0.000000
                                 0.000000  0.000000

                                   1 2py     1 2py     1 2py     1 2py     1 2py     1 2py     1 2py     1 2py     1 2py     1 2py  
                                   1 2py     1 2py     1 2py     1 2py     1 2py     1 2py     1 2py     1 2py     1 2py     1 2py  
                                   1 2py     1 2py     1 2py     1 4f1-    1 4f3-    1 4f1-    1 4f3-    1 4f1-    1 4f3-    1 4f1- 
                                   1 4f3-    1 4f1-    1 4f3-    1 6h1-    1 6h3-    1 6h5-    1 6h1-    1 6h3-    1 6h5-    1 6h1- 
                                   1 6h3-    1 6h5- 

   1.3  2.00000    -2.351326     0.000000 -0.000000  0.000000 -0.000000  0.000001 -0.000003  0.000007 -0.000038  0.000030 -0.000449
                                -0.000302 -0.003664 -0.001852  0.032648 -0.677447  0.357391  0.287211  0.037523 -0.003660  0.002351
[...]

              2      17       40.51       200      700     1000      520     4202     5202     2102     2105     5202(1)  2107   
                                        OPTIONS   GEOM     BASIS   MCVARS     RHF     MCSCF     RHF      RHF     MCSCF     RHF  
                                         2109     2111     2113     2115     2117     2119     2120   
                                          RHF      RHF      RHF      RHF      RHF      RHF      RHF  

 PROGRAMS   *        TOTAL       RHF  RCCSD(T)       RHF  RCCSD(T)       RHF  RCCSD(T)       RHF     MULTI       POP       RHF
 CPU TIMES  *       377.97      0.70      7.85      0.66     12.51      0.91     15.56      0.08      1.17      0.00      6.56
 REAL TIME  *       466.50 SEC
 DISK USED  *         7.04 GB      
 SF USED    *         1.03 GB      
 GA USED    *         0.00 MB       (max)       0.00 MB       (current)
 **********************************************************************************************************************************
 SETTING SCF(12)        =       -69.55474218  AU                              
 SETTING _CC_NORM_MAX   =         2.00000000                                  


 PROGRAM * CCSD (Restricted open-shell coupled cluster)     Authors: C. Hampel, H.-J. Werner, 1991, M. Deegan, P.J. Knowles, 1992


 Convergence thresholds:  THRVAR = 1.00D-08  THRDEN = 1.00D-06

 CCSD(T)     terms to be evaluated (factor= 1.000)


 Number of closed-shell orbitals:   1 (   1   0   0   0   0   0   0   0 )
 Number of active  orbitals:        3 (   0   1   1   0   1   0   0   0 )
 Number of external orbitals:     309 (  82  41  41  31  41  31  31  11 )

 Memory could be reduced to 40.33 Mwords without degradation in triples

 Number of N-1 electron functions:               5
 Number of N-2 electron functions:              10
 Number of singly external CSFs:               290
 Number of doubly external CSFs:             89708
 Total number of CSFs:                       89998

 Molecular orbitals read from record     2120.2  Type=RHF/CANONICAL (state 1.8)

 Integral transformation finished. Total CPU:   0.66 sec, npass=  1  Memory used:   5.46 MW

 Starting RMP2 calculation

 Wavefunction is spin-projected

 ITER.      SQ.NORM     CORR.ENERGY   TOTAL ENERGY   ENERGY CHANGE        DEN1      VAR(S)    VAR(P)  DIIS     TIME
   1      1.02023086    -0.14570501   -69.70044719    -0.14570501    -0.00011676  0.87D-08  0.18D-04  1  1     0.67
   2      1.02027535    -0.14582646   -69.70056864    -0.00012145    -0.00000001  0.27D-11  0.17D-08  2  2     0.68
   3      1.02027557    -0.14582687   -69.70056905    -0.00000041    -0.00000000  0.39D-15  0.18D-12  3  3     0.69

 Norm of t1 vector:      0.00737133      S-energy:    -0.00046420      T1 diagnostic:  0.00010790
 Norm of t2 vector:      0.14220138      P-energy:    -0.14536267
                                         Alpha-Beta:  -0.11003362
                                         Alpha-Alpha: -0.03532905
                                         Beta-Beta:    0.00000000

 Spin contamination <S**2-Sz**2-Sz>     0.00000000
  Reference energy                    -69.554742182650
  RHF-RMP2 correlation energy          -0.145826868916
 !RHF-RMP2 energy                     -69.700569051566
 (NB above energy spin projected)

 Starting RCCSD calculation

 ITER.      SQ.NORM     CORR.ENERGY   TOTAL ENERGY   ENERGY CHANGE        DEN1      VAR(S)    VAR(P)  DIIS     TIME
   1      1.02451538    -0.15743765   -69.71217983    -0.15743765    -0.00267413  0.10D-04  0.40D-03  1  1     0.93
   2      1.02577305    -0.16029854   -69.71504072    -0.00286089    -0.00002895  0.15D-07  0.39D-05  2  2     1.08
   3      1.02587206    -0.16044405   -69.71518623    -0.00014551    -0.00000040  0.50D-09  0.48D-07  3  3     1.22
   4      1.02588099    -0.16045637   -69.71519855    -0.00001232    -0.00000000  0.26D-10  0.39D-09  4  4     1.37
   5      1.02588133    -0.16045665   -69.71519883    -0.00000028    -0.00000000  0.12D-12  0.23D-11  5  5     1.50

 Norm of t1 vector:      0.00794718      S-energy:    -0.00044188      T1 diagnostic:  0.00114770
                                                                       D1 diagnostic:  0.00159669
 Norm of t2 vector:      0.16068033      P-energy:    -0.16001477
                                         Alpha-Beta:  -0.12376199
                                         Alpha-Alpha: -0.03625278
                                         Beta-Beta:    0.00000000

 Spin contamination <S**2-Sz**2-Sz>     0.00000000

 Memory could be reduced to 41.05 Mwords without degradation in triples
 

  Correlated core orbitals:             1.1       1.2       1.3       1.5
  Orbital energies:                   -13.3160  -11.5816  -11.5816  -11.5816
 
  RCCSD core-core energy               -0.160456647338
 

 RESULTS
 =======

  Reference energy                    -69.554742182650
  RCCSD singles energy                 -0.000441877057
  RCCSD pair energy                    -0.160014770281
  RCCSD correlation energy             -0.160456647338
  Triples (T) contribution             -0.003113279704
  Total correlation energy             -0.163569927041
 
  RHF-RCCSD energy                    -69.715198829988
  RHF-RCCSD[T] energy                 -69.718310829251
  RHF-RCCSD-T energy                  -69.718310277239
 !RHF-RCCSD(T) energy                 -69.718312109692

 Program statistics:

 Available memory in ccsd:               511999732
 Min. memory needed in ccsd:                690971
 Max. memory used in ccsd:                  769427
 Max. memory used in cckext:                799511 ( 5 integral passes)
 Max. memory used in cckint:               5455130 ( 1 integral passes)



 **********************************************************************************************************************************
 DATASETS  * FILE   NREC   LENGTH (MB)   RECORD NAMES
              1      20       29.45       500      610      700      900      950      970     1000      129      960     1100   
                                          VAR    BASINP    GEOM    SYMINP    ZMAT    AOBASIS   BASIS     P2S    ABASIS      S 
                                         1400     1410     1420     1200     1210     1080     1600     1650     1700     1380   
                                           T        V       ECP      H0       H01     AOSYM     SMH    MOLCAS    OPER     JKOP   

              2      17       40.51       200      700     1000      520     4202     5202     2102     2105     5202(1)  2107   
                                        OPTIONS   GEOM     BASIS   MCVARS     RHF     MCSCF     RHF      RHF     MCSCF     RHF  
                                         2109     2111     2113     2115     2117     2119     2120   
                                          RHF      RHF      RHF      RHF      RHF      RHF      RHF  

 PROGRAMS   *        TOTAL  RCCSD(T)       RHF  RCCSD(T)       RHF  RCCSD(T)       RHF  RCCSD(T)       RHF     MULTI       POP
 CPU TIMES  *       381.09      3.11      0.70      7.85      0.66     12.51      0.91     15.56      0.08      1.17      0.00
 REAL TIME  *       471.04 SEC
 DISK USED  *         7.04 GB      
 SF USED    *         1.03 GB      
 GA USED    *         0.00 MB       (max)       0.00 MB       (current)
 **********************************************************************************************************************************
 SETTING CCSD(12)       =       -69.71831211  AU                              

 DO I                   =        13.00000000   

 Running procedure=XVIIS2


 PROGRAM * RHF-SCF (CLOSED SHELL)       Authors: W. Meyer, H.-J. Werner


 NUMBER OF ELECTRONS:       1+    1-    SPACE SYMMETRY=1    SPIN SYMMETRY: Singlet 
 CONVERGENCE THRESHOLDS:    1.00E-05 (Density)    1.00E-07 (Energy)
 MAX. NUMBER OF ITERATIONS:       60
 INTERPOLATION TYPE:            DIIS
 INTERPOLATION STEPS:              2 (START)      1 (STEP)
 LEVEL SHIFTS:                  0.00 (CLOSED)  0.00 (OPEN) 



 Orbital guess generated from atomic densities. Full valence occupancy:    4   1   1   1   1   1   1   0


 Molecular orbital dump at record        2121.2

 Initial occupancy:   1   0   0   0   0   0   0   0

 ITERATION    DDIFF          GRAD             ENERGY        2-EL.EN.            DIPOLE MOMENTS         DIIS   ORB.
    1      0.000D+00      0.000D+00       -31.61408256      1.868939    0.00000    0.00000    0.00000    0    start
    2      0.000D+00      0.159D+00       -32.23882107      2.105989    0.00000    0.00000    0.00000    1    diag
    3      0.787D-01      0.121D-01       -32.24230570      2.123854    0.00000    0.00000    0.00000    2    diag
    4      0.664D-02      0.827D-04       -32.24230582      2.123948    0.00000    0.00000    0.00000    3    diag
    5      0.110D-03      0.219D-05       -32.24230582      2.123945    0.00000    0.00000    0.00000    4    diag
    6      0.154D-05      0.487D-07       -32.24230582      2.123945    0.00000    0.00000    0.00000    0    orth

 Final occupancy:   1   0   0   0   0   0   0   0

 !RHF STATE 1.1 Energy                -32.242305817384
 Nuclear energy                         0.00000000
 One-electron energy                  -33.30427821
 Two-electron energy                    1.06197239
 Virial quotient                       -7.14456712
 !RHF STATE 1.1 Dipole moment           0.00000000     0.00000000     0.00000000
 Dipole moment /Debye                   0.00000000     0.00000000     0.00000000

 Orbital energies:

         1.1          2.1          3.1
    -15.590167   -10.899068   -10.899067

         1.2          2.2
    -13.303776    -8.544230

         1.3          2.3
    -13.303776    -8.544230

         1.4          2.4
    -10.899067    -6.481486

         1.5          2.5
    -13.303776    -8.544230

         1.6          2.6
    -10.899067    -6.481486

         1.7          2.7
    -10.899067    -6.481486

         1.8          2.8
     -8.544230    -5.385214

 HOMO      1.1   -15.590167 =    -424.2300eV
 LUMO      1.5   -13.303776 =    -362.0142eV
 LUMO-HOMO         2.286390 =      62.2159eV


 **********************************************************************************************************************************
 DATASETS  * FILE   NREC   LENGTH (MB)   RECORD NAMES
              1      20       29.45       500      610      700      900      950      970     1000      129      960     1100   
                                          VAR    BASINP    GEOM    SYMINP    ZMAT    AOBASIS   BASIS     P2S    ABASIS      S 
                                         1400     1410     1420     1200     1210     1080     1600     1650     1700     1380   
                                           T        V       ECP      H0       H01     AOSYM     SMH    MOLCAS    OPER     JKOP   

              2      18       43.50       200      700     1000      520     4202     5202     2102     2105     5202(1)  2107   
                                        OPTIONS   GEOM     BASIS   MCVARS     RHF     MCSCF     RHF      RHF     MCSCF     RHF  
                                         2109     2111     2113     2115     2117     2119     2120     2121   
                                          RHF      RHF      RHF      RHF      RHF      RHF      RHF      RHF  

 PROGRAMS   *        TOTAL       RHF  RCCSD(T)       RHF  RCCSD(T)       RHF  RCCSD(T)       RHF  RCCSD(T)       RHF     MULTI
 CPU TIMES  *       381.73      0.63      3.11      0.70      7.85      0.66     12.51      0.91     15.56      0.08      1.17
 REAL TIME  *       471.77 SEC
 DISK USED  *         7.04 GB      
 SF USED    *         1.03 GB      
 GA USED    *         0.00 MB       (max)       0.00 MB       (current)
 **********************************************************************************************************************************
 SETTING SCF(13)        =       -32.24230582  AU                              
 SETTING _CC_NORM_MAX   =         2.00000000                                  


 PROGRAM * CCSD (Restricted open-shell coupled cluster)     Authors: C. Hampel, H.-J. Werner, 1991, M. Deegan, P.J. Knowles, 1992


 Convergence thresholds:  THRVAR = 1.00D-08  THRDEN = 1.00D-06

 CCSD(T)     terms to be evaluated (factor= 1.000)


 Number of closed-shell orbitals:   1 (   1   0   0   0   0   0   0   0 )
 Number of external orbitals:     312 (  82  42  42  31  42  31  31  11 )

 Memory could be reduced to 29.01 Mwords without degradation in triples

 Number of N-1 electron functions:               2
 Number of N-2 electron functions:               1
 Number of singly external CSFs:               164
 Number of doubly external CSFs:             15020
 Total number of CSFs:                       15184

 Molecular orbitals read from record     2121.2  Type=RHF/CANONICAL (state 1.1)

 Integral transformation finished. Total CPU:   0.18 sec, npass=  1  Memory used:   2.11 MW

 Starting RMP2 calculation

 Wavefunction is spin-projected

 ITER.      SQ.NORM     CORR.ENERGY   TOTAL ENERGY   ENERGY CHANGE        DEN1      VAR(S)    VAR(P)  DIIS     TIME
   1      1.01068574    -0.05871804   -32.30102385    -0.05871804    -0.00007704  0.38D-19  0.16D-04  1  1     0.19
   2      1.01071964    -0.05879819   -32.30110400    -0.00008015    -0.00000000  0.15D-22  0.33D-09  2  2     0.19
   3      1.01071973    -0.05879834   -32.30110415    -0.00000015    -0.00000000  0.33D-27  0.46D-14  3  3     0.19

 Norm of t1 vector:      0.00000001      S-energy:    -0.00000000      T1 diagnostic:  0.00000001
 Norm of t2 vector:      0.10353613      P-energy:    -0.05879834
                                         Alpha-Beta:  -0.05879834
                                         Alpha-Alpha:  0.00000000
                                         Beta-Beta:    0.00000000

 Spin contamination <S**2-Sz**2-Sz>     0.00000000
  Reference energy                    -32.242305817384
  RHF-RMP2 correlation energy          -0.058798335983
 !RHF-RMP2 energy                     -32.301104153367
 (NB above energy spin projected)

 Starting RCCSD calculation

 ITER.      SQ.NORM     CORR.ENERGY   TOTAL ENERGY   ENERGY CHANGE        DEN1      VAR(S)    VAR(P)  DIIS     TIME
   1      1.01468922    -0.06581346   -32.30811927    -0.06581346    -0.00298530  0.29D-05  0.57D-03  1  1     0.23
   2      1.01712215    -0.06970341   -32.31200922    -0.00388995    -0.00004090  0.13D-07  0.60D-05  2  2     0.26
   3      1.01738093    -0.07005667   -32.31236248    -0.00035326    -0.00000035  0.29D-09  0.37D-07  3  3     0.29
   4      1.01737819    -0.07004969   -32.31235551     0.00000698    -0.00000000  0.49D-12  0.14D-09  4  4     0.33
   5      1.01737878    -0.07005053   -32.31235635    -0.00000084    -0.00000000  0.10D-13  0.11D-12  5  5     0.37

 Norm of t1 vector:      0.00220748      S-energy:    -0.00000000      T1 diagnostic:  0.00110374
                                                                       D1 diagnostic:  0.00156092
 Norm of t2 vector:      0.13181013      P-energy:    -0.07005053
                                         Alpha-Beta:  -0.07005053
                                         Alpha-Alpha:  0.00000000
                                         Beta-Beta:    0.00000000

 Doubles amplitudes (print threshold =  0.500E-01):

         I         J         SYM. A    SYM. B    A         B      T(IJ, AB) [Alpha-Beta]

         1         1         2         2         1         1     -0.07394536
         1         1         3         3         1         1     -0.07394536
         1         1         5         5         1         1     -0.07394536

 Spin contamination <S**2-Sz**2-Sz>     0.00000000

 Memory could be reduced to 28.62 Mwords without degradation in triples
 

  Correlated core orbitals:             1.1
  Orbital energies:                   -15.5902
 
  RCCSD core-core energy               -0.070050531408
 

 RESULTS
 =======

  Reference energy                    -32.242305817384
  RCCSD singles energy                 -0.000000000122
  RCCSD pair energy                    -0.070050531285
  RCCSD correlation energy             -0.070050531408
  Triples (T) contribution              0.000000000000
  Total correlation energy             -0.070050531408
 
  RHF-RCCSD energy                    -32.312356348792
  RHF-RCCSD[T] energy                 -32.312356348792
  RHF-RCCSD-T energy                  -32.312356348792
 !RHF-RCCSD(T) energy                 -32.312356348792

 Program statistics:

 Available memory in ccsd:               511999882
 Min. memory needed in ccsd:                426629
 Max. memory used in ccsd:                  426629
 Max. memory used in cckext:                571486 ( 5 integral passes)
 Max. memory used in cckint:               2111599 ( 1 integral passes)



 **********************************************************************************************************************************
 DATASETS  * FILE   NREC   LENGTH (MB)   RECORD NAMES
              1      20       29.45       500      610      700      900      950      970     1000      129      960     1100   
                                          VAR    BASINP    GEOM    SYMINP    ZMAT    AOBASIS   BASIS     P2S    ABASIS      S 
                                         1400     1410     1420     1200     1210     1080     1600     1650     1700     1380   
                                           T        V       ECP      H0       H01     AOSYM     SMH    MOLCAS    OPER     JKOP   

              2      18       43.50       200      700     1000      520     4202     5202     2102     2105     5202(1)  2107   
                                        OPTIONS   GEOM     BASIS   MCVARS     RHF     MCSCF     RHF      RHF     MCSCF     RHF  
                                         2109     2111     2113     2115     2117     2119     2120     2121   
                                          RHF      RHF      RHF      RHF      RHF      RHF      RHF      RHF  

 PROGRAMS   *        TOTAL  RCCSD(T)       RHF  RCCSD(T)       RHF  RCCSD(T)       RHF  RCCSD(T)       RHF  RCCSD(T)       RHF
 CPU TIMES  *       382.52      0.78      0.63      3.11      0.70      7.85      0.66     12.51      0.91     15.56      0.08
 REAL TIME  *       472.83 SEC
 DISK USED  *         7.04 GB      
 SF USED    *         1.03 GB      
 GA USED    *         0.00 MB       (max)       0.00 MB       (current)
 **********************************************************************************************************************************
 SETTING CCSD(13)       =       -32.31235635  AU                              
 Output type csv         
                                                                                                                                                                                                                                                                

        SCF,CCSD
   -126.47662150,   -127.30391007
   -126.46781053,   -127.30952837
   -126.46839201,   -127.26545321
   -126.38719632,   -127.17560240
   -126.23799602,   -126.99154432
   -126.14466645,   -126.87208556
   -125.59393544,   -126.27645752
   -124.44849249,   -125.06939885
   -122.75302414,   -123.31794187
   -120.51348314,   -121.01504746
    -98.27639153,    -98.60470470
    -69.55474218,    -69.71831211
    -32.24230582,    -32.31235635
                                                  

 RCCSD(T)/USERDEF energy=    -32.312356348792

        RCCSD(T)        RHF-SCF         RCCSD(T)        RHF-SCF         RCCSD(T)        RHF-SCF         RCCSD(T)        RHF-SCF 
    -32.31235635    -32.24230582    -69.71831211    -69.55474218    -98.60470470    -98.27639153   -121.01504746   -120.51348314
 **********************************************************************************************************************************
 Molpro calculation terminated
 Variable memory released
