
 Primary working directories    : /global/cscratch1/sd/bkincaid
 Secondary working directories  : /global/cscratch1/sd/bkincaid
 Wavefunction directory         : /global/homes/b/bkincaid/wfu/
 Main file repository           : /global/cscratch1/sd/bkincaid/

 SHA1      : 19cd028119e0e09f93f0674bd8af7968d9b3eff6
 NAME      : 2015.1.36
 ARCHNAME  : linux/x86_64
 FC        : /opt/cray/pe/craype/2.5.14/bin/ftn
 BLASLIB   : -L/opt/intel/compilers_and_libraries_2018.1.163/linux/mkl/lib/intel64 -Wl,-_start-group -lmkl_intel_ilp64 -lmkl_intel_thread -lmkl_core -Wl,-_end-group -liomp5
 id        : lbl

 Nodes     nprocs
 nid01295    23
 Number of processes for MPI-2 version of Molpro:   nprocs(total)=   24   nprocs(compute)=   23   nprocs(helper)=    1

 Using customized tuning parameters: mindgm=7; mindgv=16; mindgc=1; mindgr=1; noblas=0; minvec=7
 default implementation of scratch files=sf  

 ***,Calculation for PdO groundstate
 memory,512,m
 gthresh,twoint=1.0E-12
 gthresh,throvl=1.0E-12
                                                                                 !symmetry,nosym
 
 basis={
 Including file /global/u1/b/bkincaid/molpro/Pd/molecules/PdO/tz/ecps/bk16.7/bk16.7
 Including file /global/u1/b/bkincaid/molpro/Pd/molecules/PdO/tz/ecps/bk16.7/Pd-aug-cc-pwCVTZ.basis
 ecp,O,2,1,0
 3
 1,  12.30997,  6.000000
 3,  14.76962,  73.85984
 2,  13.71419, -47.87600
 1
 2,  13.65512,  85.86406
 Including file /global/u1/b/bkincaid/molpro/Pd/molecules/PdO/tz/ecps/bk16.7/O-aug-cc-CVTZ.basis
 }
 
 OE=-75.09181489
 PdE=-5044.366379
 
 A1=6
 B1=3
 B2=3
 A2=1
 
 ne = 24
 do i=1,11
 z(i) = 1.985 - 0.05*(i-1)
 geometry={
         2
         PdO
         Pd 0.0 0.0 0.0
         O 0.0 0.0 z(i)
 }
 {rhf
 wf,nelec=ne,spin=2,sym=2
 occ,A1,B1,B2,A2
 closed,A1-1,B1-1,B2,A2
 }
 
 scf(i)=energy
 _CC_NORM_MAX=2.0
 {rccsd(t);maxit,100;core}
 ccsd(i)=energy
 enddo
 
 table,z,scf,ccsd
 save
 type,csv

 Variables initialized (889), CPU time= 0.01 sec
 Commands  initialized (702), CPU time= 0.02 sec, 572 directives.
 Default parameters read. Elapsed time= 0.20 sec

 Checking input...
 Passed
1


                                         ***  PROGRAM SYSTEM MOLPRO  ***
                                       Copyright, TTI GmbH Stuttgart, 2015
                                    Version 2015.1 linked Dec 29 2018 15:55:43


 **********************************************************************************************************************************
 LABEL *   Calculation for PdO groundstate                                               
  64 bit mpp version                                                                     DATE: 21-Apr-21          TIME: 02:29:44  
 **********************************************************************************************************************************

 SHA1:             19cd028119e0e09f93f0674bd8af7968d9b3eff6
 **********************************************************************************************************************************

 THRESHOLDS:

 ZERO    =  1.00D-12  ONEINT  =  1.00D-12  TWOINT  =  1.00D-12  PREFAC  =  1.00D-14  LOCALI  =  1.00D-09  EORDER  =  1.00D-04
 ENERGY  =  0.00D+00  ETEST   =  0.00D+00  EDENS   =  0.00D+00  THRDEDEF=  1.00D-06  GRADIENT=  1.00D-02  STEP    =  1.00D-03
 ORBITAL =  1.00D-05  CIVEC   =  1.00D-05  COEFF   =  1.00D-04  PRINTCI =  5.00D-02  PUNCHCI =  9.90D+01  OPTGRAD =  3.00D-04
 OPTENERG=  1.00D-06  OPTSTEP =  3.00D-04  THRGRAD =  1.00D-10  COMPRESS=  1.00D-11  VARMIN  =  1.00D-07  VARMAX  =  1.00D-03
 THRDOUB =  0.00D+00  THRDIV  =  1.00D-05  THRRED  =  1.00D-07  THRPSP  =  1.00D+00  THRDC   =  1.00D-10  THRCS   =  1.00D-10
 THRNRM  =  1.00D-08  THREQ   =  0.00D+00  THRDE   =  1.00D+00  THRREF  =  1.00D-05  SPARFAC =  1.00D+00  THRDLP  =  1.00D-07
 THRDIA  =  1.00D-10  THRDLS  =  1.00D-07  THRGPS  =  0.00D+00  THRKEX  =  0.00D+00  THRDIS  =  2.00D-01  THRVAR  =  1.00D-10
 THRLOC  =  1.00D-06  THRGAP  =  1.00D-06  THRLOCT = -1.00D+00  THRGAPT = -1.00D+00  THRORB  =  1.00D-06  THRMLTP =  0.00D+00
 THRCPQCI=  1.00D-10  KEXTA   =  0.00D+00  THRCOARS=  0.00D+00  SYMTOL  =  1.00D-06  GRADTOL =  1.00D-06  THROVL  =  1.00D-08
 THRORTH =  1.00D-08  GRID    =  1.00D-06  GRIDMAX =  1.00D-03  DTMAX   =  0.00D+00  THROCCDE=  1.00D-01  THROCCDE=  1.00D-01



 THRESHOLDS:

 ZERO    =  1.00D-12  ONEINT  =  1.00D-12  TWOINT  =  1.00D-12  PREFAC  =  1.00D-14  LOCALI  =  1.00D-09  EORDER  =  1.00D-04
 ENERGY  =  0.00D+00  ETEST   =  0.00D+00  EDENS   =  0.00D+00  THRDEDEF=  1.00D-06  GRADIENT=  1.00D-02  STEP    =  1.00D-03
 ORBITAL =  1.00D-05  CIVEC   =  1.00D-05  COEFF   =  1.00D-04  PRINTCI =  5.00D-02  PUNCHCI =  9.90D+01  OPTGRAD =  3.00D-04
 OPTENERG=  1.00D-06  OPTSTEP =  3.00D-04  THRGRAD =  1.00D-10  COMPRESS=  1.00D-11  VARMIN  =  1.00D-07  VARMAX  =  1.00D-03
 THRDOUB =  0.00D+00  THRDIV  =  1.00D-05  THRRED  =  1.00D-07  THRPSP  =  1.00D+00  THRDC   =  1.00D-10  THRCS   =  1.00D-10
 THRNRM  =  1.00D-08  THREQ   =  0.00D+00  THRDE   =  1.00D+00  THRREF  =  1.00D-05  SPARFAC =  1.00D+00  THRDLP  =  1.00D-07
 THRDIA  =  1.00D-10  THRDLS  =  1.00D-07  THRGPS  =  0.00D+00  THRKEX  =  0.00D+00  THRDIS  =  2.00D-01  THRVAR  =  1.00D-10
 THRLOC  =  1.00D-06  THRGAP  =  1.00D-06  THRLOCT = -1.00D+00  THRGAPT = -1.00D+00  THRORB  =  1.00D-06  THRMLTP =  0.00D+00
 THRCPQCI=  1.00D-10  KEXTA   =  0.00D+00  THRCOARS=  0.00D+00  SYMTOL  =  1.00D-06  GRADTOL =  1.00D-06  THROVL  =  1.00D-12
 THRORTH =  1.00D-08  GRID    =  1.00D-06  GRIDMAX =  1.00D-03  DTMAX   =  0.00D+00  THROCCDE=  1.00D-01  THROCCDE=  1.00D-01



 Variable memory set to  512000000 words,  buffer space   230000 words

 SETTING BASIS          =    USERDEF
 SETTING OE             =       -75.09181489                                  
 SETTING PDE            =     -5044.36637900                                  
 SETTING A1             =         6.00000000                                  
 SETTING B1             =         3.00000000                                  
 SETTING B2             =         3.00000000                                  
 SETTING A2             =         1.00000000                                  
 SETTING NE             =        24.00000000                                  

 DO I                   =         1.00000000   
 SETTING Z(1)           =         1.98500000                                  

Geometry recognized as XYZ



 Recomputing integrals since basis changed


 Using spherical harmonics



 PROGRAM * SEWARD (Integral evaluation for generally contracted gaussian basis sets)     Author: Roland Lindh, 1990

 Geometry written to block  1 of record 700


 Point group  C2v 



 ATOMIC COORDINATES

 NR  ATOM    CHARGE       X              Y              Z

   1  PD     18.00    0.000000000    0.000000000    0.000000000
   2  O       6.00    0.000000000    0.000000000    3.751106357

 Bond lengths in Bohr (Angstrom)

 1-2  3.751106357
     ( 1.985000000)

 NUCLEAR CHARGE:                   24
 NUMBER OF PRIMITIVE AOS:         370
 NUMBER OF SYMMETRY AOS:          313
 NUMBER OF CONTRACTIONS:          313   ( 138A1  +  71B1  +  71B2  +  33A2  )
 NUMBER OF CORE ORBITALS:           4   (   2A1  +   1B1  +   1B2  +   0A2  )
 NUMBER OF VALENCE ORBITALS:       10   (   5A1  +   2B1  +   2B2  +   1A2  )


 NUCLEAR REPULSION ENERGY   28.79150568

 EXTRA SYMMETRY OF AOS IN SYMMETRY 1:   1 1 1 1 1 1 1 1 1 1   1 1 1 1 1 1 1 1 1 1   1 1 1 1 1 1 1 1 1 1   1 1 1 1 1 1 1 1 1 1
                                        1 1 1 1 1 1 1 1 1 1   1 1 1 2 1 2 1 2 1 2   1 2 1 2 1 2 1 2 1 2   1 2 1 2 1 2 1 2 1 2
                                        1 2 1 2 1 2 1 2 1 2   1 2 1 2 1 3 2 1 3 2   1 3 2 1 1 1 1 1 1 1   1 1 1 1 1 1 1 1 1 1
                                        1 1 1 1 1 1 1 2 1 2   1 2 1 2 1 2 1 2
 EXTRA SYMMETRY OF AOS IN SYMMETRY 2:   1 1 1 1 1 1 1 1 1 1   1 1 1 1 1 1 1 1 1 1   1 1 1 1 1 1 1 1 1 1   1 1 1 1 1 1 1 1 1 1
                                        1 2 1 2 1 2 1 2 1 2   1 2 1 2 1 1 1 1 1 1   1 1 1 1 1 1 1 1 2 1   2
 EXTRA SYMMETRY OF AOS IN SYMMETRY 3:   1 1 1 1 1 1 1 1 1 1   1 1 1 1 1 1 1 1 1 1   1 1 1 1 1 1 1 1 1 1   1 1 1 1 1 1 1 1 1 1
                                        1 2 1 2 1 2 1 2 1 2   1 2 1 2 1 1 1 1 1 1   1 1 1 1 1 1 1 1 2 1   2
 EXTRA SYMMETRY OF AOS IN SYMMETRY 4:   1 1 1 1 1 1 1 1 1 1   1 1 1 1 1 1 1 1 1 1   1 1 2 1 2 1 2 1 1 1   1 1 1

 Eigenvalues of metric

         1 0.890E-06 0.944E-06 0.190E-05 0.902E-05 0.951E-05 0.125E-04 0.264E-04 0.367E-04
         2 0.955E-06 0.982E-06 0.936E-05 0.300E-03 0.471E-03 0.163E-02 0.217E-02 0.300E-02
         3 0.955E-06 0.982E-06 0.936E-05 0.300E-03 0.471E-03 0.163E-02 0.217E-02 0.300E-02
         4 0.951E-05 0.307E-03 0.302E-02 0.107E-01 0.287E-01 0.528E-01 0.881E-01 0.105E+00


 Contracted 2-electron integrals neglected if value below      1.0D-13
 AO integral compression algorithm  1   Integral accuracy      1.0D-13

     925.368 MB (compressed) written to integral file ( 30.8%)

     Node minimum: 14.418 MB, node maximum: 109.314 MB


 NUMBER OF SORTED TWO-ELECTRON INTEGRALS:   13592913.     BUFFER LENGTH:  32768
 NUMBER OF SEGMENTS:   1  SEGMENT LENGTH:   13592913      RECORD LENGTH: 524288

 Memory used in sort:      14.15 MW

 SORT1 READ   375719576. AND WROTE     5415814. INTEGRALS IN     16 RECORDS. CPU TIME:     8.14 SEC, REAL TIME:     9.76 SEC
 SORT2 READ   124261638. AND WROTE   312994044. INTEGRALS IN   2001 RECORDS. CPU TIME:     2.09 SEC, REAL TIME:     2.34 SEC

 Node minimum:    13561530.  Node maximum:    13694643. integrals

 OPERATOR DM      FOR CENTER  0  COORDINATES:    0.000000    0.000000    0.000000


 **********************************************************************************************************************************
 DATASETS  * FILE   NREC   LENGTH (MB)   RECORD NAMES
              1      19       21.20       500      610      700      900      950      970     1000      129      960     1100   
                                          VAR    BASINP    GEOM    SYMINP    ZMAT    AOBASIS   BASIS     P2S    ABASIS      S 
                                         1400     1410     1420     1200     1210     1080     1600     1650     1700   
                                           T        V       ECP      H0       H01     AOSYM     SMH    MOLCAS    OPER   

 PROGRAMS   *        TOTAL       INT
 CPU TIMES  *        29.41     28.86
 REAL TIME  *        32.39 SEC
 DISK USED  *         2.46 GB      
 GA USED    *         0.00 MB       (max)       0.00 MB       (current)
 **********************************************************************************************************************************


 PROGRAM * RHF-SCF (OPEN SHELL)       Authors: W. Meyer, H.-J. Werner


 NUMBER OF ELECTRONS:      13+   11-    SPACE SYMMETRY=2    SPIN SYMMETRY: Triplet 
 CONVERGENCE THRESHOLDS:    1.00E-05 (Density)    1.00E-07 (Energy)
 MAX. NUMBER OF ITERATIONS:       60
 INTERPOLATION TYPE:            DIIS
 INTERPOLATION STEPS:              2 (START)      1 (STEP)
 LEVEL SHIFTS:                 -0.60 (CLOSED) -0.30 (OPEN) 

 Number of closed-shell orbitals:   11 (   5   2   3   1 )
 Number of open-shell orbitals:      2 (   1   1   0   0 )


 Orbital guess generated from atomic densities. Full valence occupancy:    7   3   3   1

 Molecular orbital dump at record        2100.2

 ITERATION    DDIFF          GRAD             ENERGY        2-EL.EN.            DIPOLE MOMENTS         DIIS   ORB.
    1      0.000D+00      0.000D+00      -142.41692507    276.035265    0.00000    0.00000   -3.98974    0    start
    2      0.000D+00      0.820D-02      -142.48471570    280.339984    0.00000    0.00000   -1.77029    1    diag,B
    3      0.114D-01      0.730D-02      -142.52484509    278.556144    0.00000    0.00000   -2.17263    2    diag,B
    4      0.455D-02      0.172D-02      -142.53763517    278.794250    0.00000    0.00000   -2.00703    3    diag,B
    5      0.141D-02      0.130D-02      -142.54961547    278.839417    0.00000    0.00000   -1.89746    4    diag,B
    6      0.776D-03      0.114D-02      -142.56326680    278.884386    0.00000    0.00000   -1.85944    5    diag,B
    7      0.906D-03      0.990D-03      -142.58317631    278.677438    0.00000    0.00000   -1.98951    6    fixocc
    8      0.140D-02      0.668D-03      -142.59203000    278.390713    0.00000    0.00000   -2.16149    7    diag,B
    9      0.999D-03      0.463D-03      -142.59677644    278.146396    0.00000    0.00000   -2.30673    8    diag,B
   10      0.108D-02      0.252D-03      -142.59756124    278.015103    0.00000    0.00000   -2.37255    9    orth
   11      0.602D-03      0.104D-03      -142.59747759    278.019391    0.00000    0.00000   -2.36542    9    diag,B
   12      0.225D-03      0.157D-03      -142.59754193    278.034758    0.00000    0.00000   -2.36518    9    diag,B
   13      0.140D-03      0.940D-04      -142.59760348    277.981973    0.00000    0.00000   -2.38494    9    diag,B
   14      0.202D-03      0.538D-04      -142.59763492    277.994887    0.00000    0.00000   -2.37755    9    diag,B
   15      0.968D-04      0.239D-04      -142.59763730    277.998359    0.00000    0.00000   -2.37550    9    diag,B
   16      0.259D-04      0.729D-05      -142.59763787    277.998354    0.00000    0.00000   -2.37563    9    diag,B
   17      0.180D-04      0.443D-05      -142.59763816    277.998421    0.00000    0.00000   -2.37552    9    diag,B
   18      0.673D-05      0.355D-05      -142.59763837    277.998479    0.00000    0.00000   -2.37579    9    diag,B
   19      0.561D-05      0.244D-05      -142.59763857    277.998510    0.00000    0.00000   -2.37593    9    diag,B
   20      0.404D-05      0.202D-05      -142.59763876    277.998566    0.00000    0.00000   -2.37606    9    orth
   21      0.343D-05      0.160D-05      -142.59763894    277.998469    0.00000    0.00000   -2.37612    9    diag,B
   22      0.449D-05      0.112D-05      -142.59763904    277.998341    0.00000    0.00000   -2.37609    9    diag,B
   23      0.409D-05      0.594D-06      -142.59763904    277.998401    0.00000    0.00000   -2.37603    0    orth

 Final alpha occupancy:   6   3   3   1
 Final beta  occupancy:   5   2   3   1

 !RHF STATE 1.2 Energy               -142.597639044726
 Nuclear energy                        28.79150568
 One-electron energy                 -310.38834535
 Two-electron energy                  138.99920062
 Virial quotient                       -2.36243860
 !RHF STATE 1.2 Dipole moment           0.00000000     0.00000000    -2.37602900
 Dipole moment /Debye                   0.00000000     0.00000000    -6.03886779

 Orbital energies:

         1.1          2.1          3.1          4.1          5.1          6.1          7.1          8.1
     -4.044369    -2.593486    -1.143348    -0.458832    -0.455366    -0.454796    -0.015569     0.031556

         1.2          2.2          3.2          4.2          5.2
     -2.591173    -0.484525    -0.511159     0.021704     0.077367

         1.3          2.3          3.3          4.3          5.3
     -2.591021    -0.505043    -0.387276     0.022631     0.078698

         1.4          2.4          3.4
     -0.457570     0.093513     0.313704

 HOMO      3.3    -0.387276 =     -10.5383eV
 LUMO      7.1    -0.015569 =      -0.4237eV
 LUMO-HOMO         0.371706 =      10.1146eV


 **********************************************************************************************************************************
 DATASETS  * FILE   NREC   LENGTH (MB)   RECORD NAMES
              1      19       21.25       500      610      700      900      950      970     1000      129      960     1100   
                                          VAR    BASINP    GEOM    SYMINP    ZMAT    AOBASIS   BASIS     P2S    ABASIS      S 
                                         1400     1410     1420     1200     1210     1080     1600     1650     1700   
                                           T        V       ECP      H0       H01     AOSYM     SMH    MOLCAS    OPER   

              2       4        3.66       700     1000      520     2100   
                                         GEOM     BASIS   MCVARS     RHF  

 PROGRAMS   *        TOTAL       RHF       INT
 CPU TIMES  *        32.89      3.38     28.86
 REAL TIME  *        36.25 SEC
 DISK USED  *         3.14 GB      
 SF USED    *         0.12 MB      
 GA USED    *         0.00 MB       (max)       0.00 MB       (current)
 **********************************************************************************************************************************
 SETTING SCF(1)         =      -142.59763904  AU                              
 SETTING _CC_NORM_MAX   =         2.00000000                                  


 PROGRAM * CCSD (Restricted open-shell coupled cluster)     Authors: C. Hampel, H.-J. Werner, 1991, M. Deegan, P.J. Knowles, 1992


 Convergence thresholds:  THRVAR = 1.00D-08  THRDEN = 1.00D-06

 CCSD(T)     terms to be evaluated (factor= 1.000)


 Number of closed-shell orbitals:  11 (   5   2   3   1 )
 Number of active  orbitals:        2 (   1   1   0   0 )
 Number of external orbitals:     300 ( 132  68  68  32 )

 Memory could be reduced to 156.60 Mwords without degradation in triples

 Number of N-1 electron functions:              24
 Number of N-2 electron functions:             276
 Number of singly external CSFs:              2280
 Number of doubly external CSFs:           4894910
 Total number of CSFs:                     4897190

 Molecular orbitals read from record     2100.2  Type=RHF/CANONICAL (state 1.2)

 Integral transformation finished. Total CPU:   7.28 sec, npass=  1  Memory used:  15.00 MW

 Starting RMP2 calculation

 Wavefunction is spin-projected

 ITER.      SQ.NORM     CORR.ENERGY   TOTAL ENERGY   ENERGY CHANGE        DEN1      VAR(S)    VAR(P)  DIIS     TIME
   1      1.18001237    -0.94493978  -143.54257882    -0.94493978    -0.00160696  0.85D-05  0.57D-03  1  1    11.91
   2      1.18140188    -0.94664726  -143.54428630    -0.00170748    -0.00000535  0.23D-06  0.29D-05  2  2    14.47
   3      1.18148011    -0.94669608  -143.54433512    -0.00004882    -0.00000004  0.93D-08  0.18D-07  3  3    17.32
   4      1.18148206    -0.94669625  -143.54433530    -0.00000018    -0.00000000  0.27D-09  0.14D-09  4  4    18.87

 Norm of t1 vector:      0.04092305      S-energy:    -0.00573180      T1 diagnostic:  0.00044539
 Norm of t2 vector:      0.42403699      P-energy:    -0.94096445
                                         Alpha-Beta:  -0.66569999
                                         Alpha-Alpha: -0.15753371
                                         Beta-Beta:   -0.11773075

 Spin contamination <S**2-Sz**2-Sz>     0.00000000
  Reference energy                   -142.597639044726
  RHF-RMP2 correlation energy          -0.946696253351
 !RHF-RMP2 energy                    -143.544335298076
 (NB above energy spin projected)

 Starting RCCSD calculation

 ITER.      SQ.NORM     CORR.ENERGY   TOTAL ENERGY   ENERGY CHANGE        DEN1      VAR(S)    VAR(P)  DIIS     TIME
   1      1.16662978    -0.90575224  -143.50339128    -0.90575224    -0.02172806  0.81D-02  0.30D-02  1  1    27.95
   2      1.18241900    -0.92384637  -143.52148541    -0.01809413    -0.00263046  0.57D-03  0.85D-03  2  2    36.43
   3      1.19597871    -0.92664314  -143.52428218    -0.00279677    -0.00094019  0.10D-02  0.94D-04  3  3    44.46
   4      1.20792930    -0.92883896  -143.52647801    -0.00219583    -0.00041646  0.38D-03  0.66D-04  4  4    53.24
   5      1.22949618    -0.93128411  -143.52892316    -0.00244515    -0.00012828  0.10D-03  0.25D-04  5  5    60.90
   6      1.24403555    -0.93232520  -143.52996424    -0.00104108    -0.00003941  0.25D-04  0.11D-04  6  6    69.72
   7      1.25355395    -0.93290785  -143.53054690    -0.00058266    -0.00001140  0.66D-05  0.35D-05  6  1    77.52
   8      1.25537995    -0.93294859  -143.53058764    -0.00004074    -0.00000277  0.14D-05  0.90D-06  6  3    85.14
   9      1.25708193    -0.93307129  -143.53071034    -0.00012270    -0.00000054  0.23D-06  0.21D-06  6  2    91.46
  10      1.25688338    -0.93305576  -143.53069480     0.00001554    -0.00000013  0.72D-07  0.38D-07  6  5    99.03
  11      1.25699131    -0.93306098  -143.53070003    -0.00000523    -0.00000004  0.29D-07  0.12D-07  6  4   115.64
  12      1.25697424    -0.93305902  -143.53069806     0.00000197    -0.00000002  0.16D-07  0.21D-08  6  3   122.54
  13      1.25694717    -0.93305624  -143.53069528     0.00000278    -0.00000001  0.88D-08  0.11D-08  6  6   129.30
  14      1.25694412    -0.93305770  -143.53069674    -0.00000146    -0.00000000  0.36D-08  0.49D-09  6  1   137.62
  15      1.25692662    -0.93305657  -143.53069561     0.00000113    -0.00000000  0.14D-08  0.25D-09  6  2   144.87
  16      1.25691686    -0.93305587  -143.53069492     0.00000070    -0.00000000  0.71D-09  0.12D-09  6  5   153.78

 Norm of t1 vector:      0.25164193      S-energy:    -0.00628897      T1 diagnostic:  0.03547590
                                                                       D1 diagnostic:  0.11409186
 Norm of t2 vector:      0.43999227      P-energy:    -0.92676691
                                         Alpha-Beta:  -0.67906634
                                         Alpha-Alpha: -0.13947458
                                         Beta-Beta:   -0.10822599

 Singles amplitudes (print threshold =  0.500E-01):

         I         SYM. A    A   T(IA) [Alpha-Alpha]

         6         1         2     -0.06538549
 
         I         SYM. A    A   T(IA) [Beta-Beta]

         4         1         1     -0.10138758
         5         1         1     -0.12533003
         8         2         1      0.11122558

 Doubles amplitudes (print threshold =  0.500E-01):

         I         J         SYM. A    SYM. B    A         B      T(IJ, AB) [Beta-Beta]

         8         5         1         2         1         1      0.05246725
         8         5         2         1         1         1     -0.05246725

 Spin contamination <S**2-Sz**2-Sz>     0.00000000

 Memory could be reduced to 164.20 Mwords without degradation in triples
 

  Correlated core orbitals:             1.1       2.1       1.2       1.3
  Orbital energies:                    -4.0759   -2.6638   -2.6127   -2.6147
 
  RCCSD core-core energy               -0.117391639753
  RCCSD core-valence energy            -0.259118108271
  RCCSD valence correlation energy     -0.556546125153
 

 RESULTS
 =======

  Reference energy                   -142.597639044726
  RCCSD singles energy                 -0.006288965239
  RCCSD pair energy                    -0.926766907938
  RCCSD correlation energy             -0.933055873176
  Triples (T) contribution             -0.038694750975
  Total correlation energy             -0.971750624152
 
  RHF-RCCSD energy                   -143.530694917902
  RHF-RCCSD[T] energy                -143.573426844222
  RHF-RCCSD-T energy                 -143.568958116807
 !RHF-RCCSD(T) energy                -143.569389668877

 Program statistics:

 Available memory in ccsd:               511998418
 Min. memory needed in ccsd:              14064756
 Max. memory used in ccsd:                20157915
 Max. memory used in cckext:              15861012 (16 integral passes)
 Max. memory used in cckint:              15004909 ( 1 integral passes)



 **********************************************************************************************************************************
 DATASETS  * FILE   NREC   LENGTH (MB)   RECORD NAMES
              1      19       21.25       500      610      700      900      950      970     1000      129      960     1100   
                                          VAR    BASINP    GEOM    SYMINP    ZMAT    AOBASIS   BASIS     P2S    ABASIS      S 
                                         1400     1410     1420     1200     1210     1080     1600     1650     1700   
                                           T        V       ECP      H0       H01     AOSYM     SMH    MOLCAS    OPER   

              2       4        3.66       700     1000      520     2100   
                                         GEOM     BASIS   MCVARS     RHF  

 PROGRAMS   *        TOTAL  RCCSD(T)       RHF       INT
 CPU TIMES  *       267.73    234.80      3.38     28.86
 REAL TIME  *       378.90 SEC
 DISK USED  *        17.25 GB      
 SF USED    *         2.74 GB      
 GA USED    *         0.00 MB       (max)       0.00 MB       (current)
 **********************************************************************************************************************************
 SETTING CCSD(1)        =      -143.56938967  AU                              

 DO I                   =         2.00000000   
 SETTING Z(2)           =         1.93500000                                  

Geometry recognized as XYZ



 Recomputing integrals since geometry changed


 PROGRAM * SEWARD (Integral evaluation for generally contracted gaussian basis sets)     Author: Roland Lindh, 1990

 Geometry written to block  1 of record 700


 Point group  C2v 



 ATOMIC COORDINATES

 NR  ATOM    CHARGE       X              Y              Z

   1  PD     18.00    0.000000000    0.000000000    0.000000000
   2  O       6.00    0.000000000    0.000000000    3.656620051

 Bond lengths in Bohr (Angstrom)

 1-2  3.656620051
     ( 1.935000000)

 NUCLEAR CHARGE:                   24
 NUMBER OF PRIMITIVE AOS:         370
 NUMBER OF SYMMETRY AOS:          313
 NUMBER OF CONTRACTIONS:          313   ( 138A1  +  71B1  +  71B2  +  33A2  )
 NUMBER OF CORE ORBITALS:           4   (   2A1  +   1B1  +   1B2  +   0A2  )
 NUMBER OF VALENCE ORBITALS:       10   (   5A1  +   2B1  +   2B2  +   1A2  )


 NUCLEAR REPULSION ENERGY   29.53547224

 EXTRA SYMMETRY OF AOS IN SYMMETRY 1:   1 1 1 1 1 1 1 1 1 1   1 1 1 1 1 1 1 1 1 1   1 1 1 1 1 1 1 1 1 1   1 1 1 1 1 1 1 1 1 1
                                        1 1 1 1 1 1 1 1 1 1   1 1 1 2 1 2 1 2 1 2   1 2 1 2 1 2 1 2 1 2   1 2 1 2 1 2 1 2 1 2
                                        1 2 1 2 1 2 1 2 1 2   1 2 1 2 1 3 2 1 3 2   1 3 2 1 1 1 1 1 1 1   1 1 1 1 1 1 1 1 1 1
                                        1 1 1 1 1 1 1 2 1 2   1 2 1 2 1 2 1 2
 EXTRA SYMMETRY OF AOS IN SYMMETRY 2:   1 1 1 1 1 1 1 1 1 1   1 1 1 1 1 1 1 1 1 1   1 1 1 1 1 1 1 1 1 1   1 1 1 1 1 1 1 1 1 1
                                        1 2 1 2 1 2 1 2 1 2   1 2 1 2 1 1 1 1 1 1   1 1 1 1 1 1 1 1 2 1   2
 EXTRA SYMMETRY OF AOS IN SYMMETRY 3:   1 1 1 1 1 1 1 1 1 1   1 1 1 1 1 1 1 1 1 1   1 1 1 1 1 1 1 1 1 1   1 1 1 1 1 1 1 1 1 1
                                        1 2 1 2 1 2 1 2 1 2   1 2 1 2 1 1 1 1 1 1   1 1 1 1 1 1 1 1 2 1   2
 EXTRA SYMMETRY OF AOS IN SYMMETRY 4:   1 1 1 1 1 1 1 1 1 1   1 1 1 1 1 1 1 1 1 1   1 1 2 1 2 1 2 1 1 1   1 1 1

 Eigenvalues of metric

         1 0.880E-06 0.939E-06 0.189E-05 0.903E-05 0.951E-05 0.122E-04 0.262E-04 0.363E-04
         2 0.954E-06 0.982E-06 0.935E-05 0.299E-03 0.471E-03 0.163E-02 0.217E-02 0.299E-02
         3 0.954E-06 0.982E-06 0.935E-05 0.299E-03 0.471E-03 0.163E-02 0.217E-02 0.299E-02
         4 0.951E-05 0.307E-03 0.302E-02 0.107E-01 0.287E-01 0.528E-01 0.876E-01 0.105E+00


 Contracted 2-electron integrals neglected if value below      1.0D-13
 AO integral compression algorithm  1   Integral accuracy      1.0D-13

     935.854 MB (compressed) written to integral file ( 31.1%)

     Node minimum: 14.418 MB, node maximum: 109.314 MB


 NUMBER OF SORTED TWO-ELECTRON INTEGRALS:   13592913.     BUFFER LENGTH:  32768
 NUMBER OF SEGMENTS:   1  SEGMENT LENGTH:   13592913      RECORD LENGTH: 524288

 Memory used in sort:      14.15 MW

 SORT1 READ   375719576. AND WROTE     5483677. INTEGRALS IN     16 RECORDS. CPU TIME:     7.88 SEC, REAL TIME:     9.49 SEC
 SORT2 READ   125772589. AND WROTE   312994044. INTEGRALS IN   3174 RECORDS. CPU TIME:     0.51 SEC, REAL TIME:     0.76 SEC

 Node minimum:    13561530.  Node maximum:    13694643. integrals

 OPERATOR DM      FOR CENTER  0  COORDINATES:    0.000000    0.000000    0.000000


 **********************************************************************************************************************************
 DATASETS  * FILE   NREC   LENGTH (MB)   RECORD NAMES
              1      19       21.20       500      610      700      900      950      970     1000      129      960     1100   
                                          VAR    BASINP    GEOM    SYMINP    ZMAT    AOBASIS   BASIS     P2S    ABASIS      S 
                                         1400     1410     1420     1200     1210     1080     1600     1650     1700   
                                           T        V       ECP      H0       H01     AOSYM     SMH    MOLCAS    OPER   

              2       4        3.66       700     1000      520     2100   
                                         GEOM     BASIS   MCVARS     RHF  

 PROGRAMS   *        TOTAL       INT  RCCSD(T)       RHF       INT
 CPU TIMES  *       298.15     30.40    234.80      3.38     28.86
 REAL TIME  *       411.53 SEC
 DISK USED  *        17.32 GB      
 SF USED    *         2.74 GB      
 GA USED    *         0.00 MB       (max)       0.00 MB       (current)
 **********************************************************************************************************************************


 PROGRAM * RHF-SCF (OPEN SHELL)       Authors: W. Meyer, H.-J. Werner


 NUMBER OF ELECTRONS:      13+   11-    SPACE SYMMETRY=2    SPIN SYMMETRY: Triplet 
 CONVERGENCE THRESHOLDS:    1.00E-05 (Density)    1.00E-07 (Energy)
 MAX. NUMBER OF ITERATIONS:       60
 INTERPOLATION TYPE:            DIIS
 INTERPOLATION STEPS:              2 (START)      1 (STEP)
 LEVEL SHIFTS:                 -0.60 (CLOSED) -0.30 (OPEN) 

 Number of closed-shell orbitals:   11 (   5   2   3   1 )
 Number of open-shell orbitals:      2 (   1   1   0   0 )


 Molecular orbitals read from record     2100.2  Type=RHF/CANONICAL (state 1.2)

 Molecular orbital dump at record        2100.2

 ITERATION    DDIFF          GRAD             ENERGY        2-EL.EN.            DIPOLE MOMENTS         DIIS   ORB.
    1      0.000D+00      0.000D+00      -142.59628663    279.531716    0.00000    0.00000   -2.30356    0    start
    2      0.000D+00      0.199D-02      -142.59667667    279.485887    0.00000    0.00000   -2.29835    1    diag,B
    3      0.400D-03      0.149D-03      -142.59675250    279.499299    0.00000    0.00000   -2.29321    2    diag,B
    4      0.158D-03      0.788D-04      -142.59679569    279.486557    0.00000    0.00000   -2.28940    3    diag,B
    5      0.962D-04      0.464D-04      -142.59681731    279.491767    0.00000    0.00000   -2.28564    4    diag,B
    6      0.645D-04      0.276D-04      -142.59682920    279.490698    0.00000    0.00000   -2.28200    5    diag,B
    7      0.561D-04      0.120D-04      -142.59683158    279.492010    0.00000    0.00000   -2.28036    6    diag,B
    8      0.257D-04      0.481D-05      -142.59683189    279.492128    0.00000    0.00000   -2.28001    7    orth
    9      0.110D-04      0.226D-05      -142.59683196    279.492205    0.00000    0.00000   -2.27995    8    diag,B
   10      0.600D-05      0.138D-05      -142.59683199    279.492054    0.00000    0.00000   -2.28002    0    orth

 Final alpha occupancy:   6   3   3   1
 Final beta  occupancy:   5   2   3   1

 !RHF STATE 1.2 Energy               -142.596831986136
 Nuclear energy                        29.53547224
 One-electron energy                 -311.87833133
 Two-electron energy                  139.74602711
 Virial quotient                       -2.36112605
 !RHF STATE 1.2 Dipole moment           0.00000000     0.00000000    -2.28001615
 Dipole moment /Debye                   0.00000000     0.00000000    -5.79484346

 Orbital energies:

         1.1          2.1          3.1          4.1          5.1          6.1          7.1          8.1
     -4.041415    -2.591346    -1.151852    -0.467759    -0.454022    -0.442318    -0.013557     0.032247

         1.2          2.2          3.2          4.2          5.2
     -2.587921    -0.483234    -0.514009     0.022084     0.078166

         1.3          2.3          3.3          4.3          5.3
     -2.587703    -0.508737    -0.386641     0.023027     0.079569

         1.4          2.4          3.4
     -0.454308     0.093941     0.314778

 HOMO      3.3    -0.386641 =     -10.5210eV
 LUMO      7.1    -0.013557 =      -0.3689eV
 LUMO-HOMO         0.373085 =      10.1522eV


 **********************************************************************************************************************************
 DATASETS  * FILE   NREC   LENGTH (MB)   RECORD NAMES
              1      19       21.25       500      610      700      900      950      970     1000      129      960     1100   
                                          VAR    BASINP    GEOM    SYMINP    ZMAT    AOBASIS   BASIS     P2S    ABASIS      S 
                                         1400     1410     1420     1200     1210     1080     1600     1650     1700   
                                           T        V       ECP      H0       H01     AOSYM     SMH    MOLCAS    OPER   

              2       4        3.66       700     1000      520     2100   
                                         GEOM     BASIS   MCVARS     RHF  

 PROGRAMS   *        TOTAL       RHF       INT  RCCSD(T)       RHF       INT
 CPU TIMES  *       299.91      1.77     30.40    234.80      3.38     28.86
 REAL TIME  *       413.52 SEC
 DISK USED  *        17.32 GB      
 SF USED    *         2.74 GB      
 GA USED    *         0.00 MB       (max)       0.00 MB       (current)
 **********************************************************************************************************************************
 SETTING SCF(2)         =      -142.59683199  AU                              
 SETTING _CC_NORM_MAX   =         2.00000000                                  


 PROGRAM * CCSD (Restricted open-shell coupled cluster)     Authors: C. Hampel, H.-J. Werner, 1991, M. Deegan, P.J. Knowles, 1992


 Convergence thresholds:  THRVAR = 1.00D-08  THRDEN = 1.00D-06

 CCSD(T)     terms to be evaluated (factor= 1.000)


 Number of closed-shell orbitals:  11 (   5   2   3   1 )
 Number of active  orbitals:        2 (   1   1   0   0 )
 Number of external orbitals:     300 ( 132  68  68  32 )

 Memory could be reduced to 163.04 Mwords without degradation in triples

 Number of N-1 electron functions:              24
 Number of N-2 electron functions:             276
 Number of singly external CSFs:              2280
 Number of doubly external CSFs:           4894910
 Total number of CSFs:                     4897190

 Molecular orbitals read from record     2100.2  Type=RHF/CANONICAL (state 1.2)

 Integral transformation finished. Total CPU:   6.41 sec, npass=  1  Memory used:  15.00 MW

 Starting RMP2 calculation

 Wavefunction is spin-projected

 ITER.      SQ.NORM     CORR.ENERGY   TOTAL ENERGY   ENERGY CHANGE        DEN1      VAR(S)    VAR(P)  DIIS     TIME
   1      1.18106606    -0.94877535  -143.54560734    -0.94877535    -0.00161007  0.96D-05  0.57D-03  1  1     9.12
   2      1.18245406    -0.95048616  -143.54731815    -0.00171081    -0.00000541  0.24D-06  0.29D-05  2  2    10.92
   3      1.18253198    -0.95053485  -143.54736684    -0.00004869    -0.00000004  0.95D-08  0.18D-07  3  3    14.74
   4      1.18253401    -0.95053508  -143.54736706    -0.00000023    -0.00000000  0.24D-09  0.16D-09  4  4    16.77

 Norm of t1 vector:      0.04110161      S-energy:    -0.00568708      T1 diagnostic:  0.00047744
 Norm of t2 vector:      0.42525836      P-energy:    -0.94484799
                                         Alpha-Beta:  -0.66770145
                                         Alpha-Alpha: -0.15824419
                                         Beta-Beta:   -0.11890236

 Spin contamination <S**2-Sz**2-Sz>     0.00000000
  Reference energy                   -142.596831986136
  RHF-RMP2 correlation energy          -0.950535078015
 !RHF-RMP2 energy                    -143.547367064151
 (NB above energy spin projected)

 Starting RCCSD calculation

 ITER.      SQ.NORM     CORR.ENERGY   TOTAL ENERGY   ENERGY CHANGE        DEN1      VAR(S)    VAR(P)  DIIS     TIME
   1      1.16716711    -0.90789073  -143.50472272    -0.90789073    -0.02242521  0.86D-02  0.31D-02  1  1    25.34
   2      1.18329065    -0.92641172  -143.52324371    -0.01852099    -0.00273779  0.61D-03  0.87D-03  2  2    33.71
   3      1.19751108    -0.92928799  -143.52611997    -0.00287626    -0.00100033  0.11D-02  0.10D-03  3  3    41.56
   4      1.21043131    -0.93160804  -143.52844002    -0.00232005    -0.00045285  0.41D-03  0.71D-04  4  4    48.81
   5      1.23480578    -0.93431517  -143.53114716    -0.00270713    -0.00013857  0.11D-03  0.27D-04  5  5    55.58
   6      1.25143861    -0.93547627  -143.53230825    -0.00116110    -0.00004149  0.26D-04  0.11D-04  6  6    63.75
   7      1.26200213    -0.93610987  -143.53294186    -0.00063361    -0.00001137  0.68D-05  0.33D-05  6  1    71.83
   8      1.26462062    -0.93623647  -143.53306845    -0.00012659    -0.00000241  0.13D-05  0.74D-06  6  2    79.37
   9      1.26548082    -0.93625505  -143.53308703    -0.00001858    -0.00000053  0.26D-06  0.18D-06  6  4    86.52
  10      1.26534529    -0.93625294  -143.53308493     0.00000210    -0.00000010  0.64D-07  0.27D-07  6  3    94.28
  11      1.26534516    -0.93624886  -143.53308085     0.00000408    -0.00000004  0.31D-07  0.12D-07  6  4   102.75
  12      1.26533772    -0.93624965  -143.53308163    -0.00000078    -0.00000002  0.14D-07  0.22D-08  6  5   110.50
  13      1.26529720    -0.93624654  -143.53307853     0.00000310    -0.00000001  0.58D-08  0.10D-08  6  2   121.08
  14      1.26530569    -0.93624759  -143.53307958    -0.00000105    -0.00000000  0.28D-08  0.46D-09  6  6   127.87
  15      1.26529181    -0.93624664  -143.53307863     0.00000095    -0.00000000  0.14D-08  0.27D-09  6  3   135.10

 Norm of t1 vector:      0.26199522      S-energy:    -0.00623166      T1 diagnostic:  0.03699283
                                                                       D1 diagnostic:  0.11288201
 Norm of t2 vector:      0.44345272      P-energy:    -0.93001498
                                         Alpha-Beta:  -0.68043181
                                         Alpha-Alpha: -0.13987452
                                         Beta-Beta:   -0.10970865

 Singles amplitudes (print threshold =  0.500E-01):

         I         SYM. A    A   T(IA) [Alpha-Alpha]

         6         1         2     -0.07060478
 
         I         SYM. A    A   T(IA) [Beta-Beta]

         4         1         1     -0.15856364
         8         2         1      0.12945031

 Doubles amplitudes (print threshold =  0.500E-01):

         I         J         SYM. A    SYM. B    A         B      T(IJ, AB) [Beta-Beta]

         8         4         1         2         1         1      0.07570376
         8         4         2         1         1         1     -0.07570376

 Spin contamination <S**2-Sz**2-Sz>     0.00000000

 Memory could be reduced to 164.20 Mwords without degradation in triples
 

  Correlated core orbitals:             1.1       2.1       1.2       1.3
  Orbital energies:                    -4.0725   -2.6602   -2.6091   -2.6108
 
  RCCSD core-core energy               -0.117274613240
  RCCSD core-valence energy            -0.259407175485
  RCCSD valence correlation energy     -0.559564855921
 

 RESULTS
 =======

  Reference energy                   -142.596831986136
  RCCSD singles energy                 -0.006231662670
  RCCSD pair energy                    -0.930014981976
  RCCSD correlation energy             -0.936246644646
  Triples (T) contribution             -0.039340460268
  Total correlation energy             -0.975587104914
 
  RHF-RCCSD energy                   -143.533078630782
  RHF-RCCSD[T] energy                -143.576698249882
  RHF-RCCSD-T energy                 -143.572037812110
 !RHF-RCCSD(T) energy                -143.572419091051

 Program statistics:

 Available memory in ccsd:               511998418
 Min. memory needed in ccsd:              14064756
 Max. memory used in ccsd:                20157915
 Max. memory used in cckext:              15861012 (15 integral passes)
 Max. memory used in cckint:              15004909 ( 1 integral passes)



 **********************************************************************************************************************************
 DATASETS  * FILE   NREC   LENGTH (MB)   RECORD NAMES
              1      19       21.25       500      610      700      900      950      970     1000      129      960     1100   
                                          VAR    BASINP    GEOM    SYMINP    ZMAT    AOBASIS   BASIS     P2S    ABASIS      S 
                                         1400     1410     1420     1200     1210     1080     1600     1650     1700   
                                           T        V       ECP      H0       H01     AOSYM     SMH    MOLCAS    OPER   

              2       4        3.66       700     1000      520     2100   
                                         GEOM     BASIS   MCVARS     RHF  

 PROGRAMS   *        TOTAL  RCCSD(T)       RHF       INT  RCCSD(T)       RHF       INT
 CPU TIMES  *       516.09    216.13      1.77     30.40    234.80      3.38     28.86
 REAL TIME  *       910.66 SEC
 DISK USED  *        17.32 GB      
 SF USED    *         2.74 GB      
 GA USED    *         0.00 MB       (max)       0.00 MB       (current)
 **********************************************************************************************************************************
 SETTING CCSD(2)        =      -143.57241909  AU                              

 DO I                   =         3.00000000   
 SETTING Z(3)           =         1.88500000                                  

Geometry recognized as XYZ



 Recomputing integrals since geometry changed


 PROGRAM * SEWARD (Integral evaluation for generally contracted gaussian basis sets)     Author: Roland Lindh, 1990

 Geometry written to block  1 of record 700


 Point group  C2v 



 ATOMIC COORDINATES

 NR  ATOM    CHARGE       X              Y              Z

   1  PD     18.00    0.000000000    0.000000000    0.000000000
   2  O       6.00    0.000000000    0.000000000    3.562133745

 Bond lengths in Bohr (Angstrom)

 1-2  3.562133745
     ( 1.885000000)

 NUCLEAR CHARGE:                   24
 NUMBER OF PRIMITIVE AOS:         370
 NUMBER OF SYMMETRY AOS:          313
 NUMBER OF CONTRACTIONS:          313   ( 138A1  +  71B1  +  71B2  +  33A2  )
 NUMBER OF CORE ORBITALS:           4   (   2A1  +   1B1  +   1B2  +   0A2  )
 NUMBER OF VALENCE ORBITALS:       10   (   5A1  +   2B1  +   2B2  +   1A2  )


 NUCLEAR REPULSION ENERGY   30.31890651

 EXTRA SYMMETRY OF AOS IN SYMMETRY 1:   1 1 1 1 1 1 1 1 1 1   1 1 1 1 1 1 1 1 1 1   1 1 1 1 1 1 1 1 1 1   1 1 1 1 1 1 1 1 1 1
                                        1 1 1 1 1 1 1 1 1 1   1 1 1 2 1 2 1 2 1 2   1 2 1 2 1 2 1 2 1 2   1 2 1 2 1 2 1 2 1 2
                                        1 2 1 2 1 2 1 2 1 2   1 2 1 2 1 3 2 1 3 2   1 3 2 1 1 1 1 1 1 1   1 1 1 1 1 1 1 1 1 1
                                        1 1 1 1 1 1 1 2 1 2   1 2 1 2 1 2 1 2
 EXTRA SYMMETRY OF AOS IN SYMMETRY 2:   1 1 1 1 1 1 1 1 1 1   1 1 1 1 1 1 1 1 1 1   1 1 1 1 1 1 1 1 1 1   1 1 1 1 1 1 1 1 1 1
                                        1 2 1 2 1 2 1 2 1 2   1 2 1 2 1 1 1 1 1 1   1 1 1 1 1 1 1 1 2 1   2
 EXTRA SYMMETRY OF AOS IN SYMMETRY 3:   1 1 1 1 1 1 1 1 1 1   1 1 1 1 1 1 1 1 1 1   1 1 1 1 1 1 1 1 1 1   1 1 1 1 1 1 1 1 1 1
                                        1 2 1 2 1 2 1 2 1 2   1 2 1 2 1 1 1 1 1 1   1 1 1 1 1 1 1 1 2 1   2
 EXTRA SYMMETRY OF AOS IN SYMMETRY 4:   1 1 1 1 1 1 1 1 1 1   1 1 1 1 1 1 1 1 1 1   1 1 2 1 2 1 2 1 1 1   1 1 1

 Eigenvalues of metric

         1 0.870E-06 0.933E-06 0.188E-05 0.903E-05 0.951E-05 0.119E-04 0.260E-04 0.358E-04
         2 0.953E-06 0.982E-06 0.934E-05 0.298E-03 0.471E-03 0.163E-02 0.217E-02 0.299E-02
         3 0.953E-06 0.982E-06 0.934E-05 0.298E-03 0.471E-03 0.163E-02 0.217E-02 0.299E-02
         4 0.951E-05 0.307E-03 0.302E-02 0.107E-01 0.287E-01 0.528E-01 0.871E-01 0.105E+00


 Contracted 2-electron integrals neglected if value below      1.0D-13
 AO integral compression algorithm  1   Integral accuracy      1.0D-13

     946.340 MB (compressed) written to integral file ( 31.5%)

     Node minimum: 17.039 MB, node maximum: 109.314 MB


 NUMBER OF SORTED TWO-ELECTRON INTEGRALS:   13592913.     BUFFER LENGTH:  32768
 NUMBER OF SEGMENTS:   1  SEGMENT LENGTH:   13592913      RECORD LENGTH: 524288

 Memory used in sort:      14.15 MW

 SORT1 READ   375719576. AND WROTE     5553162. INTEGRALS IN     16 RECORDS. CPU TIME:     7.89 SEC, REAL TIME:     9.44 SEC
 SORT2 READ   127330145. AND WROTE   312994044. INTEGRALS IN   2944 RECORDS. CPU TIME:     1.02 SEC, REAL TIME:     1.35 SEC

 Node minimum:    13561530.  Node maximum:    13694643. integrals

 OPERATOR DM      FOR CENTER  0  COORDINATES:    0.000000    0.000000    0.000000


 **********************************************************************************************************************************
 DATASETS  * FILE   NREC   LENGTH (MB)   RECORD NAMES
              1      19       21.20       500      610      700      900      950      970     1000      129      960     1100   
                                          VAR    BASINP    GEOM    SYMINP    ZMAT    AOBASIS   BASIS     P2S    ABASIS      S 
                                         1400     1410     1420     1200     1210     1080     1600     1650     1700   
                                           T        V       ECP      H0       H01     AOSYM     SMH    MOLCAS    OPER   

              2       4        3.66       700     1000      520     2100   
                                         GEOM     BASIS   MCVARS     RHF  

 PROGRAMS   *        TOTAL       INT  RCCSD(T)       RHF       INT  RCCSD(T)       RHF       INT
 CPU TIMES  *       543.70     27.60    216.13      1.77     30.40    234.80      3.38     28.86
 REAL TIME  *       940.57 SEC
 DISK USED  *        17.35 GB      
 SF USED    *         2.74 GB      
 GA USED    *         0.00 MB       (max)       0.00 MB       (current)
 **********************************************************************************************************************************


 PROGRAM * RHF-SCF (OPEN SHELL)       Authors: W. Meyer, H.-J. Werner


 NUMBER OF ELECTRONS:      13+   11-    SPACE SYMMETRY=2    SPIN SYMMETRY: Triplet 
 CONVERGENCE THRESHOLDS:    1.00E-05 (Density)    1.00E-07 (Energy)
 MAX. NUMBER OF ITERATIONS:       60
 INTERPOLATION TYPE:            DIIS
 INTERPOLATION STEPS:              2 (START)      1 (STEP)
 LEVEL SHIFTS:                 -0.60 (CLOSED) -0.30 (OPEN) 

 Number of closed-shell orbitals:   11 (   5   2   3   1 )
 Number of open-shell orbitals:      2 (   1   1   0   0 )


 Molecular orbitals read from record     2100.2  Type=RHF/CANONICAL (state 1.2)

 Molecular orbital dump at record        2100.2

 ITERATION    DDIFF          GRAD             ENERGY        2-EL.EN.            DIPOLE MOMENTS         DIIS   ORB.
    1      0.000D+00      0.000D+00      -142.59366373    281.089974    0.00000    0.00000   -2.20872    0    start
    2      0.000D+00      0.217D-02      -142.59413818    281.039393    0.00000    0.00000   -2.20479    1    diag,B
    3      0.440D-03      0.165D-03      -142.59423332    281.052277    0.00000    0.00000   -2.19924    2    diag,B
    4      0.164D-03      0.877D-04      -142.59428862    281.036679    0.00000    0.00000   -2.19524    3    diag,B
    5      0.105D-03      0.522D-04      -142.59431684    281.041294    0.00000    0.00000   -2.19093    4    diag,B
    6      0.734D-04      0.316D-04      -142.59433333    281.038693    0.00000    0.00000   -2.18644    5    diag,B
    7      0.673D-04      0.142D-04      -142.59433689    281.039553    0.00000    0.00000   -2.18428    6    diag,B
    8      0.319D-04      0.607D-05      -142.59433744    281.039422    0.00000    0.00000   -2.18371    7    orth
    9      0.133D-04      0.311D-05      -142.59433759    281.039424    0.00000    0.00000   -2.18356    8    diag,B
   10      0.810D-05      0.191D-05      -142.59433766    281.039188    0.00000    0.00000   -2.18357    9    diag,B
   11      0.378D-05      0.126D-05      -142.59433769    281.039016    0.00000    0.00000   -2.18364    0    orth

 Final alpha occupancy:   6   3   3   1
 Final beta  occupancy:   5   2   3   1

 !RHF STATE 1.2 Energy               -142.594337688009
 Nuclear energy                        30.31890651
 One-electron energy                 -313.43275206
 Two-electron energy                  140.51950786
 Virial quotient                       -2.35967056
 !RHF STATE 1.2 Dipole moment           0.00000000     0.00000000    -2.18364331
 Dipole moment /Debye                   0.00000000     0.00000000    -5.54990417

 Orbital energies:

         1.1          2.1          3.1          4.1          5.1          6.1          7.1          8.1
     -4.038988    -2.590021    -1.161160    -0.479107    -0.451190    -0.428878    -0.011504     0.032841

         1.2          2.2          3.2          4.2          5.2
     -2.585083    -0.482932    -0.516397     0.022447     0.078923

         1.3          2.3          3.3          4.3          5.3
     -2.584800    -0.514244    -0.385278     0.023403     0.080399

         1.4          2.4          3.4
     -0.451384     0.094367     0.315813

 HOMO      3.3    -0.385278 =     -10.4840eV
 LUMO      7.1    -0.011504 =      -0.3130eV
 LUMO-HOMO         0.373774 =      10.1709eV


 **********************************************************************************************************************************
 DATASETS  * FILE   NREC   LENGTH (MB)   RECORD NAMES
              1      19       21.25       500      610      700      900      950      970     1000      129      960     1100   
                                          VAR    BASINP    GEOM    SYMINP    ZMAT    AOBASIS   BASIS     P2S    ABASIS      S 
                                         1400     1410     1420     1200     1210     1080     1600     1650     1700   
                                           T        V       ECP      H0       H01     AOSYM     SMH    MOLCAS    OPER   

              2       4        3.66       700     1000      520     2100   
                                         GEOM     BASIS   MCVARS     RHF  

 PROGRAMS   *        TOTAL       RHF       INT  RCCSD(T)       RHF       INT  RCCSD(T)       RHF       INT
 CPU TIMES  *       545.07      1.37     27.60    216.13      1.77     30.40    234.80      3.38     28.86
 REAL TIME  *       942.16 SEC
 DISK USED  *        17.35 GB      
 SF USED    *         2.74 GB      
 GA USED    *         0.00 MB       (max)       0.00 MB       (current)
 **********************************************************************************************************************************
 SETTING SCF(3)         =      -142.59433769  AU                              
 SETTING _CC_NORM_MAX   =         2.00000000                                  


 PROGRAM * CCSD (Restricted open-shell coupled cluster)     Authors: C. Hampel, H.-J. Werner, 1991, M. Deegan, P.J. Knowles, 1992


 Convergence thresholds:  THRVAR = 1.00D-08  THRDEN = 1.00D-06

 CCSD(T)     terms to be evaluated (factor= 1.000)


 Number of closed-shell orbitals:  11 (   5   2   3   1 )
 Number of active  orbitals:        2 (   1   1   0   0 )
 Number of external orbitals:     300 ( 132  68  68  32 )

 Memory could be reduced to 163.04 Mwords without degradation in triples

 Number of N-1 electron functions:              24
 Number of N-2 electron functions:             276
 Number of singly external CSFs:              2280
 Number of doubly external CSFs:           4894910
 Total number of CSFs:                     4897190

 Molecular orbitals read from record     2100.2  Type=RHF/CANONICAL (state 1.2)

 Integral transformation finished. Total CPU:   6.06 sec, npass=  1  Memory used:  15.00 MW

 Starting RMP2 calculation

 Wavefunction is spin-projected

 ITER.      SQ.NORM     CORR.ENERGY   TOTAL ENERGY   ENERGY CHANGE        DEN1      VAR(S)    VAR(P)  DIIS     TIME
   1      1.18247597    -0.95335744  -143.54769513    -0.95335744    -0.00162518  0.11D-04  0.57D-03  1  1     7.93
   2      1.18387943    -0.95508491  -143.54942260    -0.00172747    -0.00000565  0.29D-06  0.30D-05  2  2    10.07
   3      1.18395926    -0.95513457  -143.54947226    -0.00004966    -0.00000004  0.11D-07  0.19D-07  3  3    11.42
   4      1.18396147    -0.95513486  -143.54947255    -0.00000029    -0.00000000  0.27D-09  0.18D-09  4  4    12.54

 Norm of t1 vector:      0.04137586      S-energy:    -0.00563435      T1 diagnostic:  0.00051879
 Norm of t2 vector:      0.42690691      P-energy:    -0.94950051
                                         Alpha-Beta:  -0.67013950
                                         Alpha-Alpha: -0.15907653
                                         Beta-Beta:   -0.12028448

 Spin contamination <S**2-Sz**2-Sz>     0.00000000
  Reference energy                   -142.594337688009
  RHF-RMP2 correlation energy          -0.955134859678
 !RHF-RMP2 energy                    -143.549472547687
 (NB above energy spin projected)

 Starting RCCSD calculation

 ITER.      SQ.NORM     CORR.ENERGY   TOTAL ENERGY   ENERGY CHANGE        DEN1      VAR(S)    VAR(P)  DIIS     TIME
   1      1.16785466    -0.91045126  -143.50478895    -0.91045126    -0.02321247  0.90D-02  0.32D-02  1  1    20.22
   2      1.18447349    -0.92946698  -143.52380467    -0.01901572    -0.00286478  0.68D-03  0.90D-03  2  2    33.37
   3      1.19958401    -0.93245880  -143.52679649    -0.00299182    -0.00107856  0.11D-02  0.11D-03  3  3    40.52
   4      1.21386268    -0.93494922  -143.52928690    -0.00249041    -0.00050025  0.45D-03  0.78D-04  4  4    84.52
   5      1.24219214    -0.93801189  -143.53234958    -0.00306268    -0.00015099  0.12D-03  0.28D-04  5  5    91.81
   6      1.26142623    -0.93931706  -143.53365475    -0.00130516    -0.00004351  0.27D-04  0.11D-04  6  6    99.00
   7      1.27308577    -0.94000329  -143.53434098    -0.00068623    -0.00001132  0.70D-05  0.31D-05  6  1   106.49
   8      1.27566505    -0.94012293  -143.53446062    -0.00011964    -0.00000227  0.13D-05  0.66D-06  6  2   113.94
   9      1.27649514    -0.94014023  -143.53447792    -0.00001730    -0.00000048  0.26D-06  0.15D-06  6  4   121.56
  10      1.27634214    -0.94013685  -143.53447453     0.00000339    -0.00000010  0.71D-07  0.22D-07  6  3   128.91
  11      1.27637293    -0.94013447  -143.53447216     0.00000237    -0.00000005  0.36D-07  0.11D-07  6  4   135.96
  12      1.27634473    -0.94013337  -143.53447105     0.00000111    -0.00000002  0.17D-07  0.22D-08  6  2   143.82
  13      1.27632680    -0.94013123  -143.53446892     0.00000214    -0.00000001  0.65D-08  0.12D-08  6  5   150.79
  14      1.27635557    -0.94013394  -143.53447163    -0.00000271    -0.00000000  0.31D-08  0.47D-09  6  6   158.01
  15      1.27635994    -0.94013397  -143.53447166    -0.00000003    -0.00000000  0.14D-08  0.20D-09  6  1   165.48

 Norm of t1 vector:      0.27533498      S-energy:    -0.00617150      T1 diagnostic:  0.03893880
                                                                       D1 diagnostic:  0.11168388
 Norm of t2 vector:      0.44782874      P-energy:    -0.93396247
                                         Alpha-Beta:  -0.68216364
                                         Alpha-Alpha: -0.14031689
                                         Beta-Beta:   -0.11148194

 Singles amplitudes (print threshold =  0.500E-01):

         I         SYM. A    A   T(IA) [Alpha-Alpha]

         6         1         2     -0.07578633
 
         I         SYM. A    A   T(IA) [Beta-Beta]

         4         1         1     -0.15767591
         8         2         1      0.15003981

 Doubles amplitudes (print threshold =  0.500E-01):

         I         J         SYM. A    SYM. B    A         B      T(IJ, AB) [Beta-Beta]

         8         4         1         2         1         1      0.08207757
         8         4         2         1         1         1     -0.08207757

 Spin contamination <S**2-Sz**2-Sz>     0.00000000

 Memory could be reduced to 164.20 Mwords without degradation in triples
 

  Correlated core orbitals:             1.1       2.1       1.2       1.3
  Orbital energies:                    -4.0695   -2.6570   -2.6059   -2.6073
 
  RCCSD core-core energy               -0.117137891123
  RCCSD core-valence energy            -0.259729518381
  RCCSD valence correlation energy     -0.563266561228
 

 RESULTS
 =======

  Reference energy                   -142.594337688009
  RCCSD singles energy                 -0.006171499388
  RCCSD pair energy                    -0.933962471344
  RCCSD correlation energy             -0.940133970732
  Triples (T) contribution             -0.040123597732
  Total correlation energy             -0.980257568464
 
  RHF-RCCSD energy                   -143.534471658741
  RHF-RCCSD[T] energy                -143.579198180214
  RHF-RCCSD-T energy                 -143.574276838748
 !RHF-RCCSD(T) energy                -143.574595256473

 Program statistics:

 Available memory in ccsd:               511998418
 Min. memory needed in ccsd:              14064756
 Max. memory used in ccsd:                20157915
 Max. memory used in cckext:              15861012 (15 integral passes)
 Max. memory used in cckint:              15004909 ( 1 integral passes)



 **********************************************************************************************************************************
 DATASETS  * FILE   NREC   LENGTH (MB)   RECORD NAMES
              1      19       21.25       500      610      700      900      950      970     1000      129      960     1100   
                                          VAR    BASINP    GEOM    SYMINP    ZMAT    AOBASIS   BASIS     P2S    ABASIS      S 
                                         1400     1410     1420     1200     1210     1080     1600     1650     1700   
                                           T        V       ECP      H0       H01     AOSYM     SMH    MOLCAS    OPER   

              2       4        3.66       700     1000      520     2100   
                                         GEOM     BASIS   MCVARS     RHF  

 PROGRAMS   *        TOTAL  RCCSD(T)       RHF       INT  RCCSD(T)       RHF       INT  RCCSD(T)       RHF       INT
 CPU TIMES  *       793.15    247.96      1.37     27.60    216.13      1.77     30.40    234.80      3.38     28.86
 REAL TIME  *      1454.45 SEC
 DISK USED  *        17.35 GB      
 SF USED    *         2.74 GB      
 GA USED    *         0.00 MB       (max)       0.00 MB       (current)
 **********************************************************************************************************************************
 SETTING CCSD(3)        =      -143.57459526  AU                              

 DO I                   =         4.00000000   
 SETTING Z(4)           =         1.83500000                                  

Geometry recognized as XYZ



 Recomputing integrals since geometry changed


 PROGRAM * SEWARD (Integral evaluation for generally contracted gaussian basis sets)     Author: Roland Lindh, 1990

 Geometry written to block  1 of record 700


 Point group  C2v 



 ATOMIC COORDINATES

 NR  ATOM    CHARGE       X              Y              Z

   1  PD     18.00    0.000000000    0.000000000    0.000000000
   2  O       6.00    0.000000000    0.000000000    3.467647439

 Bond lengths in Bohr (Angstrom)

 1-2  3.467647439
     ( 1.835000000)

 NUCLEAR CHARGE:                   24
 NUMBER OF PRIMITIVE AOS:         370
 NUMBER OF SYMMETRY AOS:          313
 NUMBER OF CONTRACTIONS:          313   ( 138A1  +  71B1  +  71B2  +  33A2  )
 NUMBER OF CORE ORBITALS:           4   (   2A1  +   1B1  +   1B2  +   0A2  )
 NUMBER OF VALENCE ORBITALS:       10   (   5A1  +   2B1  +   2B2  +   1A2  )


 NUCLEAR REPULSION ENERGY   31.14503476

 EXTRA SYMMETRY OF AOS IN SYMMETRY 1:   1 1 1 1 1 1 1 1 1 1   1 1 1 1 1 1 1 1 1 1   1 1 1 1 1 1 1 1 1 1   1 1 1 1 1 1 1 1 1 1
                                        1 1 1 1 1 1 1 1 1 1   1 1 1 2 1 2 1 2 1 2   1 2 1 2 1 2 1 2 1 2   1 2 1 2 1 2 1 2 1 2
                                        1 2 1 2 1 2 1 2 1 2   1 2 1 2 1 3 2 1 3 2   1 3 2 1 1 1 1 1 1 1   1 1 1 1 1 1 1 1 1 1
                                        1 1 1 1 1 1 1 2 1 2   1 2 1 2 1 2 1 2
 EXTRA SYMMETRY OF AOS IN SYMMETRY 2:   1 1 1 1 1 1 1 1 1 1   1 1 1 1 1 1 1 1 1 1   1 1 1 1 1 1 1 1 1 1   1 1 1 1 1 1 1 1 1 1
                                        1 2 1 2 1 2 1 2 1 2   1 2 1 2 1 1 1 1 1 1   1 1 1 1 1 1 1 1 2 1   2
 EXTRA SYMMETRY OF AOS IN SYMMETRY 3:   1 1 1 1 1 1 1 1 1 1   1 1 1 1 1 1 1 1 1 1   1 1 1 1 1 1 1 1 1 1   1 1 1 1 1 1 1 1 1 1
                                        1 2 1 2 1 2 1 2 1 2   1 2 1 2 1 1 1 1 1 1   1 1 1 1 1 1 1 1 2 1   2
 EXTRA SYMMETRY OF AOS IN SYMMETRY 4:   1 1 1 1 1 1 1 1 1 1   1 1 1 1 1 1 1 1 1 1   1 1 2 1 2 1 2 1 1 1   1 1 1

 Eigenvalues of metric

         1 0.859E-06 0.925E-06 0.187E-05 0.900E-05 0.951E-05 0.116E-04 0.257E-04 0.353E-04
         2 0.952E-06 0.981E-06 0.933E-05 0.297E-03 0.471E-03 0.162E-02 0.217E-02 0.298E-02
         3 0.952E-06 0.981E-06 0.933E-05 0.297E-03 0.471E-03 0.162E-02 0.217E-02 0.298E-02
         4 0.951E-05 0.307E-03 0.302E-02 0.107E-01 0.287E-01 0.528E-01 0.865E-01 0.105E+00


 Contracted 2-electron integrals neglected if value below      1.0D-13
 AO integral compression algorithm  1   Integral accuracy      1.0D-13

     956.826 MB (compressed) written to integral file ( 31.9%)

     Node minimum: 14.942 MB, node maximum: 109.314 MB


 NUMBER OF SORTED TWO-ELECTRON INTEGRALS:   13592913.     BUFFER LENGTH:  32768
 NUMBER OF SEGMENTS:   1  SEGMENT LENGTH:   13592913      RECORD LENGTH: 524288

 Memory used in sort:      14.15 MW

 SORT1 READ   375719576. AND WROTE     5623353. INTEGRALS IN     17 RECORDS. CPU TIME:    11.17 SEC, REAL TIME:    12.81 SEC
 SORT2 READ   128932594. AND WROTE   312994044. INTEGRALS IN   5336 RECORDS. CPU TIME:     0.44 SEC, REAL TIME:     1.00 SEC

 Node minimum:    13561530.  Node maximum:    13694643. integrals

 OPERATOR DM      FOR CENTER  0  COORDINATES:    0.000000    0.000000    0.000000


 **********************************************************************************************************************************
 DATASETS  * FILE   NREC   LENGTH (MB)   RECORD NAMES
              1      19       21.20       500      610      700      900      950      970     1000      129      960     1100   
                                          VAR    BASINP    GEOM    SYMINP    ZMAT    AOBASIS   BASIS     P2S    ABASIS      S 
                                         1400     1410     1420     1200     1210     1080     1600     1650     1700   
                                           T        V       ECP      H0       H01     AOSYM     SMH    MOLCAS    OPER   

              2       4        3.66       700     1000      520     2100   
                                         GEOM     BASIS   MCVARS     RHF  

 PROGRAMS   *        TOTAL       INT  RCCSD(T)       RHF       INT  RCCSD(T)       RHF       INT  RCCSD(T)       RHF       INT
 CPU TIMES  *       824.82     31.66    247.96      1.37     27.60    216.13      1.77     30.40    234.80      3.38     28.86
 REAL TIME  *      1488.80 SEC
 DISK USED  *        17.51 GB      
 SF USED    *         2.74 GB      
 GA USED    *         0.00 MB       (max)       0.00 MB       (current)
 **********************************************************************************************************************************


 PROGRAM * RHF-SCF (OPEN SHELL)       Authors: W. Meyer, H.-J. Werner


 NUMBER OF ELECTRONS:      13+   11-    SPACE SYMMETRY=2    SPIN SYMMETRY: Triplet 
 CONVERGENCE THRESHOLDS:    1.00E-05 (Density)    1.00E-07 (Energy)
 MAX. NUMBER OF ITERATIONS:       60
 INTERPOLATION TYPE:            DIIS
 INTERPOLATION STEPS:              2 (START)      1 (STEP)
 LEVEL SHIFTS:                 -0.60 (CLOSED) -0.30 (OPEN) 

 Number of closed-shell orbitals:   11 (   5   2   3   1 )
 Number of open-shell orbitals:      2 (   1   1   0   0 )


 Molecular orbitals read from record     2100.2  Type=RHF/CANONICAL (state 1.2)

 Molecular orbital dump at record        2100.2

 ITERATION    DDIFF          GRAD             ENERGY        2-EL.EN.            DIPOLE MOMENTS         DIIS   ORB.
    1      0.000D+00      0.000D+00      -142.58893579    282.704596    0.00000    0.00000   -2.11342    0    start
    2      0.000D+00      0.238D-02      -142.58951612    282.648218    0.00000    0.00000   -2.11115    1    diag,B
    3      0.559D-03      0.184D-03      -142.58963645    282.660180    0.00000    0.00000   -2.10506    2    diag,B
    4      0.174D-03      0.982D-04      -142.58970774    282.640810    0.00000    0.00000   -2.10090    3    diag,B
    5      0.114D-03      0.595D-04      -142.58974535    282.644285    0.00000    0.00000   -2.09591    4    diag,B
    6      0.844D-04      0.365D-04      -142.58976866    282.639247    0.00000    0.00000   -2.09037    5    diag,B
    7      0.821D-04      0.169D-04      -142.58977405    282.639247    0.00000    0.00000   -2.08757    6    diag,B
    8      0.399D-04      0.777D-05      -142.58977504    282.638628    0.00000    0.00000   -2.08667    7    orth
    9      0.166D-04      0.422D-05      -142.58977535    282.638426    0.00000    0.00000   -2.08637    8    diag,B
   10      0.114D-04      0.248D-05      -142.58977547    282.637986    0.00000    0.00000   -2.08634    9    diag,B
   11      0.550D-05      0.148D-05      -142.58977551    282.637693    0.00000    0.00000   -2.08636    9    diag,B
   12      0.338D-05      0.101D-05      -142.58977553    282.637533    0.00000    0.00000   -2.08642    0    orth

 Final alpha occupancy:   6   3   3   1
 Final beta  occupancy:   5   2   3   1

 !RHF STATE 1.2 Energy               -142.589775534284
 Nuclear energy                        31.14503476
 One-electron energy                 -315.05357701
 Two-electron energy                  141.31876672
 Virial quotient                       -2.35808492
 !RHF STATE 1.2 Dipole moment           0.00000000     0.00000000    -2.08641536
 Dipole moment /Debye                   0.00000000     0.00000000    -5.30279155

 Orbital energies:

         1.1          2.1          3.1          4.1          5.1          6.1          7.1          8.1
     -4.037295    -2.589797    -1.171396    -0.491222    -0.448762    -0.414396    -0.009393     0.033319

         1.2          2.2          3.2          4.2          5.2
     -2.582837    -0.483971    -0.518094     0.022790     0.079617

         1.3          2.3          3.3          4.3          5.3
     -2.582480    -0.521769    -0.383269     0.023760     0.081177

         1.4          2.4          3.4
     -0.448939     0.094791     0.316796

 HOMO      3.3    -0.383269 =     -10.4293eV
 LUMO      7.1    -0.009393 =      -0.2556eV
 LUMO-HOMO         0.373876 =      10.1737eV


 **********************************************************************************************************************************
 DATASETS  * FILE   NREC   LENGTH (MB)   RECORD NAMES
              1      19       21.25       500      610      700      900      950      970     1000      129      960     1100   
                                          VAR    BASINP    GEOM    SYMINP    ZMAT    AOBASIS   BASIS     P2S    ABASIS      S 
                                         1400     1410     1420     1200     1210     1080     1600     1650     1700   
                                           T        V       ECP      H0       H01     AOSYM     SMH    MOLCAS    OPER   

              2       4        3.66       700     1000      520     2100   
                                         GEOM     BASIS   MCVARS     RHF  

 PROGRAMS   *        TOTAL       RHF       INT  RCCSD(T)       RHF       INT  RCCSD(T)       RHF       INT  RCCSD(T)       RHF
 CPU TIMES  *       826.30      1.48     31.66    247.96      1.37     27.60    216.13      1.77     30.40    234.80      3.38
 REAL TIME  *      1490.50 SEC
 DISK USED  *        17.51 GB      
 SF USED    *         2.74 GB      
 GA USED    *         0.00 MB       (max)       0.00 MB       (current)
 **********************************************************************************************************************************
 SETTING SCF(4)         =      -142.58977553  AU                              
 SETTING _CC_NORM_MAX   =         2.00000000                                  


 PROGRAM * CCSD (Restricted open-shell coupled cluster)     Authors: C. Hampel, H.-J. Werner, 1991, M. Deegan, P.J. Knowles, 1992


 Convergence thresholds:  THRVAR = 1.00D-08  THRDEN = 1.00D-06

 CCSD(T)     terms to be evaluated (factor= 1.000)


 Number of closed-shell orbitals:  11 (   5   2   3   1 )
 Number of active  orbitals:        2 (   1   1   0   0 )
 Number of external orbitals:     300 ( 132  68  68  32 )

 Memory could be reduced to 163.04 Mwords without degradation in triples

 Number of N-1 electron functions:              24
 Number of N-2 electron functions:             276
 Number of singly external CSFs:              2280
 Number of doubly external CSFs:           4894910
 Total number of CSFs:                     4897190

 Molecular orbitals read from record     2100.2  Type=RHF/CANONICAL (state 1.2)

 Integral transformation finished. Total CPU:   6.34 sec, npass=  1  Memory used:  15.00 MW

 Starting RMP2 calculation

 Wavefunction is spin-projected

 ITER.      SQ.NORM     CORR.ENERGY   TOTAL ENERGY   ENERGY CHANGE        DEN1      VAR(S)    VAR(P)  DIIS     TIME
   1      1.18434633    -0.95887144  -143.54864697    -0.95887144    -0.00164871  0.13D-04  0.58D-03  1  1     9.38
   2      1.18577803    -0.96062477  -143.55040031    -0.00175334    -0.00000602  0.36D-06  0.32D-05  2  2    11.61
   3      1.18586120    -0.96067609  -143.55045162    -0.00005132    -0.00000005  0.13D-07  0.21D-07  3  3    14.71
   4      1.18586369    -0.96067648  -143.55045201    -0.00000039    -0.00000000  0.33D-09  0.22D-09  4  4    16.20

 Norm of t1 vector:      0.04177620      S-energy:    -0.00557311      T1 diagnostic:  0.00056882
 Norm of t2 vector:      0.42909024      P-energy:    -0.95510336
                                         Alpha-Beta:  -0.67311932
                                         Alpha-Alpha: -0.16005423
                                         Beta-Beta:   -0.12192981

 Spin contamination <S**2-Sz**2-Sz>     0.00000000
  Reference energy                   -142.589775534284
  RHF-RMP2 correlation energy          -0.960676475090
 !RHF-RMP2 energy                    -143.550452009374
 (NB above energy spin projected)

 Starting RCCSD calculation

 ITER.      SQ.NORM     CORR.ENERGY   TOTAL ENERGY   ENERGY CHANGE        DEN1      VAR(S)    VAR(P)  DIIS     TIME
   1      1.16884948    -0.91350935  -143.50328488    -0.91350935    -0.02419454  0.95D-02  0.33D-02  1  1    25.59
   2      1.18613950    -0.93314301  -143.52291854    -0.01963366    -0.00302797  0.77D-03  0.93D-03  2  2    33.80
   3      1.20244777    -0.93628803  -143.52606357    -0.00314503    -0.00117950  0.12D-02  0.11D-03  3  3    41.64
   4      1.21854036    -0.93900234  -143.52877787    -0.00271431    -0.00055864  0.50D-03  0.84D-04  4  4    49.45
   5      1.25210814    -0.94252512  -143.53230065    -0.00352278    -0.00016335  0.13D-03  0.29D-04  5  5    57.97
   6      1.27423874    -0.94398237  -143.53375791    -0.00145725    -0.00004441  0.28D-04  0.11D-04  6  6    65.41
   7      1.28671119    -0.94470513  -143.53448066    -0.00072276    -0.00001093  0.71D-05  0.28D-05  6  1    87.06
   8      1.28914400    -0.94481393  -143.53458946    -0.00010880    -0.00000211  0.12D-05  0.58D-06  6  2    94.79
   9      1.28996007    -0.94483153  -143.53460706    -0.00001760    -0.00000044  0.27D-06  0.12D-06  6  4   115.99
  10      1.28980838    -0.94482788  -143.53460342     0.00000364    -0.00000010  0.78D-07  0.21D-07  6  3   123.42
  11      1.28987805    -0.94482730  -143.53460284     0.00000058    -0.00000005  0.40D-07  0.10D-07  6  4   154.45
  12      1.28988714    -0.94482866  -143.53460420    -0.00000136    -0.00000002  0.17D-07  0.28D-08  6  5   165.18
  13      1.28988993    -0.94482746  -143.53460299     0.00000120    -0.00000001  0.80D-08  0.13D-08  6  6   174.05
  14      1.28991646    -0.94482911  -143.53460465    -0.00000165    -0.00000000  0.29D-08  0.41D-09  6  1   183.41
  15      1.28990412    -0.94482762  -143.53460315     0.00000150    -0.00000000  0.14D-08  0.18D-09  6  2   191.24
  16      1.28989806    -0.94482721  -143.53460275     0.00000040    -0.00000000  0.67D-09  0.97D-10  6  3   209.33

 Norm of t1 vector:      0.29110130      S-energy:    -0.00610843      T1 diagnostic:  0.04123233
                                                                       D1 diagnostic:  0.12186643
 Norm of t2 vector:      0.45294381      P-energy:    -0.93871878
                                         Alpha-Beta:  -0.68433111
                                         Alpha-Alpha: -0.14080614
                                         Beta-Beta:   -0.11358153

 Singles amplitudes (print threshold =  0.500E-01):

         I         SYM. A    A   T(IA) [Alpha-Alpha]

         6         1         2     -0.08068047
 
         I         SYM. A    A   T(IA) [Beta-Beta]

         4         1         1     -0.15575006
         8         2         1      0.17234480

 Doubles amplitudes (print threshold =  0.500E-01):

         I         J         SYM. A    SYM. B    A         B      T(IJ, AB) [Beta-Beta]

         8         4         1         2         1         1      0.08748863
         8         4         2         1         1         1     -0.08748863

 Spin contamination <S**2-Sz**2-Sz>     0.00000000

 Memory could be reduced to 164.20 Mwords without degradation in triples
 

  Correlated core orbitals:             1.1       2.1       1.2       1.3
  Orbital energies:                    -4.0671   -2.6546   -2.6033   -2.6043
 
  RCCSD core-core energy               -0.116978223000
  RCCSD core-valence energy            -0.260087210472
  RCCSD valence correlation energy     -0.567761777797
 

 RESULTS
 =======

  Reference energy                   -142.589775534284
  RCCSD singles energy                 -0.006108430925
  RCCSD pair energy                    -0.938718780345
  RCCSD correlation energy             -0.944827211270
  Triples (T) contribution             -0.041025471105
  Total correlation energy             -0.985852682375
 
  RHF-RCCSD energy                   -143.534602745554
  RHF-RCCSD[T] energy                -143.580630939480
  RHF-RCCSD-T energy                 -143.575389718489
 !RHF-RCCSD(T) energy                -143.575628216659

 Program statistics:

 Available memory in ccsd:               511998418
 Min. memory needed in ccsd:              14064756
 Max. memory used in ccsd:                20157915
 Max. memory used in cckext:              15861012 (16 integral passes)
 Max. memory used in cckint:              15004909 ( 1 integral passes)



 **********************************************************************************************************************************
 DATASETS  * FILE   NREC   LENGTH (MB)   RECORD NAMES
              1      19       21.25       500      610      700      900      950      970     1000      129      960     1100   
                                          VAR    BASINP    GEOM    SYMINP    ZMAT    AOBASIS   BASIS     P2S    ABASIS      S 
                                         1400     1410     1420     1200     1210     1080     1600     1650     1700   
                                           T        V       ECP      H0       H01     AOSYM     SMH    MOLCAS    OPER   

              2       4        3.66       700     1000      520     2100   
                                         GEOM     BASIS   MCVARS     RHF  

 PROGRAMS   *        TOTAL  RCCSD(T)       RHF       INT  RCCSD(T)       RHF       INT  RCCSD(T)       RHF       INT  RCCSD(T)
 CPU TIMES  *      1118.24    291.89      1.48     31.66    247.96      1.37     27.60    216.13      1.77     30.40    234.80
 REAL TIME  *      2256.57 SEC
 DISK USED  *        17.51 GB      
 SF USED    *         2.74 GB      
 GA USED    *         0.00 MB       (max)       0.00 MB       (current)
 **********************************************************************************************************************************
 SETTING CCSD(4)        =      -143.57562822  AU                              

 DO I                   =         5.00000000   
 SETTING Z(5)           =         1.78500000                                  

Geometry recognized as XYZ



 Recomputing integrals since geometry changed


 PROGRAM * SEWARD (Integral evaluation for generally contracted gaussian basis sets)     Author: Roland Lindh, 1990

 Geometry written to block  1 of record 700


 Point group  C2v 



 ATOMIC COORDINATES

 NR  ATOM    CHARGE       X              Y              Z

   1  PD     18.00    0.000000000    0.000000000    0.000000000
   2  O       6.00    0.000000000    0.000000000    3.373161132

 Bond lengths in Bohr (Angstrom)

 1-2  3.373161132
     ( 1.785000000)

 NUCLEAR CHARGE:                   24
 NUMBER OF PRIMITIVE AOS:         370
 NUMBER OF SYMMETRY AOS:          313
 NUMBER OF CONTRACTIONS:          313   ( 138A1  +  71B1  +  71B2  +  33A2  )
 NUMBER OF CORE ORBITALS:           4   (   2A1  +   1B1  +   1B2  +   0A2  )
 NUMBER OF VALENCE ORBITALS:       10   (   5A1  +   2B1  +   2B2  +   1A2  )


 NUCLEAR REPULSION ENERGY   32.01744469

 EXTRA SYMMETRY OF AOS IN SYMMETRY 1:   1 1 1 1 1 1 1 1 1 1   1 1 1 1 1 1 1 1 1 1   1 1 1 1 1 1 1 1 1 1   1 1 1 1 1 1 1 1 1 1
                                        1 1 1 1 1 1 1 1 1 1   1 1 1 2 1 2 1 2 1 2   1 2 1 2 1 2 1 2 1 2   1 2 1 2 1 2 1 2 1 2
                                        1 2 1 2 1 2 1 2 1 2   1 2 1 2 1 3 2 1 3 2   1 3 2 1 1 1 1 1 1 1   1 1 1 1 1 1 1 1 1 1
                                        1 1 1 1 1 1 1 2 1 2   1 2 1 2 1 2 1 2
 EXTRA SYMMETRY OF AOS IN SYMMETRY 2:   1 1 1 1 1 1 1 1 1 1   1 1 1 1 1 1 1 1 1 1   1 1 1 1 1 1 1 1 1 1   1 1 1 1 1 1 1 1 1 1
                                        1 2 1 2 1 2 1 2 1 2   1 2 1 2 1 1 1 1 1 1   1 1 1 1 1 1 1 1 2 1   2
 EXTRA SYMMETRY OF AOS IN SYMMETRY 3:   1 1 1 1 1 1 1 1 1 1   1 1 1 1 1 1 1 1 1 1   1 1 1 1 1 1 1 1 1 1   1 1 1 1 1 1 1 1 1 1
                                        1 2 1 2 1 2 1 2 1 2   1 2 1 2 1 1 1 1 1 1   1 1 1 1 1 1 1 1 2 1   2
 EXTRA SYMMETRY OF AOS IN SYMMETRY 4:   1 1 1 1 1 1 1 1 1 1   1 1 1 1 1 1 1 1 1 1   1 1 2 1 2 1 2 1 1 1   1 1 1

 Eigenvalues of metric

         1 0.849E-06 0.916E-06 0.186E-05 0.895E-05 0.951E-05 0.113E-04 0.253E-04 0.348E-04
         2 0.951E-06 0.981E-06 0.932E-05 0.296E-03 0.471E-03 0.162E-02 0.216E-02 0.297E-02
         3 0.951E-06 0.981E-06 0.932E-05 0.296E-03 0.471E-03 0.162E-02 0.216E-02 0.297E-02
         4 0.951E-05 0.307E-03 0.302E-02 0.107E-01 0.287E-01 0.527E-01 0.859E-01 0.104E+00


 Contracted 2-electron integrals neglected if value below      1.0D-13
 AO integral compression algorithm  1   Integral accuracy      1.0D-13

     968.884 MB (compressed) written to integral file ( 32.2%)

     Node minimum: 17.564 MB, node maximum: 109.314 MB


 NUMBER OF SORTED TWO-ELECTRON INTEGRALS:   13592913.     BUFFER LENGTH:  32768
 NUMBER OF SEGMENTS:   1  SEGMENT LENGTH:   13592913      RECORD LENGTH: 524288

[...]
                                         1400     1410     1420     1200     1210     1080     1600     1650     1700   
                                           T        V       ECP      H0       H01     AOSYM     SMH    MOLCAS    OPER   

              2       4        3.66       700     1000      520     2100   
                                         GEOM     BASIS   MCVARS     RHF  

 PROGRAMS   *        TOTAL  RCCSD(T)       RHF       INT  RCCSD(T)       RHF       INT  RCCSD(T)       RHF       INT  RCCSD(T)
 CPU TIMES  *      2673.90    232.80      1.78     28.05    207.11      1.51     28.84    232.68      1.61     30.74    246.02
 REAL TIME  *      4584.60 SEC
 DISK USED  *        18.04 GB      
 SF USED    *         2.74 GB      
 GA USED    *         0.00 MB       (max)       0.00 MB       (current)
 **********************************************************************************************************************************
 SETTING CCSD(10)       =      -143.52278111  AU                              

 DO I                   =        11.00000000   
 SETTING Z(11)          =         1.48500000                                  

Geometry recognized as XYZ



 Recomputing integrals since geometry changed


 PROGRAM * SEWARD (Integral evaluation for generally contracted gaussian basis sets)     Author: Roland Lindh, 1990

 Geometry written to block  1 of record 700


 Point group  C2v 



 ATOMIC COORDINATES

 NR  ATOM    CHARGE       X              Y              Z

   1  PD     18.00    0.000000000    0.000000000    0.000000000
   2  O       6.00    0.000000000    0.000000000    2.806243295

 Bond lengths in Bohr (Angstrom)

 1-2  2.806243295
     ( 1.485000000)

 NUCLEAR CHARGE:                   24
 NUMBER OF PRIMITIVE AOS:         370
 NUMBER OF SYMMETRY AOS:          313
 NUMBER OF CONTRACTIONS:          313   ( 138A1  +  71B1  +  71B2  +  33A2  )
 NUMBER OF CORE ORBITALS:           4   (   2A1  +   1B1  +   1B2  +   0A2  )
 NUMBER OF VALENCE ORBITALS:       10   (   5A1  +   2B1  +   2B2  +   1A2  )


 NUCLEAR REPULSION ENERGY   38.48561534

 EXTRA SYMMETRY OF AOS IN SYMMETRY 1:   1 1 1 1 1 1 1 1 1 1   1 1 1 1 1 1 1 1 1 1   1 1 1 1 1 1 1 1 1 1   1 1 1 1 1 1 1 1 1 1
                                        1 1 1 1 1 1 1 1 1 1   1 1 1 2 1 2 1 2 1 2   1 2 1 2 1 2 1 2 1 2   1 2 1 2 1 2 1 2 1 2
                                        1 2 1 2 1 2 1 2 1 2   1 2 1 2 1 3 2 1 3 2   1 3 2 1 1 1 1 1 1 1   1 1 1 1 1 1 1 1 1 1
                                        1 1 1 1 1 1 1 2 1 2   1 2 1 2 1 2 1 2
 EXTRA SYMMETRY OF AOS IN SYMMETRY 2:   1 1 1 1 1 1 1 1 1 1   1 1 1 1 1 1 1 1 1 1   1 1 1 1 1 1 1 1 1 1   1 1 1 1 1 1 1 1 1 1
                                        1 2 1 2 1 2 1 2 1 2   1 2 1 2 1 1 1 1 1 1   1 1 1 1 1 1 1 1 2 1   2
 EXTRA SYMMETRY OF AOS IN SYMMETRY 3:   1 1 1 1 1 1 1 1 1 1   1 1 1 1 1 1 1 1 1 1   1 1 1 1 1 1 1 1 1 1   1 1 1 1 1 1 1 1 1 1
                                        1 2 1 2 1 2 1 2 1 2   1 2 1 2 1 1 1 1 1 1   1 1 1 1 1 1 1 1 2 1   2
 EXTRA SYMMETRY OF AOS IN SYMMETRY 4:   1 1 1 1 1 1 1 1 1 1   1 1 1 1 1 1 1 1 1 1   1 1 2 1 2 1 2 1 1 1   1 1 1

 Eigenvalues of metric

         1 0.748E-06 0.903E-06 0.179E-05 0.787E-05 0.919E-05 0.949E-05 0.217E-04 0.316E-04
         2 0.932E-06 0.975E-06 0.927E-05 0.293E-03 0.469E-03 0.159E-02 0.210E-02 0.294E-02
         3 0.932E-06 0.975E-06 0.927E-05 0.293E-03 0.469E-03 0.159E-02 0.210E-02 0.294E-02
         4 0.949E-05 0.307E-03 0.302E-02 0.107E-01 0.286E-01 0.524E-01 0.790E-01 0.899E-01


 Contracted 2-electron integrals neglected if value below      1.0D-13
 AO integral compression algorithm  1   Integral accuracy      1.0D-13

     1042.022 MB (compressed) written to integral file ( 34.7%)

     Node minimum: 17.302 MB, node maximum: 109.314 MB


 NUMBER OF SORTED TWO-ELECTRON INTEGRALS:   13592913.     BUFFER LENGTH:  32768
 NUMBER OF SEGMENTS:   1  SEGMENT LENGTH:   13592913      RECORD LENGTH: 524288

 Memory used in sort:      14.15 MW

 SORT1 READ   375719576. AND WROTE     6114105. INTEGRALS IN     18 RECORDS. CPU TIME:     8.37 SEC, REAL TIME:     9.94 SEC
 SORT2 READ   140699088. AND WROTE   312994044. INTEGRALS IN   3910 RECORDS. CPU TIME:     0.91 SEC, REAL TIME:     1.20 SEC

 Node minimum:    13561530.  Node maximum:    13694643. integrals

 OPERATOR DM      FOR CENTER  0  COORDINATES:    0.000000    0.000000    0.000000


 **********************************************************************************************************************************
 DATASETS  * FILE   NREC   LENGTH (MB)   RECORD NAMES
              1      19       21.20       500      610      700      900      950      970     1000      129      960     1100   
                                          VAR    BASINP    GEOM    SYMINP    ZMAT    AOBASIS   BASIS     P2S    ABASIS      S 
                                         1400     1410     1420     1200     1210     1080     1600     1650     1700   
                                           T        V       ECP      H0       H01     AOSYM     SMH    MOLCAS    OPER   

              2       4        3.66       700     1000      520     2100   
                                         GEOM     BASIS   MCVARS     RHF  

 PROGRAMS   *        TOTAL       INT  RCCSD(T)       RHF       INT  RCCSD(T)       RHF       INT  RCCSD(T)       RHF       INT
 CPU TIMES  *      2702.49     28.58    232.80      1.78     28.05    207.11      1.51     28.84    232.68      1.61     30.74
 REAL TIME  *      4615.49 SEC
 DISK USED  *        18.06 GB      
 SF USED    *         2.74 GB      
 GA USED    *         0.00 MB       (max)       0.00 MB       (current)
 **********************************************************************************************************************************


 PROGRAM * RHF-SCF (OPEN SHELL)       Authors: W. Meyer, H.-J. Werner


 NUMBER OF ELECTRONS:      13+   11-    SPACE SYMMETRY=2    SPIN SYMMETRY: Triplet 
 CONVERGENCE THRESHOLDS:    1.00E-05 (Density)    1.00E-07 (Energy)
 MAX. NUMBER OF ITERATIONS:       60
 INTERPOLATION TYPE:            DIIS
 INTERPOLATION STEPS:              2 (START)      1 (STEP)
 LEVEL SHIFTS:                 -0.60 (CLOSED) -0.30 (OPEN) 

 Number of closed-shell orbitals:   11 (   5   2   3   1 )
 Number of open-shell orbitals:      2 (   1   1   0   0 )


 Molecular orbitals read from record     2100.2  Type=RHF/CANONICAL (state 1.2)

 Molecular orbital dump at record        2100.2

 ITERATION    DDIFF          GRAD             ENERGY        2-EL.EN.            DIPOLE MOMENTS         DIIS   ORB.
    1      0.000D+00      0.000D+00      -142.45009377    295.012157    0.00000    0.00000   -1.34046    0    start
    2      0.000D+00      0.554D-02      -142.45301117    294.893757    0.00000    0.00000   -1.36645    1    diag,B
    3      0.450D-02      0.472D-03      -142.45368071    294.862458    0.00000    0.00000   -1.33882    2    diag,B
    4      0.749D-03      0.255D-03      -142.45408835    294.771138    0.00000    0.00000   -1.33949    3    diag,B
    5      0.254D-03      0.198D-03      -142.45445957    294.716257    0.00000    0.00000   -1.32461    4    diag,B
    6      0.243D-03      0.135D-03      -142.45489246    294.592015    0.00000    0.00000   -1.30501    5    diag,B
    7      0.437D-03      0.920D-04      -142.45509272    294.511566    0.00000    0.00000   -1.29150    6    diag,B
    8      0.289D-03      0.583D-04      -142.45517829    294.444152    0.00000    0.00000   -1.28185    7    orth
    9      0.206D-03      0.321D-04      -142.45520197    294.407397    0.00000    0.00000   -1.27830    8    diag,B
   10      0.139D-03      0.128D-04      -142.45520426    294.399393    0.00000    0.00000   -1.27846    9    diag,B
   11      0.462D-04      0.471D-05      -142.45520450    294.398659    0.00000    0.00000   -1.27895    9    diag,B
   12      0.179D-04      0.222D-05      -142.45520457    294.399108    0.00000    0.00000   -1.27931    9    diag,B
   13      0.632D-05      0.138D-05      -142.45520459    294.399152    0.00000    0.00000   -1.27944    0    orth

 Final alpha occupancy:   6   3   3   1
 Final beta  occupancy:   5   2   3   1

 !RHF STATE 1.2 Energy               -142.455204590925
 Nuclear energy                        38.48561534
 One-electron energy                 -328.14039586
 Two-electron energy                  147.19957593
 Virial quotient                       -2.34679398
 !RHF STATE 1.2 Dipole moment           0.00000000     0.00000000    -1.27944052
 Dipole moment /Debye                   0.00000000     0.00000000    -3.25180043

 Orbital energies:

         1.1          2.1          3.1          4.1          5.1          6.1          7.1          8.1
     -4.091912    -2.675655    -1.278639    -0.608185    -0.480443    -0.304372     0.009062     0.032839

         1.2          2.2          3.2          4.2          5.2
     -2.625212    -0.597233    -0.450180     0.023847     0.078488

         1.3          2.3          3.3          4.3          5.3
     -2.623076    -0.658399    -0.373997     0.025085     0.081696

         1.4          2.4          3.4
     -0.480604     0.096918     0.316559

 HOMO      6.1    -0.304372 =      -8.2824eV
 LUMO      7.1     0.009062 =       0.2466eV
 LUMO-HOMO         0.313434 =       8.5290eV


 **********************************************************************************************************************************
 DATASETS  * FILE   NREC   LENGTH (MB)   RECORD NAMES
              1      19       21.25       500      610      700      900      950      970     1000      129      960     1100   
                                          VAR    BASINP    GEOM    SYMINP    ZMAT    AOBASIS   BASIS     P2S    ABASIS      S 
                                         1400     1410     1420     1200     1210     1080     1600     1650     1700   
                                           T        V       ECP      H0       H01     AOSYM     SMH    MOLCAS    OPER   

              2       4        3.66       700     1000      520     2100   
                                         GEOM     BASIS   MCVARS     RHF  

 PROGRAMS   *        TOTAL       RHF       INT  RCCSD(T)       RHF       INT  RCCSD(T)       RHF       INT  RCCSD(T)       RHF
 CPU TIMES  *      2704.18      1.69     28.58    232.80      1.78     28.05    207.11      1.51     28.84    232.68      1.61
 REAL TIME  *      4617.45 SEC
 DISK USED  *        18.06 GB      
 SF USED    *         2.74 GB      
 GA USED    *         0.00 MB       (max)       0.00 MB       (current)
 **********************************************************************************************************************************
 SETTING SCF(11)        =      -142.45520459  AU                              
 SETTING _CC_NORM_MAX   =         2.00000000                                  


 PROGRAM * CCSD (Restricted open-shell coupled cluster)     Authors: C. Hampel, H.-J. Werner, 1991, M. Deegan, P.J. Knowles, 1992


 Convergence thresholds:  THRVAR = 1.00D-08  THRDEN = 1.00D-06

 CCSD(T)     terms to be evaluated (factor= 1.000)


 Number of closed-shell orbitals:  11 (   5   2   3   1 )
 Number of active  orbitals:        2 (   1   1   0   0 )
 Number of external orbitals:     300 ( 132  68  68  32 )

 Memory could be reduced to 163.04 Mwords without degradation in triples

 Number of N-1 electron functions:              24
 Number of N-2 electron functions:             276
 Number of singly external CSFs:              2280
 Number of doubly external CSFs:           4894910
 Total number of CSFs:                     4897190

 Molecular orbitals read from record     2100.2  Type=RHF/CANONICAL (state 1.2)

 Integral transformation finished. Total CPU:   6.00 sec, npass=  1  Memory used:  15.00 MW

 Starting RMP2 calculation

 Wavefunction is spin-projected

 ITER.      SQ.NORM     CORR.ENERGY   TOTAL ENERGY   ENERGY CHANGE        DEN1      VAR(S)    VAR(P)  DIIS     TIME
   1      1.22162584    -1.04380190  -143.49900649    -1.04380190    -0.00189093  0.37D-04  0.72D-03  1  1     8.87
   2      1.22347443    -1.04581221  -143.50101680    -0.00201031    -0.00000753  0.96D-06  0.41D-05  2  2    10.61
   3      1.22359233    -1.04587632  -143.50108091    -0.00006411    -0.00000005  0.21D-07  0.25D-07  3  3    12.01
   4      1.22359642    -1.04587717  -143.50108176    -0.00000085    -0.00000000  0.27D-09  0.20D-09  4  4    13.93

 Norm of t1 vector:      0.05218052      S-energy:    -0.00548099      T1 diagnostic:  0.00092354
 Norm of t2 vector:      0.46997193      P-energy:    -1.04039618
                                         Alpha-Beta:  -0.72111096
                                         Alpha-Alpha: -0.17175723
                                         Beta-Beta:   -0.14752799

 Spin contamination <S**2-Sz**2-Sz>     0.00000000
  Reference energy                   -142.455204590925
  RHF-RMP2 correlation energy          -1.045877167088
 !RHF-RMP2 energy                    -143.501081758012
 (NB above energy spin projected)

 Starting RCCSD calculation

 ITER.      SQ.NORM     CORR.ENERGY   TOTAL ENERGY   ENERGY CHANGE        DEN1      VAR(S)    VAR(P)  DIIS     TIME
   1      1.18092182    -0.95591053  -143.41111512    -0.95591053    -0.03758261  0.12D-01  0.68D-02  1  1    21.71
   2      1.20246277    -0.98492279  -143.44012738    -0.02901226    -0.00316073  0.94D-03  0.87D-03  2  2    28.84
   3      1.21668082    -0.98746001  -143.44266460    -0.00253722    -0.00090238  0.94D-03  0.57D-04  3  3    35.11
   4      1.23093198    -0.99024949  -143.44545408    -0.00278948    -0.00026105  0.23D-03  0.27D-04  4  4    41.57
   5      1.24583662    -0.99216199  -143.44736658    -0.00191250    -0.00004293  0.36D-04  0.51D-05  5  5    48.58
   6      1.25045146    -0.99255484  -143.44775943    -0.00039284    -0.00000738  0.61D-05  0.12D-05  6  6    54.63
   7      1.25193487    -0.99264372  -143.44784831    -0.00008888    -0.00000157  0.13D-05  0.26D-06  6  1    61.94
   8      1.25211351    -0.99266624  -143.44787083    -0.00002252    -0.00000038  0.46D-06  0.47D-07  6  2    68.84
   9      1.25222324    -0.99265607  -143.44786066     0.00001016    -0.00000013  0.16D-06  0.12D-07  6  3    76.16
  10      1.25235787    -0.99267335  -143.44787794    -0.00001728    -0.00000004  0.45D-07  0.55D-08  6  4    91.65
  11      1.25231770    -0.99265818  -143.44786277     0.00001517    -0.00000001  0.96D-08  0.21D-08  6  6    98.79
  12      1.25235837    -0.99266294  -143.44786753    -0.00000475    -0.00000000  0.10D-08  0.53D-09  6  1   105.89
  13      1.25234753    -0.99266018  -143.44786478     0.00000275    -0.00000000  0.14D-09  0.63D-10  6  5   118.92
  14      1.25234810    -0.99266036  -143.44786495    -0.00000017    -0.00000000  0.56D-10  0.13D-10  6  2   125.82

 Norm of t1 vector:      0.22896057      S-energy:    -0.00517392      T1 diagnostic:  0.03224884
                                                                       D1 diagnostic:  0.10410861
 Norm of t2 vector:      0.44712991      P-energy:    -0.98748644
                                         Alpha-Beta:  -0.71218523
                                         Alpha-Alpha: -0.14606020
                                         Beta-Beta:   -0.12924101

 Singles amplitudes (print threshold =  0.500E-01):

         I         SYM. A    A   T(IA) [Beta-Beta]

         4         1         1     -0.06877641
         8         2         1      0.14719018

 Doubles amplitudes (print threshold =  0.500E-01):

         I         J         SYM. A    SYM. B    A         B      T(IJ, AB) [Beta-Beta]

         8         4         1         2         1         1      0.05628948
         8         4         2         1         1         1     -0.05628948

 Spin contamination <S**2-Sz**2-Sz>     0.00000000

 Memory could be reduced to 164.20 Mwords without degradation in triples
 

  Correlated core orbitals:             1.1       2.1       1.2       1.3
  Orbital energies:                    -4.1171   -2.7160   -2.6523   -2.6351
 
  RCCSD core-core energy               -0.114846158188
  RCCSD core-valence energy            -0.263119664316
  RCCSD valence correlation energy     -0.614694532718
 

 RESULTS
 =======

  Reference energy                   -142.455204590925
  RCCSD singles energy                 -0.005173916350
  RCCSD pair energy                    -0.987486438872
  RCCSD correlation energy             -0.992660355222
  Triples (T) contribution             -0.045679130866
  Total correlation energy             -1.038339486088
 
  RHF-RCCSD energy                   -143.447864946147
  RHF-RCCSD[T] energy                -143.497108485131
  RHF-RCCSD-T energy                 -143.493229552763
 !RHF-RCCSD(T) energy                -143.493544077013

 Program statistics:

 Available memory in ccsd:               511998418
 Min. memory needed in ccsd:              14064756
 Max. memory used in ccsd:                20157915
 Max. memory used in cckext:              15861012 (14 integral passes)
 Max. memory used in cckint:              15004909 ( 1 integral passes)



 **********************************************************************************************************************************
 DATASETS  * FILE   NREC   LENGTH (MB)   RECORD NAMES
              1      19       21.25       500      610      700      900      950      970     1000      129      960     1100   
                                          VAR    BASINP    GEOM    SYMINP    ZMAT    AOBASIS   BASIS     P2S    ABASIS      S 
                                         1400     1410     1420     1200     1210     1080     1600     1650     1700   
                                           T        V       ECP      H0       H01     AOSYM     SMH    MOLCAS    OPER   

              2       4        3.66       700     1000      520     2100   
                                         GEOM     BASIS   MCVARS     RHF  

 PROGRAMS   *        TOTAL  RCCSD(T)       RHF       INT  RCCSD(T)       RHF       INT  RCCSD(T)       RHF       INT  RCCSD(T)
 CPU TIMES  *      2912.91    208.67      1.69     28.58    232.80      1.78     28.05    207.11      1.51     28.84    232.68
 REAL TIME  *      5014.38 SEC
 DISK USED  *        18.06 GB      
 SF USED    *         2.74 GB      
 GA USED    *         0.00 MB       (max)       0.00 MB       (current)
 **********************************************************************************************************************************
 SETTING CCSD(11)       =      -143.49354408  AU                              
 Output type csv         
                                                                                                                                                                                                                                                                

     Z,SCF,CCSD
   1.985,   -142.5976390,   -143.5693897
   1.935,   -142.5968320,   -143.5724191
   1.885,   -142.5943377,   -143.5745953
   1.835,   -142.5897755,   -143.5756282
   1.785,   -142.5827049,   -143.5751225
   1.735,   -142.5726233,   -143.5725373
   1.685,   -142.5589672,   -143.5671192
   1.635,   -142.5411121,   -143.5578887
   1.585,   -142.5183690,   -143.5436110
   1.535,   -142.4899853,   -143.5227811
   1.485,   -142.4552046,   -143.4935441
                                                  

 RCCSD(T)/USERDEF energy=   -143.493544077013

        RCCSD(T)        RHF-SCF         RCCSD(T)        RHF-SCF         RCCSD(T)        RHF-SCF         RCCSD(T)        RHF-SCF 
   -143.49354408   -142.45520459   -143.52278111   -142.48998534   -143.54361102   -142.51836904   -143.55788866   -142.54111214
 **********************************************************************************************************************************
 Molpro calculation terminated
 Variable memory released
