
 Primary working directories    : /global/cscratch1/sd/haihan
 Secondary working directories  : /global/cscratch1/sd/haihan
 Wavefunction directory         : /global/homes/h/haihan/wfu/
 Main file repository           : /global/cscratch1/sd/haihan/

 SHA1      : 19cd028119e0e09f93f0674bd8af7968d9b3eff6
 NAME      : 2015.1.36
 ARCHNAME  : linux/x86_64
 FC        : /opt/cray/pe/craype/2.5.14/bin/ftn
 BLASLIB   : -L/opt/intel/compilers_and_libraries_2018.1.163/linux/mkl/lib/intel64 -Wl,-_start-group -lmkl_intel_ilp64 -lmkl_intel_thread -lmkl_core -Wl,-_end-group -liomp5
 id        : lbl

 Nodes     nprocs
 nid00919    15
 Number of processes for MPI-2 version of Molpro:   nprocs(total)=   16   nprocs(compute)=   15   nprocs(helper)=    1

 Using customized tuning parameters: mindgm=7; mindgv=16; mindgc=1; mindgr=1; noblas=0; minvec=7
 default implementation of scratch files=sf  

 ***,Pd
 memory,512,m
 
 gthresh,twoint=1.e-12
 gprint,basis,orbitals
 
 angstrom
 geometry={
 1                                                                               ! Number of atoms
 Pd 0.0 0.0 0.0
 }
 
                                                                                 !!! Initial guesses from BFD
 f_par=[1.148400, 2.642509]
 
 proc opt_basis
 
                                                                                 !Calculate the exponents
 N=1                                                                             ! Adjust to get enough exponents
 do i=1,N
 f_exp(i)=f_par(1)*f_par(2)^(i-1)
 enddo
 
 basis={
 Including file /global/u2/h/haihan/Research/HZECP/Pd_basis/cc_dz/ecp.molpro
 Including file /global/u2/h/haihan/Research/HZECP/Pd_basis/cc_dz/basis.molpro
 
 f,Pd,f_exp(1)
 
 }
 {rhf
  start,atden
  print,orbitals=2
  wf,18,1,0
  occ,3,1,1,1,1,1,1,0
  closed,3,1,1,1,1,1,1,0
  sym,1,1,3,2
  natorb,ci,print
  orbital,4202.2
 }
 {rhf,nitord=1,maxit=0
  start,4202.2
  wf,18,1,0
  occ,3,1,1,1,1,1,1,0
  closed,3,1,1,1,1,1,1,0
  sym,1,1,3,2
 }
 data,rename,4202.2,4302.2
 
 {uccsd(t);maxit,100;core}
 eval=energy
 
 endproc
 
 {minimize,eval,f_par(1)
 method,bfgs,proc=opt_basis,thresh=5e-5,vstep=1e-3
 maxit,100}
 

 Variables initialized (889), CPU time= 0.01 sec
 Commands  initialized (702), CPU time= 0.01 sec, 572 directives.
 Default parameters read. Elapsed time= 0.15 sec

 Checking input...
 Passed
1


                                         ***  PROGRAM SYSTEM MOLPRO  ***
                                       Copyright, TTI GmbH Stuttgart, 2015
                                    Version 2015.1 linked Dec 29 2018 15:55:43


 **********************************************************************************************************************************
 LABEL *   Pd                                                                            
  64 bit mpp version                                                                     DATE: 31-Dec-21          TIME: 17:55:47  
 **********************************************************************************************************************************

 SHA1:             19cd028119e0e09f93f0674bd8af7968d9b3eff6
 **********************************************************************************************************************************

 THRESHOLDS:

 ZERO    =  1.00D-12  ONEINT  =  1.00D-12  TWOINT  =  1.00D-12  PREFAC  =  1.00D-14  LOCALI  =  1.00D-09  EORDER  =  1.00D-04
 ENERGY  =  0.00D+00  ETEST   =  0.00D+00  EDENS   =  0.00D+00  THRDEDEF=  1.00D-06  GRADIENT=  1.00D-02  STEP    =  1.00D-03
 ORBITAL =  1.00D-05  CIVEC   =  1.00D-05  COEFF   =  1.00D-04  PRINTCI =  5.00D-02  PUNCHCI =  9.90D+01  OPTGRAD =  3.00D-04
 OPTENERG=  1.00D-06  OPTSTEP =  3.00D-04  THRGRAD =  1.00D-10  COMPRESS=  1.00D-11  VARMIN  =  1.00D-07  VARMAX  =  1.00D-03
 THRDOUB =  0.00D+00  THRDIV  =  1.00D-05  THRRED  =  1.00D-07  THRPSP  =  1.00D+00  THRDC   =  1.00D-10  THRCS   =  1.00D-10
 THRNRM  =  1.00D-08  THREQ   =  0.00D+00  THRDE   =  1.00D+00  THRREF  =  1.00D-05  SPARFAC =  1.00D+00  THRDLP  =  1.00D-07
 THRDIA  =  1.00D-10  THRDLS  =  1.00D-07  THRGPS  =  0.00D+00  THRKEX  =  0.00D+00  THRDIS  =  2.00D-01  THRVAR  =  1.00D-10
 THRLOC  =  1.00D-06  THRGAP  =  1.00D-06  THRLOCT = -1.00D+00  THRGAPT = -1.00D+00  THRORB  =  1.00D-06  THRMLTP =  0.00D+00
 THRCPQCI=  1.00D-10  KEXTA   =  0.00D+00  THRCOARS=  0.00D+00  SYMTOL  =  1.00D-06  GRADTOL =  1.00D-06  THROVL  =  1.00D-08
 THRORTH =  1.00D-08  GRID    =  1.00D-06  GRIDMAX =  1.00D-03  DTMAX   =  0.00D+00  THROCCDE=  1.00D-01  THROCCDE=  1.00D-01



 ZUNIT=ANG
 

Geometry recognized as XYZ

 SETTING F_PAR(1)       =         1.14840000                                  
 SETTING F_PAR(2)       =         2.64250900                                  

 Variable memory set to  512000000 words,  buffer space   230000 words



 PROGRAM * MINIMIZE (General minimization)     Authors: H.-J. Werner, P.J. Knowles, K.A. Peterson

 Minimize EVAL with respect to:        F_PAR(1)  
 Method BFGS will be used
 Variables are optimized in the space of (x/x0)


 Minimization using procedure=OPT_BASIS

 *** Long output written to logfile /global/u2/h/haihan/Research/HZECP/Pd_basis/cc_dz/atom.log ***


 BFGS update of inverse hessian 

 PROGRAM * MINIMIZE (General minimization)     Authors: H.-J. Werner, P.J. Knowles, K.A. Peterson


 Results for BFGS iteration    1       Current function value  =       -126.984346688
                                     Previous function value =          0.000000000
 Current variables and gradients:
 BFGS       F_PAR(1)                  1.148400       -0.0853409

 BFGS update of inverse hessian 

 Results for BFGS iteration    2       Current function value  =       -126.996170546
                                     Previous function value =       -126.984346688
 Current variables and gradients:
 BFGS       F_PAR(1)                  1.378080       -0.0352173

 BFGS update of inverse hessian 

 Results for BFGS iteration    3       Current function value  =       -126.999103381
                                     Previous function value =       -126.996170546
 Current variables and gradients:
 BFGS       F_PAR(1)                  1.536389       -0.0082963

 BFGS update of inverse hessian 

 Results for BFGS iteration    4       Current function value  =       -126.999301645
                                     Previous function value =       -126.999103381
 Current variables and gradients:
 BFGS       F_PAR(1)                  1.585087       -0.0011386

 BFGS update of inverse hessian 

 Results for BFGS iteration    5       Current function value  =       -126.999305632
                                     Previous function value =       -126.999301645
 Current variables and gradients:
 BFGS       F_PAR(1)                  1.592833       -0.0000460

 PROGRAM * MINIMIZE (General minimization)     Authors: H.-J. Werner, P.J. Knowles, K.A. Peterson


 Minimization of EVAL using the BFGS method has converged after    5 iterations


 Running procedure=OPT_BASIS
 SETTING N              =         1.00000000                                  

 DO I                   =         1.00000000   
 SETTING F_EXP(1)       =         1.59283306                                  
 SETTING BASIS          =    USERDEF


 Current variables in basis input:

 Set= 1  F_EXP(1)            =       1.59283306

 Recomputing integrals since basis changed


 Using spherical harmonics



 PROGRAM * SEWARD (Integral evaluation for generally contracted gaussian basis sets)     Author: Roland Lindh, 1990

 Geometry written to block  1 of record 700

 Orientation using atomic masses  
 Molecule type: Atom
 Symmetry elements: X,Y,Z
 Rotational constants:       0.0000000      0.0000000      0.0000000 GHz  (calculated with average atomic masses)

 Point group  D2h 



 ATOMIC COORDINATES

 NR  ATOM    CHARGE       X              Y              Z

   1  PD     18.00    0.000000000    0.000000000    0.000000000


          PD  CORE POTENTIAL

          f POTENTIAL

 POWERS             1              3              2              2
 EXPONENTIALS   15.99766       15.96401       16.12888       9.592539    
 COEFFICIENTS   18.00000       287.9579      -176.3826      -44.25362    

          s - f POTENTIAL

 POWERS             2              2              2
 EXPONENTIALS   12.45165       6.301508       9.656958    
 COEFFICIENTS   222.0049       55.83859       4.624354    

          p - f POTENTIAL

 POWERS             2              2              2
 EXPONENTIALS   12.37601       5.706187       9.850179    
 COEFFICIENTS   166.6450       42.68117       28.72135    

          d - f POTENTIAL

 POWERS             2              2              2
 EXPONENTIALS   7.923467       3.358692       9.195344    
 COEFFICIENTS   53.57659       4.674921       57.97681    


 BASIS DATA

   Nr Sym  Nuc  Type         Exponents   Contraction coefficients

    1.1 Ag    1  1s         226.982057    -0.000123    0.000117   -0.000063   -0.001908    0.008138   -0.006408
    2.1 Ag                  107.971612     0.000586   -0.000580    0.000309    0.009521   -0.040699    0.030543
    3.1 Ag                   51.360311    -0.001037    0.001695   -0.000590   -0.029954    0.127068   -0.083318
    4.1 Ag                   24.431251    -0.013924   -0.002148   -0.007717    0.094695   -0.363306    0.128083
    5.1 Ag                   11.621542     0.200098   -0.019262    0.119010   -0.416458    1.256213    0.431534
    6.1 Ag                    5.528176    -0.676779    0.084919   -0.425622    1.261804   -4.003174   -3.890922
                              2.629662     0.045446    0.022876   -0.051799   -0.579822    6.713429   10.775558
                              1.250887     0.857855   -0.244520    1.109581   -3.177434   -3.944306  -15.904368
                              0.595026     0.366386    0.091710    0.219221    4.036898   -2.327527   16.120226
                              0.283044     0.052708   -0.417493   -0.869582   -0.556360    5.490862  -11.481036
                              0.134639    -0.007355    0.856225   -0.507150   -0.841919   -3.312612    4.946792
                              0.064046     0.004478   -1.233857   -0.060316   -0.212786    0.567986   -1.087426
                              0.030465    -0.001187    1.683095    0.000652    0.021290   -0.216586    0.383398
    7.1 Ag    1  3d0         24.858557     0.002857
                             13.807567     0.008324
                              7.669347    -0.032165
                              4.259902     0.041986
                              2.366142     0.187147
                              1.314262     0.274091
                              0.730001     0.274162
                              0.405475     0.223394
                              0.225219     0.156376
                              0.125097     0.088573
                              0.069485     0.033732
                              0.038595     0.005858
                              0.021437     0.000243
    8.1 Ag    1  3d2+        24.858557     0.002857
                             13.807567     0.008324
                              7.669347    -0.032165
                              4.259902     0.041986
                              2.366142     0.187147
                              1.314262     0.274091
                              0.730001     0.274162
                              0.405475     0.223394
                              0.225219     0.156376
                              0.125097     0.088573
                              0.069485     0.033732
                              0.038595     0.005858
                              0.021437     0.000243
    9.1 Ag    1  3d0         24.858557    -0.004007
                             13.807567    -0.009816
                              7.669347     0.040598
                              4.259902    -0.059887
                              2.366142    -0.292809
                              1.314262    -0.381848
                              0.730001    -0.112906
                              0.405475     0.234947
                              0.225219     0.363251
                              0.125097     0.275550
                              0.069485     0.128792
                              0.038595     0.028454
                              0.021437     0.001243
   10.1 Ag    1  3d2+        24.858557    -0.004007
                             13.807567    -0.009816
                              7.669347     0.040598
                              4.259902    -0.059887
                              2.366142    -0.292809
                              1.314262    -0.381848
                              0.730001    -0.112906
                              0.405475     0.234947
                              0.225219     0.363251
                              0.125097     0.275550
                              0.069485     0.128792
                              0.038595     0.028454
                              0.021437     0.001243
   11.1 Ag    1  3d0         24.858557    -0.006065
                             13.807567    -0.014128
                              7.669347     0.063530
                              4.259902    -0.089104
                              2.366142    -0.687019
                              1.314262    -0.222398
                              0.730001     0.792038
                              0.405475     0.461827
                              0.225219    -0.210862
                              0.125097    -0.397527
                              0.069485    -0.220040
                              0.038595    -0.055864
                              0.021437    -0.001842
   12.1 Ag    1  3d2+        24.858557    -0.006065
                             13.807567    -0.014128
                              7.669347     0.063530
                              4.259902    -0.089104
                              2.366142    -0.687019
                              1.314262    -0.222398
                              0.730001     0.792038
                              0.405475     0.461827
                              0.225219    -0.210862
                              0.125097    -0.397527
                              0.069485    -0.220040
                              0.038595    -0.055864
                              0.021437    -0.001842
   13.1 Ag    1  3d0         24.858557    -0.005701
                             13.807567    -0.041076
                              7.669347     0.177748
                              4.259902    -0.401551
                              2.366142    -1.233635
                              1.314262     1.629425
                              0.730001     0.479913
                              0.405475    -1.170492
                              0.225219    -0.247151
                              0.125097     0.369970
                              0.069485     0.335028
                              0.038595     0.079693
                              0.021437     0.005779
   14.1 Ag    1  3d2+        24.858557    -0.005701
                             13.807567    -0.041076
                              7.669347     0.177748
                              4.259902    -0.401551
                              2.366142    -1.233635
                              1.314262     1.629425
                              0.730001     0.479913
                              0.405475    -1.170492
                              0.225219    -0.247151
                              0.125097     0.369970
                              0.069485     0.335028
                              0.038595     0.079693
                              0.021437     0.005779
   15.1 Ag    1  3d0         24.858557     0.017568
                             13.807567    -0.179203
                              7.669347     0.694796
                              4.259902    -1.928215
                              2.366142     0.470721
                              1.314262     2.871676
                              0.730001    -3.760750
                              0.405475     1.413014
                              0.225219     0.535876
                              0.125097     0.020298
                              0.069485    -0.574257
                              0.038595    -0.056655
                              0.021437    -0.026612
   16.1 Ag    1  3d2+        24.858557     0.017568
                             13.807567    -0.179203
                              7.669347     0.694796
                              4.259902    -1.928215
                              2.366142     0.470721
                              1.314262     2.871676
                              0.730001    -3.760750
                              0.405475     1.413014
                              0.225219     0.535876
                              0.125097     0.020298
                              0.069485    -0.574257
                              0.038595    -0.056655
                              0.021437    -0.026612
    1.2 B3u   1  2px         49.528556    -0.000125    0.000176   -0.000014   -0.012211    0.053745    0.013946
    2.2 B3u                  26.116743    -0.001273    0.000339    0.002075    0.063332   -0.275923   -0.107103
    3.2 B3u                  13.771535     0.038171   -0.025564   -0.041847   -0.251945    0.979303    0.674199
    4.2 B3u                   7.261824    -0.174047    0.127568    0.173144    0.769673   -2.971680   -3.367958
    5.2 B3u                   3.829209    -0.041692    0.040787    0.307947   -0.397351    5.445539    9.445907
    6.2 B3u                   2.019168     0.413749   -0.439452   -1.596670   -3.018892   -3.694725  -14.679703
                              1.064721     0.450821   -0.442802    0.190811    4.961124   -1.823365   16.045809
                              0.561434     0.251837    0.193319    1.623239   -2.316344    6.249021  -13.311169
                              0.296048     0.051165    0.566241   -0.253493   -0.828485   -6.109773    7.912246
                              0.156108     0.011161    0.374898   -0.637836    0.593295    2.758959   -2.889133
                              0.082317    -0.002018    0.092881   -0.260561    0.473889   -0.636491    0.886992
                              0.043406     0.001463    0.007271   -0.000879   -0.016521    0.587537   -0.753228
                              0.022888    -0.000389    0.000254   -0.005207    0.013812   -0.143796    0.180939
    7.2 B3u   1  4f1+         1.592833     1.000000
    8.2 B3u   1  4f3+         1.592833     1.000000
    1.3 B2u   1  2py         49.528556    -0.000125    0.000176   -0.000014   -0.012211    0.053745    0.013946
    2.3 B2u                  26.116743    -0.001273    0.000339    0.002075    0.063332   -0.275923   -0.107103
    3.3 B2u                  13.771535     0.038171   -0.025564   -0.041847   -0.251945    0.979303    0.674199
    4.3 B2u                   7.261824    -0.174047    0.127568    0.173144    0.769673   -2.971680   -3.367958
    5.3 B2u                   3.829209    -0.041692    0.040787    0.307947   -0.397351    5.445539    9.445907
    6.3 B2u                   2.019168     0.413749   -0.439452   -1.596670   -3.018892   -3.694725  -14.679703
                              1.064721     0.450821   -0.442802    0.190811    4.961124   -1.823365   16.045809
                              0.561434     0.251837    0.193319    1.623239   -2.316344    6.249021  -13.311169
                              0.296048     0.051165    0.566241   -0.253493   -0.828485   -6.109773    7.912246
                              0.156108     0.011161    0.374898   -0.637836    0.593295    2.758959   -2.889133
                              0.082317    -0.002018    0.092881   -0.260561    0.473889   -0.636491    0.886992
                              0.043406     0.001463    0.007271   -0.000879   -0.016521    0.587537   -0.753228
                              0.022888    -0.000389    0.000254   -0.005207    0.013812   -0.143796    0.180939
    7.3 B2u   1  4f1-         1.592833     1.000000
    8.3 B2u   1  4f3-         1.592833     1.000000
    1.4 B1g   1  3d2-        24.858557     0.002857   -0.004007   -0.006065   -0.005701    0.017568
    2.4 B1g                  13.807567     0.008324   -0.009816   -0.014128   -0.041076   -0.179203
    3.4 B1g                   7.669347    -0.032165    0.040598    0.063530    0.177748    0.694796
    4.4 B1g                   4.259902     0.041986   -0.059887   -0.089104   -0.401551   -1.928215
    5.4 B1g                   2.366142     0.187147   -0.292809   -0.687019   -1.233635    0.470721
                              1.314262     0.274091   -0.381848   -0.222398    1.629425    2.871676
                              0.730001     0.274162   -0.112906    0.792038    0.479913   -3.760750
                              0.405475     0.223394    0.234947    0.461827   -1.170492    1.413014
                              0.225219     0.156376    0.363251   -0.210862   -0.247151    0.535876
                              0.125097     0.088573    0.275550   -0.397527    0.369970    0.020298
                              0.069485     0.033732    0.128792   -0.220040    0.335028   -0.574257
                              0.038595     0.005858    0.028454   -0.055864    0.079693   -0.056655
                              0.021437     0.000243    0.001243   -0.001842    0.005779   -0.026612
    1.5 B1u   1  2pz         49.528556    -0.000125    0.000176   -0.000014   -0.012211    0.053745    0.013946
    2.5 B1u                  26.116743    -0.001273    0.000339    0.002075    0.063332   -0.275923   -0.107103
    3.5 B1u                  13.771535     0.038171   -0.025564   -0.041847   -0.251945    0.979303    0.674199
    4.5 B1u                   7.261824    -0.174047    0.127568    0.173144    0.769673   -2.971680   -3.367958
    5.5 B1u                   3.829209    -0.041692    0.040787    0.307947   -0.397351    5.445539    9.445907
    6.5 B1u                   2.019168     0.413749   -0.439452   -1.596670   -3.018892   -3.694725  -14.679703
                              1.064721     0.450821   -0.442802    0.190811    4.961124   -1.823365   16.045809
                              0.561434     0.251837    0.193319    1.623239   -2.316344    6.249021  -13.311169
                              0.296048     0.051165    0.566241   -0.253493   -0.828485   -6.109773    7.912246
                              0.156108     0.011161    0.374898   -0.637836    0.593295    2.758959   -2.889133
                              0.082317    -0.002018    0.092881   -0.260561    0.473889   -0.636491    0.886992
                              0.043406     0.001463    0.007271   -0.000879   -0.016521    0.587537   -0.753228
                              0.022888    -0.000389    0.000254   -0.005207    0.013812   -0.143796    0.180939
    7.5 B1u   1  4f0          1.592833     1.000000
    8.5 B1u   1  4f2+         1.592833     1.000000
    1.6 B2g   1  3d1+        24.858557     0.002857   -0.004007   -0.006065   -0.005701    0.017568
    2.6 B2g                  13.807567     0.008324   -0.009816   -0.014128   -0.041076   -0.179203
    3.6 B2g                   7.669347    -0.032165    0.040598    0.063530    0.177748    0.694796
    4.6 B2g                   4.259902     0.041986   -0.059887   -0.089104   -0.401551   -1.928215
    5.6 B2g                   2.366142     0.187147   -0.292809   -0.687019   -1.233635    0.470721
                              1.314262     0.274091   -0.381848   -0.222398    1.629425    2.871676
                              0.730001     0.274162   -0.112906    0.792038    0.479913   -3.760750
                              0.405475     0.223394    0.234947    0.461827   -1.170492    1.413014
                              0.225219     0.156376    0.363251   -0.210862   -0.247151    0.535876
                              0.125097     0.088573    0.275550   -0.397527    0.369970    0.020298
                              0.069485     0.033732    0.128792   -0.220040    0.335028   -0.574257
                              0.038595     0.005858    0.028454   -0.055864    0.079693   -0.056655
                              0.021437     0.000243    0.001243   -0.001842    0.005779   -0.026612
    1.7 B3g   1  3d1-        24.858557     0.002857   -0.004007   -0.006065   -0.005701    0.017568
    2.7 B3g                  13.807567     0.008324   -0.009816   -0.014128   -0.041076   -0.179203
    3.7 B3g                   7.669347    -0.032165    0.040598    0.063530    0.177748    0.694796
    4.7 B3g                   4.259902     0.041986   -0.059887   -0.089104   -0.401551   -1.928215
    5.7 B3g                   2.366142     0.187147   -0.292809   -0.687019   -1.233635    0.470721
                              1.314262     0.274091   -0.381848   -0.222398    1.629425    2.871676
                              0.730001     0.274162   -0.112906    0.792038    0.479913   -3.760750
                              0.405475     0.223394    0.234947    0.461827   -1.170492    1.413014
                              0.225219     0.156376    0.363251   -0.210862   -0.247151    0.535876
                              0.125097     0.088573    0.275550   -0.397527    0.369970    0.020298
                              0.069485     0.033732    0.128792   -0.220040    0.335028   -0.574257
                              0.038595     0.005858    0.028454   -0.055864    0.079693   -0.056655
                              0.021437     0.000243    0.001243   -0.001842    0.005779   -0.026612
    1.8 Au    1  4f2-         1.592833     1.000000

 NUCLEAR CHARGE:                   18
 NUMBER OF PRIMITIVE AOS:         140
 NUMBER OF SYMMETRY AOS:          124
 NUMBER OF CONTRACTIONS:           56   (  16Ag  +   8B3u +   8B2u +   5B1g +   8B1u +   5B2g +   5B3g +   1Au  )
 NUMBER OF CORE ORBITALS:           4   (   1Ag  +   1B3u +   1B2u +   0B1g +   1B1u +   0B2g +   0B3g +   0Au  )
 NUMBER OF VALENCE ORBITALS:        6   (   3Ag  +   0B3u +   0B2u +   1B1g +   0B1u +   1B2g +   1B3g +   0Au  )


 NUCLEAR REPULSION ENERGY    0.00000000

 EXTRA SYMMETRY OF AOS IN SYMMETRY 1:   1 1 1 1 1 1 2 3 2 3   2 3 2 3 2 3
 EXTRA SYMMETRY OF AOS IN SYMMETRY 2:   1 1 1 1 1 1 2 3
 EXTRA SYMMETRY OF AOS IN SYMMETRY 3:   1 1 1 1 1 1 2 3
 EXTRA SYMMETRY OF AOS IN SYMMETRY 5:   1 1 1 1 1 1 2 3

 Eigenvalues of metric

         1 0.254E+00 0.983E+00 0.983E+00 0.100E+01 0.100E+01 0.100E+01 0.100E+01 0.100E+01
         2 0.100E+01 0.100E+01 0.100E+01 0.100E+01 0.100E+01 0.100E+01 0.100E+01 0.100E+01
         3 0.100E+01 0.100E+01 0.100E+01 0.100E+01 0.100E+01 0.100E+01 0.100E+01 0.100E+01
         4 0.983E+00 0.100E+01 0.100E+01 0.100E+01 0.102E+01
         5 0.100E+01 0.100E+01 0.100E+01 0.100E+01 0.100E+01 0.100E+01 0.100E+01 0.100E+01
         6 0.983E+00 0.100E+01 0.100E+01 0.100E+01 0.102E+01
         7 0.983E+00 0.100E+01 0.100E+01 0.100E+01 0.102E+01
         8 0.100E+01


 Contracted 2-electron integrals neglected if value below      1.0D-12
 AO integral compression algorithm  1   Integral accuracy      1.0D-12

     4.981 MB (compressed) written to integral file (100.0%)

     Node minimum: 0.262 MB, node maximum: 0.786 MB


 NUMBER OF SORTED TWO-ELECTRON INTEGRALS:      12864.     BUFFER LENGTH:  32768
 NUMBER OF SEGMENTS:   1  SEGMENT LENGTH:      12864      RECORD LENGTH: 524288

 Memory used in sort:       0.57 MW

 SORT1 READ      425092. AND WROTE       10733. INTEGRALS IN      1 RECORDS. CPU TIME:     0.01 SEC, REAL TIME:     0.03 SEC
 SORT2 READ      151566. AND WROTE      178811. INTEGRALS IN     15 RECORDS. CPU TIME:     0.00 SEC, REAL TIME:     0.01 SEC

 Node minimum:        9390.  Node maximum:       15302. integrals

 OPERATOR DM      FOR CENTER  0  COORDINATES:    0.000000    0.000000    0.000000


 **********************************************************************************************************************************
 DATASETS  * FILE   NREC   LENGTH (MB)   RECORD NAMES
              1      19       19.92       500      610      700      900      950      970     1012      129      960     1100   
                                          VAR    BASINP    GEOM    SYMINP    ZMAT    AOBASIS   BASIS     P2S    ABASIS      S 
                                         1400     1410     1420     1200     1210     1080     1600     1650     1700   
                                           T        V       ECP      H0       H01     AOSYM     SMH    MOLCAS    OPER   

              2      48       76.23       200      700     1000      520     4302     2101     1001     4302     2102     1002   
                                        OPTIONS   GEOM     BASIS   MCVARS     RHF      RHF     BASIS     RHF      RHF     BASIS   
                                         4302     2103     1003     4302     2104     1004     4302     2105     1005     4302   
                                          RHF      RHF     BASIS     RHF      RHF     BASIS     RHF      RHF     BASIS     RHF  
                                         2106     1006     4302     2107     1007     4302     2108     1008     4302     2109   
                                          RHF     BASIS     RHF      RHF     BASIS     RHF      RHF     BASIS     RHF      RHF  
                                         1009     4302     2110     1010     4302     2111     1011     4302     2112     1012   
                                         BASIS     RHF      RHF     BASIS     RHF      RHF     BASIS     RHF      RHF     BASIS   
                                         4302     2113     1013     4302     2114     1014     4302     2115   
                                          RHF      RHF     BASIS     RHF      RHF     BASIS     RHF      RHF  

 PROGRAMS   *        TOTAL       INT  UCCSD(T)      DATA       RHF       RHF       INT  UCCSD(T)      DATA       RHF       RHF
 CPU TIMES  *        21.07      1.43      0.32      0.00      0.05      0.03      0.80      0.24      0.00      0.03      0.39
 REAL TIME  *        33.14 SEC
 DISK USED  *         1.57 GB      
 SF USED    *         7.06 MB      
 GA USED    *         0.00 MB       (max)       0.00 MB       (current)
 **********************************************************************************************************************************


 PROGRAM * RHF-SCF (CLOSED SHELL)       Authors: W. Meyer, H.-J. Werner


 NUMBER OF ELECTRONS:       9+    9-    SPACE SYMMETRY=1    SPIN SYMMETRY: Singlet 
 CONVERGENCE THRESHOLDS:    1.00E-05 (Density)    1.00E-07 (Energy)
 MAX. NUMBER OF ITERATIONS:       60
 INTERPOLATION TYPE:            DIIS
 INTERPOLATION STEPS:              2 (START)      1 (STEP)
 LEVEL SHIFTS:                  0.00 (CLOSED)  0.00 (OPEN) 

 Number of closed-shell orbitals:    9 (   3   1   1   1   1   1   1   0 )


 
 Extra symmetries of mos in symmetry 1:   1   3   2

   Atom=PD basis=cc-pVTZ-PP        lmin=0  lmax=2

 Orbital guess generated from atomic densities. Full valence occupancy:    4   1   1   1   1   1   1   0


 Molecular orbital dump at record        4202.2

 ITERATION    DDIFF          GRAD             ENERGY        2-EL.EN.            DIPOLE MOMENTS         DIIS   ORB.
    1      0.000D+00      0.000D+00      -126.45958137    207.058405    0.00000    0.00000    0.00000    0    start
    2      0.000D+00      0.292D-01      -126.46297555    197.802379    0.00000    0.00000    0.00000    1    diag
    3      0.226D-01      0.320D-01      -126.49833888    202.089407    0.00000    0.00000    0.00000    2    diag
    4      0.982D-02      0.144D-02      -126.49839836    202.221637    0.00000    0.00000    0.00000    3    diag
    5      0.288D-03      0.157D-03      -126.49839921    202.238474    0.00000    0.00000    0.00000    4    diag
    6      0.394D-04      0.111D-04      -126.49839922    202.238982    0.00000    0.00000    0.00000    5    diag
    7      0.476D-05      0.271D-06      -126.49839922    202.239034    0.00000    0.00000    0.00000    0    orth

 Final occupancy:   3   1   1   1   1   1   1   0

 !RHF STATE 1.1 Energy               -126.498399219317
 Nuclear energy                         0.00000000
 One-electron energy                 -227.61791641
 Two-electron energy                  101.11951719
 Virial quotient                       -2.61642203
 !RHF STATE 1.1 Dipole moment           0.00000000     0.00000000     0.00000000
 Dipole moment /Debye                   0.00000000     0.00000000     0.00000000

 ELECTRON ORBITALS
 =================


   Orb  Occ    Energy  Couls-En    Coefficients

                                   1 1s      1 1s      1 1s      1 1s      1 1s      1 1s      1 3d0     1 3d2+    1 3d0     1 3d2+ 
                                   1 3d0     1 3d2+    1 3d0     1 3d2+    1 3d0     1 3d2+ 

   1.1   2    -3.8402  -20.1006  1.000000  0.000000 -0.000000  0.000000 -0.000000 -0.000000  0.000000  0.000000 -0.000000 -0.000000
                                -0.000000 -0.000000  0.000000  0.000000 -0.000000  0.000000

   2.1   2    -0.3285  -11.1259 -0.000000  0.000000  0.000000  0.000000  0.000000 -0.000000  0.000072  1.000000  0.000000  0.000001
                                -0.000000 -0.000000  0.000000  0.000000 -0.000000 -0.000000

   3.1   2    -0.3285  -11.1259 -0.000000  0.000000  0.000000  0.000000  0.000000 -0.000000  1.000000 -0.000072  0.000001 -0.000000
                                -0.000000  0.000000  0.000000 -0.000000 -0.000000  0.000000

   4.1   0     0.0187   -3.9090  0.000001  0.999998 -0.000003 -0.000001 -0.000000  0.000000 -0.000000  0.000000  0.000000  0.000000
                                -0.000000 -0.000000  0.000000  0.000000 -0.000000 -0.000000

   5.1   0     0.2035   -5.1298  0.000001  0.953517  1.231940  0.539018  0.290006 -0.129876 -0.000000 -0.000000  0.000000  0.000000
                                -0.000000 -0.000000  0.000000  0.000000 -0.000000 -0.000000

                                   1 2px     1 2px     1 2px     1 2px     1 2px     1 2px     1 4f1+    1 4f3+ 

   1.2   2    -2.4023  -16.9228  1.000000 -0.000000  0.000000 -0.000000  0.000000  0.000000  0.000000  0.000000

   2.2   0     0.2170   -4.9228  0.000000  0.765702 -0.523703  0.311087  0.191654 -0.076998 -0.000000 -0.000000

   3.2   0     0.9755   -5.1362 -0.000000  0.602620  0.388273 -0.527644 -0.411457  0.195929  0.000000 -0.000000

                                   1 2py     1 2py     1 2py     1 2py     1 2py     1 2py     1 4f1-    1 4f3- 

   1.3   2    -2.4023  -16.9228  1.000000 -0.000000  0.000000 -0.000000  0.000000  0.000000  0.000000 -0.000000

   2.3   0     0.2170   -4.9228  0.000000  0.765702 -0.523703  0.311087  0.191654 -0.076998 -0.000000  0.000000

   3.3   0     0.9755   -5.1362 -0.000000  0.602620  0.388273 -0.527644 -0.411457  0.195929  0.000000  0.000000

                                   1 3d2-    1 3d2-    1 3d2-    1 3d2-    1 3d2- 

   1.4   2    -0.3285  -11.1259  1.000000  0.000001 -0.000000  0.000000 -0.000000

   2.4   0     0.3637   -4.0891  0.016619  0.723024 -0.581369  0.343401 -0.146961

   3.4   0     1.4522   -5.0635 -0.001488  0.653175  0.402087 -0.562470  0.308740

                                   1 2pz     1 2pz     1 2pz     1 2pz     1 2pz     1 2pz     1 4f0     1 4f2+ 

   1.5   2    -2.4023  -16.9228  1.000000 -0.000000  0.000000 -0.000000  0.000000  0.000000  0.000000  0.000000

   2.5   0     0.2170   -4.9228  0.000000  0.765702 -0.523703  0.311087  0.191654 -0.076998 -0.000000  0.000000

   3.5   0     0.9755   -5.1362 -0.000000  0.602620  0.388273 -0.527644 -0.411457  0.195929 -0.000000  0.000000

                                   1 3d1+    1 3d1+    1 3d1+    1 3d1+    1 3d1+ 

   1.6   2    -0.3285  -11.1259  1.000000  0.000001 -0.000000  0.000000 -0.000000

   2.6   0     0.3637   -4.0891  0.016619  0.723024 -0.581369  0.343401 -0.146961

   3.6   0     1.4522   -5.0635 -0.001488  0.653175  0.402087 -0.562470  0.308740

                                   1 3d1-    1 3d1-    1 3d1-    1 3d1-    1 3d1- 

   1.7   2    -0.3285  -11.1259  1.000000  0.000001 -0.000000  0.000000 -0.000000

   2.7   0     0.3637   -4.0891  0.016619  0.723024 -0.581369  0.343401 -0.146961

   3.7   0     1.4522   -5.0635 -0.001488  0.653175  0.402087 -0.562470  0.308740

                                   1 4f2- 

   1.8   0     3.2905   -6.1973  1.000000

 HOMO      3.1    -0.328488 =      -8.9386eV
 LUMO      4.1     0.018733 =       0.5098eV
 LUMO-HOMO         0.347221 =       9.4484eV


 **********************************************************************************************************************************
 DATASETS  * FILE   NREC   LENGTH (MB)   RECORD NAMES
              1      19       19.92       500      610      700      900      950      970     1012      129      960     1100   
                                          VAR    BASINP    GEOM    SYMINP    ZMAT    AOBASIS   BASIS     P2S    ABASIS      S 
                                         1400     1410     1420     1200     1210     1080     1600     1650     1700   
                                           T        V       ECP      H0       H01     AOSYM     SMH    MOLCAS    OPER   

              2      49       78.75       200      700     1000      520     4302     2101     1001     4302     2102     1002   
                                        OPTIONS   GEOM     BASIS   MCVARS     RHF      RHF     BASIS     RHF      RHF     BASIS   
                                         4302     2103     1003     4302     2104     1004     4302     2105     1005     4302   
                                          RHF      RHF     BASIS     RHF      RHF     BASIS     RHF      RHF     BASIS     RHF  
                                         2106     1006     4302     2107     1007     4302     2108     1008     4302     2109   
                                          RHF     BASIS     RHF      RHF     BASIS     RHF      RHF     BASIS     RHF      RHF  
                                         1009     4302     2110     1010     4302     2111     1011     4302     2112     1012   
                                         BASIS     RHF      RHF     BASIS     RHF      RHF     BASIS     RHF      RHF     BASIS   
                                         4302     2113     1013     4302     2114     1014     4302     2115     4202   
                                          RHF      RHF     BASIS     RHF      RHF     BASIS     RHF      RHF      RHF  

 PROGRAMS   *        TOTAL       RHF       INT  UCCSD(T)      DATA       RHF       RHF       INT  UCCSD(T)      DATA       RHF
 CPU TIMES  *        21.11      0.04      1.43      0.32      0.00      0.05      0.03      0.80      0.24      0.00      0.03
 REAL TIME  *        33.23 SEC
 DISK USED  *         1.57 GB      
 SF USED    *         7.06 MB      
 GA USED    *         0.00 MB       (max)       0.00 MB       (current)
 **********************************************************************************************************************************


 Current variables in basis input:

 Set= 1  F_EXP(1)            =       1.59283306

 PROGRAM * RHF-SCF (CLOSED SHELL)       Authors: W. Meyer, H.-J. Werner


 NUMBER OF ELECTRONS:       9+    9-    SPACE SYMMETRY=1    SPIN SYMMETRY: Singlet 
 CONVERGENCE THRESHOLDS:    1.00E-05 (Density)    1.00E-07 (Energy)
 MAX. NUMBER OF ITERATIONS:        0
 INTERPOLATION TYPE:            DIIS
 INTERPOLATION STEPS:              2 (START)      1 (STEP)
 LEVEL SHIFTS:                  0.00 (CLOSED)  0.00 (OPEN) 

 Number of closed-shell orbitals:    9 (   3   1   1   1   1   1   1   0 )


 
 Extra symmetries of mos in symmetry 1:   1   3   2
 Molecular orbitals read from record     4202.2  Type=RHF/CANONICAL (state 1.1)

 Molecular orbital dump at record        2113.2

 ITERATION    DDIFF          GRAD             ENERGY        2-EL.EN.            DIPOLE MOMENTS         DIIS   ORB.
    1      0.000D+00      0.000D+00      -126.49839922    202.239034    0.00000    0.00000    0.00000    0    start

 Final occupancy:   3   1   1   1   1   1   1   0

 !RHF STATE 1.1 Energy               -126.498399219317
 Nuclear energy                         0.00000000
 One-electron energy                 -227.61791641
 Two-electron energy                  101.11951719
 Virial quotient                       -2.61642203
 !RHF STATE 1.1 Dipole moment           0.00000000     0.00000000     0.00000000
 Dipole moment /Debye                   0.00000000     0.00000000     0.00000000

 ELECTRON ORBITALS
 =================


   Orb  Occ    Energy  Couls-En    Coefficients

                                   1 1s      1 1s      1 1s      1 1s      1 1s      1 1s      1 3d0     1 3d2+    1 3d0     1 3d2+ 
                                   1 3d0     1 3d2+    1 3d0     1 3d2+    1 3d0     1 3d2+ 

   1.1   2    -3.8402  -20.1006  1.000000  0.000000 -0.000000  0.000000 -0.000000 -0.000000  0.000000  0.000000 -0.000000 -0.000000
                                -0.000000 -0.000000  0.000000  0.000000 -0.000000  0.000000

   2.1   2    -0.3285  -11.1259 -0.000000  0.000000  0.000000  0.000000  0.000000 -0.000000  0.000072  1.000000  0.000000  0.000001
                                -0.000000 -0.000000  0.000000  0.000000 -0.000000 -0.000000

   3.1   2    -0.3285  -11.1259 -0.000000  0.000000  0.000000  0.000000  0.000000 -0.000000  1.000000 -0.000072  0.000001 -0.000000
                                -0.000000  0.000000  0.000000 -0.000000 -0.000000  0.000000

                                   1 2px     1 2px     1 2px     1 2px     1 2px     1 2px     1 4f1+    1 4f3+ 

   1.2   2    -2.4023  -16.9228  1.000000 -0.000000  0.000000 -0.000000  0.000000  0.000000  0.000000  0.000000

                                   1 2py     1 2py     1 2py     1 2py     1 2py     1 2py     1 4f1-    1 4f3- 

   1.3   2    -2.4023  -16.9228  1.000000 -0.000000  0.000000 -0.000000  0.000000  0.000000  0.000000 -0.000000

                                   1 3d2-    1 3d2-    1 3d2-    1 3d2-    1 3d2- 

   1.4   2    -0.3285  -11.1259  1.000000  0.000001 -0.000000  0.000000 -0.000000

                                   1 2pz     1 2pz     1 2pz     1 2pz     1 2pz     1 2pz     1 4f0     1 4f2+ 

   1.5   2    -2.4023  -16.9228  1.000000 -0.000000  0.000000 -0.000000  0.000000  0.000000  0.000000  0.000000

                                   1 3d1+    1 3d1+    1 3d1+    1 3d1+    1 3d1+ 

   1.6   2    -0.3285  -11.1259  1.000000  0.000001 -0.000000  0.000000 -0.000000

                                   1 3d1-    1 3d1-    1 3d1-    1 3d1-    1 3d1- 

   1.7   2    -0.3285  -11.1259  1.000000  0.000001 -0.000000  0.000000 -0.000000

 HOMO      3.1    -0.328488 =      -8.9386eV
 LUMO      4.1     0.018733 =       0.5098eV
 LUMO-HOMO         0.347221 =       9.4484eV


 **********************************************************************************************************************************
 DATASETS  * FILE   NREC   LENGTH (MB)   RECORD NAMES
              1      19       19.92       500      610      700      900      950      970     1012      129      960     1100   
                                          VAR    BASINP    GEOM    SYMINP    ZMAT    AOBASIS   BASIS     P2S    ABASIS      S 
                                         1400     1410     1420     1200     1210     1080     1600     1650     1700   
                                           T        V       ECP      H0       H01     AOSYM     SMH    MOLCAS    OPER   

              2      49       78.75       200      700     1000      520     4302     2101     1001     4302     2102     1002   
                                        OPTIONS   GEOM     BASIS   MCVARS     RHF      RHF     BASIS     RHF      RHF     BASIS   
                                         4302     2103     1003     4302     2104     1004     4302     2105     1005     4302   
                                          RHF      RHF     BASIS     RHF      RHF     BASIS     RHF      RHF     BASIS     RHF  
                                         2106     1006     4302     2107     1007     4302     2108     1008     4302     2109   
                                          RHF     BASIS     RHF      RHF     BASIS     RHF      RHF     BASIS     RHF      RHF  
                                         1009     4302     2110     1010     4302     2111     1011     4302     2112     1012   
                                         BASIS     RHF      RHF     BASIS     RHF      RHF     BASIS     RHF      RHF     BASIS   
                                         4302     2113     1013     4302     2114     1014     4302     2115     4202   
                                          RHF      RHF     BASIS     RHF      RHF     BASIS     RHF      RHF      RHF  

 PROGRAMS   *        TOTAL       RHF       RHF       INT  UCCSD(T)      DATA       RHF       RHF       INT  UCCSD(T)      DATA
 CPU TIMES  *        21.31      0.20      0.04      1.43      0.32      0.00      0.05      0.03      0.80      0.24      0.00
 REAL TIME  *        33.47 SEC
 DISK USED  *         1.57 GB      
 SF USED    *         7.06 MB      
 GA USED    *         0.00 MB       (max)       0.00 MB       (current)
 **********************************************************************************************************************************

 
 RECORD   4202.2 RENAMED TO   4302.2


 **********************************************************************************************************************************
 DATASETS  * FILE   NREC   LENGTH (MB)   RECORD NAMES
              1      19       19.92       500      610      700      900      950      970     1012      129      960     1100   
                                          VAR    BASINP    GEOM    SYMINP    ZMAT    AOBASIS   BASIS     P2S    ABASIS      S 
                                         1400     1410     1420     1200     1210     1080     1600     1650     1700   
                                           T        V       ECP      H0       H01     AOSYM     SMH    MOLCAS    OPER   

              2      49       78.75       200      700     1000      520     4302     2101     1001     4302     2102     1002   
                                        OPTIONS   GEOM     BASIS   MCVARS     RHF      RHF     BASIS     RHF      RHF     BASIS   
                                         4302     2103     1003     4302     2104     1004     4302     2105     1005     4302   
                                          RHF      RHF     BASIS     RHF      RHF     BASIS     RHF      RHF     BASIS     RHF  
                                         2106     1006     4302     2107     1007     4302     2108     1008     4302     2109   
                                          RHF     BASIS     RHF      RHF     BASIS     RHF      RHF     BASIS     RHF      RHF  
                                         1009     4302     2110     1010     4302     2111     1011     4302     2112     1012   
                                         BASIS     RHF      RHF     BASIS     RHF      RHF     BASIS     RHF      RHF     BASIS   
                                         4302     2113     1013     4302     2114     1014     4302     2115     4302   
                                          RHF      RHF     BASIS     RHF      RHF     BASIS     RHF      RHF      RHF  

 PROGRAMS   *        TOTAL      DATA       RHF       RHF       INT  UCCSD(T)      DATA       RHF       RHF       INT  UCCSD(T)
 CPU TIMES  *        21.32      0.00      0.20      0.04      1.43      0.32      0.00      0.05      0.03      0.80      0.24
 REAL TIME  *        33.48 SEC
 DISK USED  *         1.57 GB      
 SF USED    *         7.06 MB      
 GA USED    *         0.00 MB       (max)       0.00 MB       (current)
 **********************************************************************************************************************************


 Current variables in basis input:

 Set= 1  F_EXP(1)            =       1.59283306

 PROGRAM * CCSD (Unrestricted open-shell coupled cluster)     Authors: C. Hampel, H.-J. Werner, 1991, M. Deegan, P.J. Knowles, 1992


 Convergence thresholds:  THRVAR = 1.00D-08  THRDEN = 1.00D-06

 CCSD(T)     terms to be evaluated (factor= 1.000)


 Number of closed-shell orbitals:   9 (   3   1   1   1   1   1   1   0 )
 Number of external orbitals:      47 (  13   7   7   4   7   4   4   1 )

 Memory could be reduced to 0.71 Mwords without degradation in triples

 Number of N-1 electron functions:              18
 Number of N-2 electron functions:             153
 Number of singly external CSFs:               144
 Number of doubly external CSFs:             32925
 Total number of CSFs:                       33069

 Molecular orbitals read from record     2113.2  Type=RHF/CANONICAL (state 1.1)

 Integral transformation finished. Total CPU:   0.19 sec, npass=  1  Memory used:   0.15 MW

 Starting RMP2 calculation

 ITER.      SQ.NORM     CORR.ENERGY   TOTAL ENERGY   ENERGY CHANGE        DEN1      VAR(S)    VAR(P)  DIIS     TIME
   1      1.09594664    -0.51437300  -127.01277222    -0.51437300    -0.00092824  0.20D-13  0.38D-03  1  1     0.19
   2      1.09684630    -0.51535221  -127.01375143    -0.00097920    -0.00000313  0.33D-15  0.21D-05  2  2     0.19
   3      1.09690629    -0.51538694  -127.01378616    -0.00003474    -0.00000001  0.18D-17  0.58D-08  3  3     0.20
   4      1.09690740    -0.51538716  -127.01378638    -0.00000022    -0.00000000  0.52D-20  0.44D-10  4  4     0.20

 Norm of t1 vector:      0.00000114      S-energy:    -0.00000000      T1 diagnostic:  0.00000019
 Norm of t2 vector:      0.31129954      P-energy:    -0.51538716
                                         Alpha-Beta:  -0.34726182
                                         Alpha-Alpha: -0.08406267
                                         Beta-Beta:   -0.08406267

 Spin contamination <S**2-Sz**2-Sz>     0.00000000
  Reference energy                   -126.498399219317
  RHF-RMP2 correlation energy          -0.515387163323
 !RHF-RMP2 energy                    -127.013786382640

 Starting UCCSD calculation

 ITER.      SQ.NORM     CORR.ENERGY   TOTAL ENERGY   ENERGY CHANGE        DEN1      VAR(S)    VAR(P)  DIIS     TIME
   1      1.08066985    -0.47721853  -126.97561775    -0.47721853    -0.01185634  0.28D-02  0.23D-02  1  1     0.21
   2      1.08744327    -0.48696898  -126.98536820    -0.00975046    -0.00080319  0.12D-04  0.33D-03  2  2     0.23
   3      1.08965555    -0.48758734  -126.98598656    -0.00061836    -0.00008952  0.60D-04  0.21D-04  3  3     0.25
   4      1.09077393    -0.48807744  -126.98647666    -0.00049011    -0.00000952  0.23D-05  0.40D-05  4  4     0.26
   5      1.09126064    -0.48818420  -126.98658342    -0.00010676    -0.00000063  0.81D-07  0.35D-06  5  5     0.27
   6      1.09134773    -0.48819684  -126.98659606    -0.00001263    -0.00000004  0.14D-08  0.24D-07  6  6     0.29
   7      1.09135388    -0.48819876  -126.98659798    -0.00000193    -0.00000000  0.18D-08  0.13D-08  6  1     0.30
   8      1.09135214    -0.48819810  -126.98659732     0.00000066    -0.00000000  0.15D-09  0.69D-10  6  2     0.31

 Norm of t1 vector:      0.06608548      S-energy:    -0.00000002      T1 diagnostic:  0.01101425
                                                                       D1 diagnostic:  0.02082354
 Norm of t2 vector:      0.29493194      P-energy:    -0.48819808
                                         Alpha-Beta:  -0.34329249
                                         Alpha-Alpha: -0.07245280
                                         Beta-Beta:   -0.07245280

 Spin contamination <S**2-Sz**2-Sz>     0.00000000

 Memory could be reduced to 0.70 Mwords without degradation in triples
 

  Correlated core orbitals:             1.1       1.2       1.3       1.5
  Orbital energies:                    -3.8402   -2.4023   -2.4023   -2.4023
 
  UCCSD core-core energy               -0.081274931711
  UCCSD core-valence energy            -0.168486452035
  UCCSD valence correlation energy     -0.238436719714
 

 RESULTS
 =======

  Reference energy                   -126.498399219317
  UCCSD singles energy                 -0.000000023679
  UCCSD pair energy                    -0.488198079782
  UCCSD correlation energy             -0.488198103461
  Triples (T) contribution             -0.012708309397
  Total correlation energy             -0.500906412858
 
  RHF-UCCSD energy                   -126.986597322778
  RHF-UCCSD[T] energy                -127.000412837357
  RHF-UCCSD-T energy                 -126.999079010726
 !RHF-UCCSD(T) energy                -126.999305632175

 Program statistics:

 Available memory in ccsd:               511999159
 Min. memory needed in ccsd:                106545
 Max. memory used in ccsd:                  145482
 Max. memory used in cckext:                180667 ( 8 integral passes)
 Max. memory used in cckint:                145714 ( 1 integral passes)



 **********************************************************************************************************************************
 DATASETS  * FILE   NREC   LENGTH (MB)   RECORD NAMES
              1      19       19.92       500      610      700      900      950      970     1012      129      960     1100   
                                          VAR    BASINP    GEOM    SYMINP    ZMAT    AOBASIS   BASIS     P2S    ABASIS      S 
                                         1400     1410     1420     1200     1210     1080     1600     1650     1700   
                                           T        V       ECP      H0       H01     AOSYM     SMH    MOLCAS    OPER   

              2      49       78.75       200      700     1000      520     4302     2101     1001     4302     2102     1002   
                                        OPTIONS   GEOM     BASIS   MCVARS     RHF      RHF     BASIS     RHF      RHF     BASIS   
                                         4302     2103     1003     4302     2104     1004     4302     2105     1005     4302   
                                          RHF      RHF     BASIS     RHF      RHF     BASIS     RHF      RHF     BASIS     RHF  
                                         2106     1006     4302     2107     1007     4302     2108     1008     4302     2109   
                                          RHF     BASIS     RHF      RHF     BASIS     RHF      RHF     BASIS     RHF      RHF  
                                         1009     4302     2110     1010     4302     2111     1011     4302     2112     1012   
                                         BASIS     RHF      RHF     BASIS     RHF      RHF     BASIS     RHF      RHF     BASIS   
                                         4302     2113     1013     4302     2114     1014     4302     2115     4302   
                                          RHF      RHF     BASIS     RHF      RHF     BASIS     RHF      RHF      RHF  

 PROGRAMS   *        TOTAL  UCCSD(T)      DATA       RHF       RHF       INT  UCCSD(T)      DATA       RHF       RHF       INT
 CPU TIMES  *        21.74      0.41      0.00      0.20      0.04      1.43      0.32      0.00      0.05      0.03      0.80
 REAL TIME  *        34.17 SEC
 DISK USED  *         1.61 GB      
 SF USED    *         7.06 MB      
 GA USED    *         0.00 MB       (max)       0.00 MB       (current)
 **********************************************************************************************************************************
 SETTING EVAL           =      -126.99930563  AU                              

 BFGS final minimum    =      -126.999305632       maximum gradient =           -0.46E-04

           variable                 value           gradient
 BFGS       F_PAR(1)                1.592833       -0.0000460


 **********************************************************************************************************************************
 DATASETS  * FILE   NREC   LENGTH (MB)   RECORD NAMES
              1      19       19.92       500      610      700      900      950      970     1012      129      960     1100   
                                          VAR    BASINP    GEOM    SYMINP    ZMAT    AOBASIS   BASIS     P2S    ABASIS      S 
                                         1400     1410     1420     1200     1210     1080     1600     1650     1700   
                                           T        V       ECP      H0       H01     AOSYM     SMH    MOLCAS    OPER   

              2      49       78.75       200      700     1000      520     4302     2101     1001     4302     2102     1002   
                                        OPTIONS   GEOM     BASIS   MCVARS     RHF      RHF     BASIS     RHF      RHF     BASIS   
                                         4302     2103     1003     4302     2104     1004     4302     2105     1005     4302   
                                          RHF      RHF     BASIS     RHF      RHF     BASIS     RHF      RHF     BASIS     RHF  
                                         2106     1006     4302     2107     1007     4302     2108     1008     4302     2109   
                                          RHF     BASIS     RHF      RHF     BASIS     RHF      RHF     BASIS     RHF      RHF  
                                         1009     4302     2110     1010     4302     2111     1011     4302     2112     1012   
                                         BASIS     RHF      RHF     BASIS     RHF      RHF     BASIS     RHF      RHF     BASIS   
                                         4302     2113     1013     4302     2114     1014     4302     2115     4302   
                                          RHF      RHF     BASIS     RHF      RHF     BASIS     RHF      RHF      RHF  

 PROGRAMS   *        TOTAL  MINIMIZE      DATA       RHF       RHF       INT  UCCSD(T)      DATA       RHF       RHF       INT
 CPU TIMES  *        21.74      0.42      0.00      0.20      0.04      1.43      0.32      0.00      0.05      0.03      0.80
 REAL TIME  *        34.17 SEC
 DISK USED  *         1.61 GB      
 SF USED    *         7.06 MB      
 GA USED    *         0.00 MB       (max)       0.00 MB       (current)
 **********************************************************************************************************************************

 MINIMIZE/USERDEF energy=   -126.999305632175

        UCCSD(T)        RHF-SCF         RHF-SCF         UCCSD(T)        RHF-SCF         RHF-SCF         UCCSD(T)        RHF-SCF 
   -126.99930563   -126.49839922   -126.49839922   -126.99930541   -126.49839922   -126.49839922   -126.99930554   -126.49839922
 **********************************************************************************************************************************
 Molpro calculation terminated
 Variable memory released
