
 Primary working directories    : /global/cscratch1/sd/bkincaid
 Secondary working directories  : /global/cscratch1/sd/bkincaid
 Wavefunction directory         : /global/homes/b/bkincaid/wfu/
 Main file repository           : /global/cscratch1/sd/bkincaid/

 SHA1      : 19cd028119e0e09f93f0674bd8af7968d9b3eff6
 NAME      : 2015.1.36
 ARCHNAME  : linux/x86_64
 FC        : /opt/cray/pe/craype/2.5.14/bin/ftn
 BLASLIB   : -L/opt/intel/compilers_and_libraries_2018.1.163/linux/mkl/lib/intel64 -Wl,-_start-group -lmkl_intel_ilp64 -lmkl_intel_thread -lmkl_core -Wl,-_end-group -liomp5
 id        : lbl

 Nodes     nprocs
 nid01727    11
 Number of processes for MPI-2 version of Molpro:   nprocs(total)=   12   nprocs(compute)=   11   nprocs(helper)=    1

 Using customized tuning parameters: mindgm=7; mindgv=16; mindgc=1; mindgr=1; noblas=0; minvec=7
 default implementation of scratch files=sf  

 ***,Calculation for IrO groundstate
 memory,1024,m
 gthresh,twoint=1.0E-15
 gthresh,throvl=1.0E-15
                                                                                 !symmetry,nosym
 
 basis={
 Including file /global/u1/b/bkincaid/molpro/Ir/molecules/tz/IrO/ecps/bk2.1/bk2.1
 
 Including file /global/u1/b/bkincaid/molpro/Ir/molecules/tz/IrO/ecps/bk2.1/tz.basis
 
 ecp,O,2,1,0
 3
 1,  12.30997,  6.000000
 3,  14.76962,  73.85984
 2,  13.71419, -47.87600
 1
 2,  13.65512,  85.86406
 
 Including file /global/u1/b/bkincaid/molpro/Ir/molecules/tz/IrO/ecps/bk2.1/O-aug-cc-CVTZ.basis
 }
 
 ne = 23
 
 A1=6
 B1=2
 B2=3
 A2=1
 
 
 do i=1,1
         if(i.eq.1) then
                 z(i) = 1.500
         else if(i.eq.2) then
                 z(i) = 1.600
         else if(i.eq.3) then
                 z(i) = 1.700
         else if(i.eq.4) then
                 z(i) = 1.800
         else if(i.eq.5) then
                 z(i) = 1.900
         endif
 
 geometry={
 2
 IrO
 Ir 0.0 0.0 0.0
 O 0.0 0.0 z(i)
 }
 
 
 {rhf,maxdis=35,iptyp='DIIS',nitord=30,maxit=60; shift,-1.0,-0.5
 wf,nelec=ne,spin=1,sym=4
 occ,A1,B1,B2,A2
 closed,A1,B1,B2,A2-1
 print,orbitals=2
         }
 scf(i)=energy
 {rccsd(t),shifts=0.2,shiftp=0.2,thrdis=1.0;diis,1,1,15,1;maxit,100;core}
 ccsd(i)=energy
 enddo
 
 table,z,scf,ccsd
 save
 type,csv
 

 Variables initialized (889), CPU time= 0.01 sec
 Commands  initialized (702), CPU time= 0.01 sec, 572 directives.
 Default parameters read. Elapsed time= 0.20 sec

 Checking input...
 Passed
1


                                         ***  PROGRAM SYSTEM MOLPRO  ***
                                       Copyright, TTI GmbH Stuttgart, 2015
                                    Version 2015.1 linked Dec 29 2018 15:55:43


 **********************************************************************************************************************************
 LABEL *   Calculation for IrO groundstate                                               
  64 bit mpp version                                                                     DATE: 16-Mar-21          TIME: 11:47:30  
 **********************************************************************************************************************************

 SHA1:             19cd028119e0e09f93f0674bd8af7968d9b3eff6
 **********************************************************************************************************************************

 THRESHOLDS:

 ZERO    =  1.00D-12  ONEINT  =  1.00D-12  TWOINT  =  1.00D-15  PREFAC  =  1.00D-14  LOCALI  =  1.00D-09  EORDER  =  1.00D-04
 ENERGY  =  0.00D+00  ETEST   =  0.00D+00  EDENS   =  0.00D+00  THRDEDEF=  1.00D-06  GRADIENT=  1.00D-02  STEP    =  1.00D-03
 ORBITAL =  1.00D-05  CIVEC   =  1.00D-05  COEFF   =  1.00D-04  PRINTCI =  5.00D-02  PUNCHCI =  9.90D+01  OPTGRAD =  3.00D-04
 OPTENERG=  1.00D-06  OPTSTEP =  3.00D-04  THRGRAD =  1.00D-10  COMPRESS=  1.00D-11  VARMIN  =  1.00D-07  VARMAX  =  1.00D-03
 THRDOUB =  0.00D+00  THRDIV  =  1.00D-05  THRRED  =  1.00D-07  THRPSP  =  1.00D+00  THRDC   =  1.00D-10  THRCS   =  1.00D-10
 THRNRM  =  1.00D-08  THREQ   =  0.00D+00  THRDE   =  1.00D+00  THRREF  =  1.00D-05  SPARFAC =  1.00D+00  THRDLP  =  1.00D-07
 THRDIA  =  1.00D-10  THRDLS  =  1.00D-07  THRGPS  =  0.00D+00  THRKEX  =  0.00D+00  THRDIS  =  2.00D-01  THRVAR  =  1.00D-10
 THRLOC  =  1.00D-06  THRGAP  =  1.00D-06  THRLOCT = -1.00D+00  THRGAPT = -1.00D+00  THRORB  =  1.00D-06  THRMLTP =  0.00D+00
 THRCPQCI=  1.00D-10  KEXTA   =  0.00D+00  THRCOARS=  0.00D+00  SYMTOL  =  1.00D-06  GRADTOL =  1.00D-06  THROVL  =  1.00D-08
 THRORTH =  1.00D-08  GRID    =  1.00D-06  GRIDMAX =  1.00D-03  DTMAX   =  0.00D+00  THROCCDE=  1.00D-01  THROCCDE=  1.00D-01



 THRESHOLDS:

 ZERO    =  1.00D-12  ONEINT  =  1.00D-12  TWOINT  =  1.00D-15  PREFAC  =  1.00D-14  LOCALI  =  1.00D-09  EORDER  =  1.00D-04
 ENERGY  =  0.00D+00  ETEST   =  0.00D+00  EDENS   =  0.00D+00  THRDEDEF=  1.00D-06  GRADIENT=  1.00D-02  STEP    =  1.00D-03
 ORBITAL =  1.00D-05  CIVEC   =  1.00D-05  COEFF   =  1.00D-04  PRINTCI =  5.00D-02  PUNCHCI =  9.90D+01  OPTGRAD =  3.00D-04
 OPTENERG=  1.00D-06  OPTSTEP =  3.00D-04  THRGRAD =  1.00D-10  COMPRESS=  1.00D-11  VARMIN  =  1.00D-07  VARMAX  =  1.00D-03
 THRDOUB =  0.00D+00  THRDIV  =  1.00D-05  THRRED  =  1.00D-07  THRPSP  =  1.00D+00  THRDC   =  1.00D-10  THRCS   =  1.00D-10
 THRNRM  =  1.00D-08  THREQ   =  0.00D+00  THRDE   =  1.00D+00  THRREF  =  1.00D-05  SPARFAC =  1.00D+00  THRDLP  =  1.00D-07
 THRDIA  =  1.00D-10  THRDLS  =  1.00D-07  THRGPS  =  0.00D+00  THRKEX  =  0.00D+00  THRDIS  =  2.00D-01  THRVAR  =  1.00D-10
 THRLOC  =  1.00D-06  THRGAP  =  1.00D-06  THRLOCT = -1.00D+00  THRGAPT = -1.00D+00  THRORB  =  1.00D-06  THRMLTP =  0.00D+00
 THRCPQCI=  1.00D-10  KEXTA   =  0.00D+00  THRCOARS=  0.00D+00  SYMTOL  =  1.00D-06  GRADTOL =  1.00D-06  THROVL  =  1.00D-15
 THRORTH =  1.00D-08  GRID    =  1.00D-06  GRIDMAX =  1.00D-03  DTMAX   =  0.00D+00  THROCCDE=  1.00D-01  THROCCDE=  1.00D-01



 Variable memory set to 1024000000 words,  buffer space   230000 words

 SETTING BASIS          =    USERDEF
 SETTING NE             =        23.00000000                                  
 SETTING A1             =         6.00000000                                  
 SETTING B1             =         2.00000000                                  
 SETTING B2             =         3.00000000                                  
 SETTING A2             =         1.00000000                                  

 DO I                   =         1.00000000   
 SETTING Z(1)           =         1.50000000                                  

Geometry recognized as XYZ



 Recomputing integrals since basis changed


 Using spherical harmonics



 PROGRAM * SEWARD (Integral evaluation for generally contracted gaussian basis sets)     Author: Roland Lindh, 1990

 Geometry written to block  1 of record 700


 Point group  C2v 



 ATOMIC COORDINATES

 NR  ATOM    CHARGE       X              Y              Z

   1  IR     17.00    0.000000000    0.000000000    0.000000000
   2  O       6.00    0.000000000    0.000000000    2.834589187

 Bond lengths in Bohr (Angstrom)

 1-2  2.834589187
     ( 1.500000000)

 NUCLEAR CHARGE:                   23
 NUMBER OF PRIMITIVE AOS:         556
 NUMBER OF SYMMETRY AOS:          455
 NUMBER OF CONTRACTIONS:          455   ( 186A1  + 109B1  + 109B2  +  51A2  )
 NUMBER OF CORE ORBITALS:           4   (   2A1  +   1B1  +   1B2  +   0A2  )
 NUMBER OF VALENCE ORBITALS:       10   (   5A1  +   2B1  +   2B2  +   1A2  )


 NUCLEAR REPULSION ENERGY   35.98405034

 EXTRA SYMMETRY OF AOS IN SYMMETRY 1:   1 1 1 1 1 1 1 1 1 1   1 1 1 1 1 1 1 1 1 1   1 1 1 1 1 1 1 1 1 1   1 1 1 1 1 1 1 1 1 1
                                        1 1 1 1 1 1 1 1 1 1   1 1 1 1 1 1 1 1 1 1   1 1 1 1 1 1 1 2 1 2   1 2 1 2 1 2 1 2 1 2
                                        1 2 1 2 1 2 1 2 1 2   1 2 1 2 1 2 1 2 1 2   1 2 1 2 1 2 1 2 1 2   1 2 1 2 1 2 1 2 1 2
                                        1 2 1 2 1 2 1 2 1 2   1 2 1 2 1 2 1 2 1 2   1 2 1 2 1 3 2 1 3 2   1 3 2 1 1 1 1 1 1 1
                                        1 1 1 1 1 1 1 1 1 1   1 1 1 1 1 2 1 2 1 2   1 2 1 2 1 2
 EXTRA SYMMETRY OF AOS IN SYMMETRY 2:   1 1 1 1 1 1 1 1 1 1   1 1 1 1 1 1 1 1 1 1   1 1 1 1 1 1 1 1 1 1   1 1 1 1 1 1 1 1 1 1
                                        1 1 1 1 1 1 1 1 1 1   1 1 1 1 2 1 2 1 2 1   2 1 2 1 2 1 2 1 2 1   2 1 2 1 2 1 2 1 2 1
                                        2 1 2 1 2 1 2 1 2 1   2 1 2 1 1 1 1 1 1 1   1 1 1 1 1 1 2 1 2
 EXTRA SYMMETRY OF AOS IN SYMMETRY 3:   1 1 1 1 1 1 1 1 1 1   1 1 1 1 1 1 1 1 1 1   1 1 1 1 1 1 1 1 1 1   1 1 1 1 1 1 1 1 1 1
                                        1 1 1 1 1 1 1 1 1 1   1 1 1 1 2 1 2 1 2 1   2 1 2 1 2 1 2 1 2 1   2 1 2 1 2 1 2 1 2 1
                                        2 1 2 1 2 1 2 1 2 1   2 1 2 1 1 1 1 1 1 1   1 1 1 1 1 1 2 1 2
 EXTRA SYMMETRY OF AOS IN SYMMETRY 4:   1 1 1 1 1 1 1 1 1 1   1 1 1 1 1 1 1 1 1 1   1 1 1 1 1 1 1 1 1 1   1 1 1 1 1 1 1 1 1 1
                                        2 1 2 1 2 1 1 1 1 1   1

 Eigenvalues of metric

         1 0.666E-07 0.913E-06 0.334E-05 0.942E-05 0.155E-04 0.157E-04 0.247E-04 0.409E-04
         2 0.898E-07 0.370E-05 0.152E-04 0.517E-04 0.539E-04 0.125E-03 0.139E-03 0.432E-03
         3 0.898E-07 0.370E-05 0.152E-04 0.517E-04 0.539E-04 0.125E-03 0.139E-03 0.432E-03
         4 0.155E-04 0.538E-04 0.146E-03 0.607E-03 0.970E-03 0.207E-02 0.546E-02 0.578E-02


 Contracted 2-electron integrals neglected if value below      1.0D-15
 AO integral compression algorithm  1   Integral accuracy      1.0D-15

     4915.986 MB (compressed) written to integral file ( 38.4%)

     Node minimum: 279.183 MB, node maximum: 913.834 MB


 NUMBER OF SORTED TWO-ELECTRON INTEGRALS:  125132898.     BUFFER LENGTH:  32768
 NUMBER OF SEGMENTS:   4  SEGMENT LENGTH:   31982049      RECORD LENGTH: 524288

 Memory used in sort:      32.54 MW

 SORT1 READ  1600176772. AND WROTE    49745475. INTEGRALS IN    144 RECORDS. CPU TIME:    23.49 SEC, REAL TIME:    31.50 SEC
 SORT2 READ   545769641. AND WROTE  1376419418. INTEGRALS IN  12639 RECORDS. CPU TIME:     1.88 SEC, REAL TIME:     2.97 SEC

 Node minimum:   125060912.  Node maximum:   125200036. integrals

 OPERATOR DM      FOR CENTER  0  COORDINATES:    0.000000    0.000000    0.000000


 **********************************************************************************************************************************
 DATASETS  * FILE   NREC   LENGTH (MB)   RECORD NAMES
              1      19       22.49       500      610      700      900      950      970     1000      129      960     1100   
                                          VAR    BASINP    GEOM    SYMINP    ZMAT    AOBASIS   BASIS     P2S    ABASIS      S 
                                         1400     1410     1420     1200     1210     1080     1600     1650     1700   
                                           T        V       ECP      H0       H01     AOSYM     SMH    MOLCAS    OPER   

 PROGRAMS   *        TOTAL       INT
 CPU TIMES  *       206.07    205.91
 REAL TIME  *       216.94 SEC
 DISK USED  *        11.45 GB      
 GA USED    *         0.00 MB       (max)       0.00 MB       (current)
 **********************************************************************************************************************************


 PROGRAM * RHF-SCF (OPEN SHELL)       Authors: W. Meyer, H.-J. Werner


 NUMBER OF ELECTRONS:      12+   11-    SPACE SYMMETRY=4    SPIN SYMMETRY: Doublet 
 CONVERGENCE THRESHOLDS:    1.00E-05 (Density)    1.00E-07 (Energy)
 MAX. NUMBER OF ITERATIONS:       60
 INTERPOLATION TYPE:            DIIS
 INTERPOLATION STEPS:              2 (START)      1 (STEP)
 LEVEL SHIFTS:                 -1.00 (CLOSED) -0.50 (OPEN) 

 Number of closed-shell orbitals:   11 (   6   2   3   0 )
 Number of open-shell orbitals:      1 (   0   0   0   1 )


 Orbital guess generated from atomic densities. Full valence occupancy:    7   3   3   1

 Molecular orbital dump at record        2100.2

 ITERATION    DDIFF          GRAD             ENERGY        2-EL.EN.            DIPOLE MOMENTS         DIIS   ORB.
    1      0.000D+00      0.000D+00      -119.32659032    245.324680    0.00000    0.00000   -1.66580    0    start
    2      0.000D+00      0.460D-02      -119.35047816    244.654812    0.00000    0.00000   -1.16921    1    diag,B
    3      0.331D-02      0.157D-02      -119.35522992    244.584570    0.00000    0.00000   -1.14759    2    diag,B
    4      0.270D-02      0.824D-03      -119.35775126    244.478673    0.00000    0.00000   -1.06668    3    diag,B
    5      0.308D-02      0.503D-03      -119.35943587    244.331776    0.00000    0.00000   -1.01202    4    diag,B
    6      0.331D-02      0.303D-03      -119.36032807    244.191017    0.00000    0.00000   -0.95904    5    diag,B
    7      0.197D-02      0.167D-03      -119.36064067    244.091779    0.00000    0.00000   -0.91937    6    diag,B
    8      0.958D-03      0.897D-04      -119.36072643    244.049008    0.00000    0.00000   -0.89646    7    diag,B
    9      0.692D-03      0.508D-04      -119.36075529    244.025361    0.00000    0.00000   -0.88297    8    diag,B
   10      0.274D-03      0.271D-04      -119.36076331    244.015042    0.00000    0.00000   -0.87713    9    orth
   11      0.260D-03      0.167D-04      -119.36076678    244.009089    0.00000    0.00000   -0.87436   10    diag,B
   12      0.154D-03      0.100D-04      -119.36076813    244.006206    0.00000    0.00000   -0.87281   11    diag,B
   13      0.898D-04      0.542D-05      -119.36076851    244.005080    0.00000    0.00000   -0.87189   12    diag,B
   14      0.500D-04      0.308D-05      -119.36076860    244.004758    0.00000    0.00000   -0.87143   13    diag,B
   15      0.296D-04      0.186D-05      -119.36076863    244.004561    0.00000    0.00000   -0.87112   14    diag,B
   16      0.125D-04      0.151D-05      -119.36076864    244.004495    0.00000    0.00000   -0.87100   15    diag,B
   17      0.432D-05      0.101D-05      -119.36076864    244.004447    0.00000    0.00000   -0.87095    0    orth

 Final alpha occupancy:   6   2   3   1
 Final beta  occupancy:   6   2   3   0

 !RHF STATE 1.4 Energy               -119.360768642837
 Nuclear energy                        35.98405034
 One-electron energy                 -277.34704269
 Two-electron energy                  122.00222370
 Virial quotient                       -2.51127869
 !RHF STATE 1.4 Dipole moment           0.00000000     0.00000000    -0.87094695
 Dipole moment /Debye                   0.00000000     0.00000000    -2.21358135

 ELECTRON ORBITALS
 =================


   Orb  Occ    Energy  Couls-En    Coefficients

                                   1 1s      1 1s      1 1s      1 1s      1 1s      1 1s      1 1s      1 1s      1 1s      1 1s   
                                   1 1s      1 1s      1 1s      1 1s      1 1s      1 1s      1 1s      1 1s      1 1s      1 1s   
                                   1 1s      1 1s      1 1s      1 1s      1 1s      1 1s      1 1s      1 1s      1 1s      1 1s   
                                   1 1s      1 1s      1 1s      1 1s      1 1s      1 2pz     1 2pz     1 2pz     1 2pz     1 2pz  
                                   1 2pz     1 2pz     1 2pz     1 2pz     1 2pz     1 2pz     1 2pz     1 2pz     1 2pz     1 2pz  
                                   1 2pz     1 2pz     1 2pz     1 2pz     1 2pz     1 2pz     1 2pz     1 2pz     1 2pz     1 2pz  
                                   1 2pz     1 2pz     1 2pz     1 2pz     1 2pz     1 2pz     1 3d0     1 3d2+    1 3d0     1 3d2+ 
                                   1 3d0     1 3d2+    1 3d0     1 3d2+    1 3d0     1 3d2+    1 3d0     1 3d2+    1 3d0     1 3d2+ 
                                   1 3d0     1 3d2+    1 3d0     1 3d2+    1 3d0     1 3d2+    1 3d0     1 3d2+    1 3d0     1 3d2+ 
                                   1 3d0     1 3d2+    1 3d0     1 3d2+    1 3d0     1 3d2+    1 3d0     1 3d2+    1 3d0     1 3d2+ 
                                   1 3d0     1 3d2+    1 3d0     1 3d2+    1 3d0     1 3d2+    1 3d0     1 3d2+    1 3d0     1 3d2+ 
                                   1 4f0     1 4f2+    1 4f0     1 4f2+    1 4f0     1 4f2+    1 4f0     1 4f2+    1 4f0     1 4f2+ 
                                   1 4f0     1 4f2+    1 4f0     1 4f2+    1 4f0     1 4f2+    1 4f0     1 4f2+    1 4f0     1 4f2+ 
                                   1 4f0     1 4f2+    1 4f0     1 4f2+    1 4f0     1 4f2+    1 4f0     1 4f2+    1 4f0     1 4f2+ 
                                   1 4f0     1 4f2+    1 4f0     1 4f2+    1 5g0     1 5g4+    1 5g2+    1 5g0     1 5g4+    1 5g2+ 
                                   1 5g0     1 5g4+    1 5g2+    2 1s      2 1s      2 1s      2 1s      2 1s      2 1s      2 1s   
                                   2 1s      2 1s      2 1s      2 1s      2 1s      2 1s      2 2pz     2 2pz     2 2pz     2 2pz  
                                   2 2pz     2 2pz     2 2pz     2 2pz     2 3d0     2 3d2+    2 3d0     2 3d2+    2 3d0     2 3d2+ 
                                   2 3d0     2 3d2+    2 4f0     2 4f2+    2 4f0     2 4f2+ 

   1.1   2    -4.3037  -21.0778 -0.000000  0.000000 -0.000000  0.000000 -0.000000  0.000000 -0.000000  0.000000 -0.000000  0.000000
                                -0.000001  0.000003 -0.000007  0.000017 -0.000043  0.000107 -0.000266  0.000653 -0.001588  0.003815
                                -0.009102  0.021757 -0.047958  0.033208  0.334351 -0.966319  0.335688 -0.403390  0.961525 -0.050356
                                 0.550728  0.019260 -0.018508 -0.002855  0.000372 -0.000000  0.000000 -0.000000  0.000000 -0.000000
                                 0.000000 -0.000000  0.000000 -0.000000  0.000000 -0.000000  0.000000 -0.000000  0.000000 -0.000000
                                 0.000001 -0.000003  0.000015 -0.000124  0.000761 -0.001867  0.003030 -0.006014  0.010724 -0.272057
                                 0.276076 -0.010829 -0.007179 -0.007283 -0.000547  0.000213  0.000000 -0.000000 -0.000000  0.000000
                                 0.000000 -0.000000 -0.000000  0.000000  0.000000 -0.000000 -0.000002  0.000000  0.000005 -0.000000
                                -0.000011  0.000000  0.000026 -0.000001 -0.000054  0.000004  0.000101 -0.000023 -0.000111  0.000185
                                 0.000741 -0.000642 -0.005115 -0.000615  0.005289  0.000756 -0.000999  0.003211  0.009032  0.000240
                                -0.001299  0.001508 -0.004513 -0.000220 -0.003336 -0.000114 -0.001563  0.000001  0.000202 -0.000002
                                 0.000000 -0.000000 -0.000000  0.000000  0.000000 -0.000000 -0.000001  0.000000  0.000003 -0.000000
                                -0.000011 -0.000004  0.000020 -0.000007 -0.000102 -0.000046  0.000337  0.000133 -0.000070 -0.000174
                                -0.002362 -0.000537  0.003346 -0.000684 -0.002357  0.000247 -0.001018  0.000049 -0.000898  0.000091
                                -0.000014 -0.000038  0.000017  0.000015  0.000073  0.000049 -0.000115  0.000532  0.000765 -0.000707
                                -0.000988  0.000372 -0.000440 -0.000000  0.000000 -0.000001  0.000007 -0.000067 -0.000882 -0.002938
                                 0.011552  0.001649  0.014641 -0.000215  0.000906  0.013794 -0.000132 -0.001405 -0.004192 -0.010744
                                -0.007128 -0.000120  0.000034 -0.002661  0.001434  0.000054  0.004044  0.000479  0.000053  0.000002
                                 0.000713  0.000156 -0.000988 -0.000134 -0.000352 -0.000273

   2.1   2    -2.5829  -17.3479 -0.000000  0.000000 -0.000000  0.000000 -0.000000  0.000000 -0.000000  0.000000 -0.000000  0.000000
                                -0.000000  0.000000 -0.000000  0.000000 -0.000000  0.000000 -0.000000 -0.000000  0.000001 -0.000004
                                 0.000019 -0.000086  0.000230  0.001066 -0.012077  0.039872 -0.087516  0.101998 -0.087438  0.090865
                                -0.062896 -0.040398 -0.032578 -0.013363  0.001937  0.000000 -0.000000  0.000000 -0.000000  0.000000
                                -0.000000  0.000000 -0.000000  0.000000 -0.000000  0.000001 -0.000003  0.000007 -0.000018  0.000036
                                -0.000050 -0.000092  0.001847 -0.019029  0.118011 -0.259498 -0.119314 -0.010485  0.391566 -0.740767
                                 1.294691  0.217277 -0.006482 -0.019226 -0.002145  0.000561  0.000000  0.000000 -0.000000 -0.000000
                                 0.000000  0.000000 -0.000000 -0.000000  0.000002  0.000000 -0.000006 -0.000000  0.000016  0.000000
                                -0.000041 -0.000000  0.000093  0.000000 -0.000198 -0.000001  0.000422  0.000010 -0.000999 -0.000105
                                 0.004975  0.000458 -0.017080  0.000038  0.017558 -0.000191 -0.014511 -0.001607  0.029514 -0.000988
                                -0.015160 -0.001204 -0.010489  0.001255 -0.009467  0.001005 -0.003424  0.000058 -0.000103  0.000012
                                 0.000000  0.000000 -0.000000 -0.000000  0.000002  0.000000 -0.000006 -0.000001  0.000018  0.000002
                                -0.000021 -0.000013  0.000159  0.000002 -0.000144 -0.000097  0.000866 -0.000043  0.000221 -0.000162
                                -0.003732  0.000340  0.014125 -0.001764 -0.006993 -0.000280 -0.002241 -0.001799 -0.003392 -0.000382
                                 0.000872  0.000045 -0.000605 -0.000017  0.000767 -0.000009  0.000094  0.001411 -0.000020  0.000132
                                -0.001796  0.000010  0.000734 -0.000000  0.000001 -0.000007  0.000049 -0.000504 -0.007430 -0.023786
                                 0.076248  0.018454  0.071261  0.000516  0.007131  0.039363 -0.000805 -0.008562 -0.026852 -0.053840
                                -0.037779 -0.000664  0.000208 -0.005921  0.005488  0.000127  0.016856  0.000967  0.000214 -0.000009
                                 0.006195  0.000446 -0.003258 -0.000398 -0.002566 -0.000509

   3.1   2    -1.3380  -12.6110  0.000000 -0.000000  0.000000 -0.000000  0.000000 -0.000000  0.000000 -0.000000  0.000000 -0.000000
                                 0.000000 -0.000000  0.000001 -0.000002  0.000006 -0.000014  0.000035 -0.000087  0.000211 -0.000509
                                 0.001218 -0.002934  0.006581 -0.005053 -0.045416  0.142190 -0.068381  0.077867 -0.169815 -0.063425
                                -0.003953 -0.016539 -0.092311 -0.025635  0.004142  0.000000 -0.000000  0.000000 -0.000000  0.000000
                                -0.000000  0.000000 -0.000000  0.000000 -0.000000  0.000000 -0.000001  0.000002 -0.000005  0.000013
                                -0.000038  0.000138 -0.000761  0.006017 -0.036038  0.082490 -0.002634  0.046604 -0.136569 -0.191833
                                 0.033548 -0.079080 -0.063988 -0.044630 -0.002634  0.001165  0.000000 -0.000000 -0.000000  0.000000
                                 0.000000 -0.000000 -0.000000  0.000000  0.000001 -0.000000 -0.000003  0.000000  0.000009 -0.000000
                                -0.000021  0.000001  0.000043 -0.000002 -0.000054  0.000004 -0.000203 -0.000004  0.003370 -0.000027
                                -0.010570  0.000045 -0.021320  0.000623  0.020875 -0.000611  0.043430 -0.000567  0.026199 -0.001939
                                 0.081030  0.001069  0.049921 -0.000147 -0.018624 -0.000077 -0.006796 -0.000292  0.001108  0.000009
                                 0.000000 -0.000000 -0.000000  0.000000  0.000000 -0.000000 -0.000000  0.000001  0.000005 -0.000002
                                 0.000065  0.000012  0.000160 -0.000000  0.000457  0.000089 -0.000116 -0.000127  0.003401  0.000366
                                -0.006854 -0.000353  0.023214  0.001423 -0.005657  0.001613  0.007535  0.001937 -0.006051  0.001226
                                 0.000489 -0.000416  0.000409  0.000123  0.001902  0.000039  0.000016  0.004084 -0.000089  0.001340
                                -0.000165 -0.000137  0.000450 -0.000001  0.000006 -0.000047  0.000313 -0.003259 -0.048676 -0.159643
                                 0.551001  0.148783  0.433203 -0.003332  0.047092  0.106143 -0.001128 -0.010953 -0.031647 -0.076554
                                -0.090430 -0.000468  0.000305 -0.020834  0.003934 -0.000511  0.022237  0.000100  0.000149 -0.000132
                                 0.016672 -0.001504 -0.002785 -0.000462 -0.004062 -0.001093

   4.1   2    -0.6658  -11.1538 -0.000000  0.000000 -0.000000  0.000000 -0.000000  0.000000 -0.000000  0.000000 -0.000000  0.000000
                                -0.000000  0.000000 -0.000000  0.000001 -0.000002  0.000004 -0.000010  0.000026 -0.000063  0.000157
                                -0.000398  0.001041 -0.002436 -0.000434  0.037403 -0.125342  0.206166 -0.239889  0.251124 -0.177856
                                 0.143990  0.021484  0.100434  0.053384 -0.008877 -0.000000  0.000000 -0.000000  0.000000 -0.000000
                                 0.000000 -0.000000  0.000000 -0.000000  0.000000 -0.000001  0.000003 -0.000007  0.000018 -0.000043
                                 0.000101 -0.000245  0.000738 -0.003644  0.018971 -0.045050  0.040046 -0.063931  0.067700  1.081823
                                -1.030428  0.087390  0.035935  0.058545  0.010005 -0.003392 -0.000000 -0.000000  0.000000  0.000000
                                -0.000000 -0.000000  0.000001  0.000000 -0.000004 -0.000000  0.000012  0.000000 -0.000034 -0.000001
                                 0.000085  0.000003 -0.000184 -0.000009  0.000310  0.000031  0.000064 -0.000167 -0.006916  0.001330
                                 0.020747 -0.004714  0.065373 -0.002614 -0.066966  0.002508 -0.091538  0.018856 -0.102421  0.001332
                                -0.153773  0.028531 -0.166207  0.024322 -0.042643  0.009542  0.013470  0.000538 -0.000704 -0.000013
                                -0.000000  0.000000  0.000001 -0.000000 -0.000004  0.000000  0.000013 -0.000001 -0.000043  0.000002
                                 0.000015 -0.000009 -0.000442  0.000005  0.000097 -0.000067 -0.002260  0.000188 -0.002647 -0.000523
                                 0.015476  0.000852 -0.044822 -0.001713  0.024270  0.000037 -0.016816 -0.001591  0.001458 -0.000776
                                 0.000544 -0.000068  0.001748 -0.000068 -0.002258  0.000200 -0.000375 -0.007073  0.000371 -0.001225
                                 0.001092  0.000671 -0.000564 -0.000000  0.000002 -0.000013  0.000083 -0.000864 -0.013630 -0.043477
                                 0.138927  0.046952  0.138723  0.002006  0.012684 -0.089247  0.007052  0.074313  0.240675  0.393247
                                 0.257434  0.004573 -0.001844  0.029181 -0.012165 -0.000426 -0.039986 -0.001079 -0.000485 -0.000050
                                -0.018438 -0.000999  0.005943  0.001395  0.007374  0.000644

   5.1   2    -0.4863  -11.4693  0.000000 -0.000000  0.000000 -0.000000  0.000000 -0.000000  0.000000 -0.000000  0.000000 -0.000000
                                 0.000000 -0.000000  0.000000 -0.000001  0.000002 -0.000005  0.000013 -0.000032  0.000077 -0.000186
                                 0.000447 -0.001081  0.002438 -0.001877 -0.017193  0.055122 -0.029936  0.033544 -0.074841  0.007508
                                -0.047432  0.057469  0.031742 -0.002464  0.000847  0.000000 -0.000000  0.000000 -0.000000  0.000000
                                -0.000000  0.000000 -0.000000  0.000000 -0.000000  0.000000 -0.000001  0.000002 -0.000004  0.000010
                                -0.000023  0.000056 -0.000168  0.000828 -0.004311  0.010434 -0.014643  0.023406 -0.025974  0.183892
                                -0.201803 -0.003398  0.017319  0.001131 -0.000965  0.000398  0.000000 -0.000000 -0.000000  0.000000
                                 0.000000 -0.000000 -0.000000  0.000000  0.000001 -0.000001 -0.000002  0.000005  0.000005 -0.000015
                                -0.000013  0.000042  0.000032 -0.000117 -0.000075  0.000408  0.000224 -0.002228 -0.001099  0.017865
                                 0.004307 -0.063634 -0.003489 -0.034529  0.003915  0.034040 -0.016611  0.250313  0.013429  0.010190
                                -0.030710  0.392841 -0.009930  0.347095 -0.007697  0.169959 -0.003790  0.026789  0.000241 -0.000810
                                 0.000000  0.000000 -0.000000 -0.000000  0.000000  0.000000 -0.000001 -0.000001  0.000004  0.000002
                                 0.000007 -0.000005  0.000056  0.000018  0.000037 -0.000047  0.000392  0.000407  0.000004 -0.000980
                                -0.000676  0.002279  0.004532 -0.003285 -0.001670  0.003659  0.006613 -0.004754  0.000770 -0.003026
                                -0.000926 -0.000360  0.000014 -0.000072  0.000719  0.001750  0.000318  0.001109  0.002910  0.002806
                                 0.001938  0.004095  0.003040  0.000000 -0.000000  0.000001 -0.000004  0.000046  0.000698  0.002494
                                -0.011183 -0.002960 -0.017438  0.000088 -0.000684  0.002017 -0.000951 -0.009998 -0.032385 -0.051236
                                -0.036633 -0.000594  0.000249 -0.004396  0.000453  0.002424  0.001792  0.008235  0.000014  0.000122
                                 0.000785  0.003574 -0.000201 -0.002092 -0.000334 -0.002165

   6.1   2    -0.3360   -8.7260  0.000000 -0.000000  0.000000 -0.000000  0.000000 -0.000000  0.000000 -0.000000  0.000000 -0.000000
                                 0.000000 -0.000001  0.000002 -0.000006  0.000015 -0.000036  0.000090 -0.000222  0.000539 -0.001298
                                 0.003109 -0.007492  0.016884 -0.013853 -0.111974  0.358112 -0.154811  0.172909 -0.452027  0.014450
                                -0.368413  0.309727  0.592458  0.189568 -0.001709  0.000000 -0.000000  0.000000 -0.000000  0.000000
                                -0.000000  0.000000 -0.000000  0.000000 -0.000000  0.000000 -0.000001  0.000002 -0.000005  0.000013
                                -0.000030  0.000069 -0.000173  0.000608 -0.002604  0.006580 -0.022920  0.032960 -0.027520  0.455821
                                -0.464001  0.013050 -0.024903 -0.042443 -0.007114  0.000613  0.000000  0.000000 -0.000000 -0.000000
                                 0.000000  0.000000 -0.000000 -0.000000  0.000000  0.000000 -0.000001 -0.000001  0.000004  0.000002
                                -0.000011 -0.000005  0.000033  0.000014 -0.000134 -0.000049  0.000817  0.000262 -0.006856 -0.002088
                                 0.024463  0.007498  0.014246  0.003861 -0.013768 -0.003962 -0.097649 -0.029943 -0.001763 -0.001195
                                -0.160123 -0.044113 -0.132025 -0.035241 -0.081136 -0.016358 -0.021975 -0.004463  0.001326 -0.000075
                                 0.000000 -0.000000 -0.000000  0.000000  0.000001 -0.000000 -0.000002  0.000001  0.000008 -0.000002
                                 0.000008  0.000015  0.000100  0.000004  0.000037  0.000120  0.000981 -0.000320 -0.001958  0.000757
                                 0.004052 -0.000593  0.000499  0.002920  0.003658  0.000487  0.009363  0.002531  0.006116  0.002239
                                -0.001356 -0.000076  0.001987  0.000245 -0.000165  0.000379 -0.000905 -0.001301 -0.000029 -0.001135
                                -0.000994 -0.000215 -0.001353  0.000000 -0.000001  0.000005 -0.000033  0.000336  0.005831  0.015947
                                -0.045515 -0.014739 -0.069696 -0.003884 -0.004941 -0.044548 -0.002112 -0.021821 -0.069706 -0.111467
                                -0.099398 -0.001137  0.000559 -0.026149 -0.002637 -0.000272 -0.006666 -0.000093 -0.000129  0.000002
                                 0.000281  0.000366  0.001561 -0.000164  0.000817 -0.001002

   7.1   0     0.0128   -3.6417 -0.000000  0.000000 -0.000000  0.000000 -0.000000  0.000000 -0.000000  0.000000 -0.000000  0.000000
                                -0.000000  0.000000 -0.000000  0.000001 -0.000003  0.000008 -0.000019  0.000046 -0.000112  0.000267
                                -0.000626  0.001460 -0.003233  0.004036  0.009267 -0.026105 -0.079378  0.098135 -0.051641  0.275847
                                -0.195225  0.132129 -0.575141 -1.342297  1.327523 -0.000000  0.000000 -0.000000  0.000000 -0.000000
                                 0.000000 -0.000000  0.000000 -0.000000  0.000001 -0.000002  0.000006 -0.000017  0.000042 -0.000101
                                 0.000234 -0.000536  0.001354 -0.004886  0.021416 -0.053702  0.163991 -0.235906  0.199632 -3.035840
                                 3.118308 -0.076073  0.117128 -0.828398  0.144971 -0.618896  0.000000 -0.000000 -0.000000  0.000000
                                 0.000000 -0.000000 -0.000001  0.000000  0.000004 -0.000000 -0.000014  0.000001  0.000039 -0.000002
                                -0.000099  0.000004  0.000222 -0.000010 -0.000445  0.000025  0.000696 -0.000091  0.000747  0.000571
                                -0.000250 -0.002093 -0.045210 -0.000037  0.046712  0.000019  0.010055  0.007996  0.123371 -0.002017
                                -0.035795  0.012444  0.122005  0.008476  0.021074  0.007296 -0.092271  0.002822  0.240177  0.016019
                                -0.000000 -0.000000  0.000000  0.000000 -0.000002 -0.000000  0.000007  0.000001 -0.000023 -0.000002
                                 0.000038  0.000008 -0.000191 -0.000010  0.000333  0.000048 -0.003182 -0.000340  0.007938  0.000984
                                -0.014595 -0.001126  0.015747  0.001522 -0.022670 -0.001235  0.012717  0.000930 -0.034361 -0.004177
                                -0.026386  0.000936  0.047649 -0.007549 -0.000224  0.000186  0.000286 -0.000710  0.000749 -0.000078
                                 0.000100  0.000815  0.001184 -0.000000  0.000000 -0.000002  0.000011 -0.000097 -0.002627 -0.003257
                                -0.023861  0.000457  0.018770  0.007174  0.001417  1.031251  0.001527  0.015663  0.049835  0.083559
                                 0.118532  0.000758 -0.000406 -0.381041  0.002128  0.000117  0.007769 -0.000641  0.000103  0.000001
                                -0.018732  0.000578 -0.001170  0.000194 -0.001979  0.000833

   8.1   0     0.0312   -2.3444 -0.000000  0.000000 -0.000000  0.000000 -0.000000  0.000000 -0.000000  0.000000 -0.000000  0.000000
                                -0.000000  0.000000 -0.000000  0.000001 -0.000002  0.000005 -0.000012  0.000031 -0.000074  0.000175
                                -0.000409  0.000943 -0.002073  0.002845  0.003602 -0.008790 -0.067539  0.081248 -0.044604  0.125181
                                -0.031878 -0.025298 -1.381330 -3.121140  1.770230 -0.000000  0.000000 -0.000000  0.000000 -0.000000
                                 0.000000 -0.000000  0.000000 -0.000000  0.000001 -0.000003  0.000007 -0.000019  0.000049 -0.000116
                                 0.000264 -0.000580  0.001273 -0.003039  0.008535 -0.024080  0.184213 -0.245300  0.159418 -3.370099
                                 3.385301 -0.114509 -0.151204 -1.356268 -1.073889  1.320518 -0.000000 -0.000000  0.000000  0.000000
                                -0.000000 -0.000000  0.000000  0.000000 -0.000001 -0.000000  0.000004  0.000001 -0.000012 -0.000002
                                 0.000032  0.000006 -0.000074 -0.000013  0.000172  0.000028 -0.000486 -0.000070  0.002240  0.000253
                                -0.008579 -0.001017  0.006773  0.001603 -0.006956 -0.001653  0.029222  0.003442 -0.022333 -0.004903
                                 0.061501  0.006852 -0.024823  0.000189 -0.130749  0.003565 -0.510641 -0.002770 -0.000008  0.019975
                                 0.000000  0.000000 -0.000002 -0.000000  0.000008  0.000000 -0.000029 -0.000001  0.000085  0.000002
                                -0.000232 -0.000005  0.000564  0.000015 -0.001791 -0.000042  0.011157  0.000249 -0.029243 -0.000604
                                 0.047601  0.001031 -0.051040 -0.001120  0.040055  0.000891 -0.055631 -0.000492 -0.025057  0.000466
                                -0.134985 -0.002335  0.023580  0.004627  0.000248  0.000053  0.000110 -0.001122  0.000322  0.000146
                                -0.008536  0.000300  0.000213  0.000000 -0.000000  0.000000 -0.000002  0.000038 -0.000034  0.003089
                                -0.050096 -0.004278  0.330380  0.004045 -0.000581  3.363380 -0.000022  0.000724  0.006041 -0.006335
                                -0.273791  0.000423  0.000019 -0.637396 -0.000607  0.000030  0.020794 -0.000195  0.000086  0.000005
                                 0.030471  0.000514 -0.001161 -0.000014 -0.002618  0.000171

                                   1 2px     1 2px     1 2px     1 2px     1 2px     1 2px     1 2px     1 2px     1 2px     1 2px  
                                   1 2px     1 2px     1 2px     1 2px     1 2px     1 2px     1 2px     1 2px     1 2px     1 2px  
                                   1 2px     1 2px     1 2px     1 2px     1 2px     1 2px     1 2px     1 2px     1 2px     1 2px  
                                   1 2px     1 3d1+    1 3d1+    1 3d1+    1 3d1+    1 3d1+    1 3d1+    1 3d1+    1 3d1+    1 3d1+ 
                                   1 3d1+    1 3d1+    1 3d1+    1 3d1+    1 3d1+    1 3d1+    1 3d1+    1 3d1+    1 3d1+    1 3d1+ 
                                   1 3d1+    1 3d1+    1 3d1+    1 4f1+    1 4f3+    1 4f1+    1 4f3+    1 4f1+    1 4f3+    1 4f1+ 
                                   1 4f3+    1 4f1+    1 4f3+    1 4f1+    1 4f3+    1 4f1+    1 4f3+    1 4f1+    1 4f3+    1 4f1+ 
                                   1 4f3+    1 4f1+    1 4f3+    1 4f1+    1 4f3+    1 4f1+    1 4f3+    1 4f1+    1 4f3+    1 4f1+ 
                                   1 4f3+    1 4f1+    1 4f3+    1 4f1+    1 4f3+    1 4f1+    1 4f3+    1 5g1+    1 5g3+    1 5g1+ 
                                   1 5g3+    1 5g1+    1 5g3+    2 2px     2 2px     2 2px     2 2px     2 2px     2 2px     2 2px  
                                   2 2px     2 3d1+    2 3d1+    2 3d1+    2 3d1+    2 4f1+    2 4f3+    2 4f1+    2 4f3+ 

   1.2   2    -2.5204  -17.0843  0.000000 -0.000000  0.000000 -0.000000  0.000000 -0.000000  0.000000 -0.000000  0.000000 -0.000000
                                 0.000001 -0.000002  0.000006 -0.000014  0.000027 -0.000028 -0.000148  0.002017 -0.019879  0.122420
                                -0.269591 -0.116589 -0.016065  0.397819 -0.066195  0.623241  0.259197  0.026711 -0.002194  0.000585
                                -0.000226  0.000000 -0.000000  0.000000 -0.000000  0.000000 -0.000001  0.000002 -0.000005  0.000011
                                -0.000025  0.000057 -0.000169  0.000700 -0.001549  0.001501 -0.000766 -0.002975  0.002149 -0.003644
                                -0.002017 -0.000786 -0.000005 -0.000000 -0.000000  0.000000  0.000000 -0.000000 -0.000000  0.000002
                                 0.000001 -0.000005 -0.000000  0.000008  0.000041 -0.000050  0.000077  0.000105  0.000158 -0.001086
                                -0.000019  0.002303  0.002104 -0.004494  0.001592  0.003879  0.004375 -0.001284  0.002519 -0.003040
                                 0.002569 -0.001317  0.000522 -0.000118 -0.000127 -0.000078  0.000051  0.000090  0.000033  0.000997
                                -0.000500 -0.000764  0.000152  0.000220  0.002213  0.006699  0.012623  0.007579  0.000112 -0.000059
                                 0.000926 -0.001568 -0.005451 -0.000070 -0.002185  0.001327  0.000084  0.001221  0.000113

   2.2   2    -0.6144  -11.1534  0.000000 -0.000000  0.000000 -0.000000  0.000000 -0.000000  0.000000 -0.000000  0.000000 -0.000000
                                 0.000000 -0.000000  0.000001 -0.000003  0.000008 -0.000021  0.000066 -0.000312  0.002300 -0.013670
                                 0.031945 -0.008769  0.027487 -0.060541  0.276093 -0.350568 -0.001075 -0.007416  0.003248  0.002844
                                -0.001490  0.000000 -0.000000  0.000000 -0.000000  0.000001 -0.000002  0.000005 -0.000010  0.000010
                                 0.000064 -0.000868  0.008747 -0.030019 -0.029569  0.027872  0.124955  0.005305  0.220031  0.185503
                                 0.038607  0.008209 -0.000695 -0.000000 -0.000000  0.000001  0.000000 -0.000006 -0.000000  0.000021
                                 0.000000 -0.000057 -0.000001  0.000246 -0.000002 -0.000215 -0.000012  0.001810  0.000001 -0.007806
                                -0.000132  0.022979  0.000067 -0.033376 -0.000571  0.046796  0.000130 -0.006477 -0.000493  0.020325
                                 0.000979 -0.013272  0.000941  0.002601 -0.000008 -0.000129  0.000041  0.001151  0.000576  0.009458
                                 0.001363  0.001378  0.001967  0.006345  0.065553  0.209139  0.346605  0.284958  0.003630 -0.001676
                                 0.016360 -0.011209 -0.044102 -0.000529 -0.042854  0.006276  0.001419  0.010055  0.001831

   3.2   0    -0.0020   -6.9392 -0.000000  0.000000 -0.000000  0.000000 -0.000000  0.000000 -0.000000  0.000000 -0.000000  0.000000
                                -0.000000  0.000001 -0.000002  0.000004 -0.000011  0.000029 -0.000095  0.000477 -0.003644  0.021884
                                -0.051456  0.019675 -0.053391  0.106836 -0.664864  0.782950  0.026207 -0.090994 -0.209641 -0.115917
                                -0.342478 -0.000000  0.000000 -0.000000  0.000000 -0.000001  0.000003 -0.000008  0.000023 -0.000063
                                 0.000220 -0.001191  0.009493 -0.033653 -0.018360  0.017536  0.132265  0.004789  0.211175  0.196051
                                 0.148149  0.105043  0.072577  0.000000 -0.000000 -0.000000  0.000000  0.000000 -0.000000 -0.000001
                                 0.000000  0.000000 -0.000001 -0.000034  0.000003 -0.000059 -0.000006 -0.000211  0.000014 -0.000193
                                -0.000087 -0.000395  0.000312 -0.000251 -0.000432 -0.004722  0.000354 -0.001266 -0.000546 -0.014625
                                -0.000253 -0.012851 -0.002775  0.000794 -0.000607 -0.005095 -0.004532 -0.000722  0.000239 -0.000916
                                -0.000358 -0.002278  0.001559 -0.002801 -0.028790 -0.092011 -0.152575 -0.167179 -0.001489  0.000742
                                -0.151118 -0.002500 -0.004879 -0.000121  0.003847  0.001318 -0.000488  0.000786 -0.000952

   4.2   0     0.0325   -3.3047  0.000000 -0.000000  0.000000 -0.000000  0.000000 -0.000000  0.000000 -0.000000  0.000000 -0.000001
                                 0.000003 -0.000009  0.000025 -0.000062  0.000149 -0.000335  0.000720 -0.001428  0.001997  0.000962
                                 0.003008 -0.231456  0.291844 -0.144526  3.449609 -3.377472  0.122340 -0.130384  0.015106 -1.206231
                                 1.527086 -0.000000  0.000000 -0.000000  0.000001 -0.000003  0.000011 -0.000031  0.000079 -0.000187
                                 0.000452 -0.001414  0.007476 -0.028004  0.011979 -0.013310  0.103507 -0.062929  0.189035  0.092557
                                 0.132774 -0.140833 -0.148125  0.000000  0.000000 -0.000001 -0.000000  0.000004  0.000000 -0.000014
                                -0.000001  0.000041  0.000004 -0.000136 -0.000011  0.000223  0.000027 -0.001010 -0.000085  0.005171
                                 0.000520 -0.014233 -0.001312  0.022851  0.002172 -0.030045 -0.002454  0.021110  0.001921 -0.028137
                                -0.001706  0.020084  0.000913 -0.073517 -0.004794 -0.079846  0.007122 -0.000342  0.000128 -0.001438
                                -0.000090  0.000490  0.000771 -0.001808 -0.019744 -0.066447 -0.102872 -0.153336 -0.001443  0.000464
                                 0.423271 -0.001647  0.000352 -0.000058 -0.007362  0.000038 -0.000366  0.001598 -0.000564

                                   1 2py     1 2py     1 2py     1 2py     1 2py     1 2py     1 2py     1 2py     1 2py     1 2py  
                                   1 2py     1 2py     1 2py     1 2py     1 2py     1 2py     1 2py     1 2py     1 2py     1 2py  
                                   1 2py     1 2py     1 2py     1 2py     1 2py     1 2py     1 2py     1 2py     1 2py     1 2py  
                                   1 2py     1 3d1-    1 3d1-    1 3d1-    1 3d1-    1 3d1-    1 3d1-    1 3d1-    1 3d1-    1 3d1- 
                                   1 3d1-    1 3d1-    1 3d1-    1 3d1-    1 3d1-    1 3d1-    1 3d1-    1 3d1-    1 3d1-    1 3d1- 
                                   1 3d1-    1 3d1-    1 3d1-    1 4f1-    1 4f3-    1 4f1-    1 4f3-    1 4f1-    1 4f3-    1 4f1- 
                                   1 4f3-    1 4f1-    1 4f3-    1 4f1-    1 4f3-    1 4f1-    1 4f3-    1 4f1-    1 4f3-    1 4f1- 
                                   1 4f3-    1 4f1-    1 4f3-    1 4f1-    1 4f3-    1 4f1-    1 4f3-    1 4f1-    1 4f3-    1 4f1- 
                                   1 4f3-    1 4f1-    1 4f3-    1 4f1-    1 4f3-    1 4f1-    1 4f3-    1 5g1-    1 5g3-    1 5g1- 
                                   1 5g3-    1 5g1-    1 5g3-    2 2py     2 2py     2 2py     2 2py     2 2py     2 2py     2 2py  
                                   2 2py     2 3d1-    2 3d1-    2 3d1-    2 3d1-    2 4f1-    2 4f3-    2 4f1-    2 4f3- 

   1.3   2    -2.5090  -17.0776  0.000000 -0.000000  0.000000 -0.000000  0.000000 -0.000000  0.000000 -0.000000  0.000000 -0.000000
                                 0.000001 -0.000002  0.000006 -0.000014  0.000028 -0.000031 -0.000140  0.001999 -0.019834  0.122343
                                -0.269643 -0.117544 -0.013694  0.396407 -0.057439  0.612407  0.261265  0.030152 -0.001281  0.000566
                                -0.000205  0.000000 -0.000000  0.000000 -0.000000  0.000000 -0.000000  0.000001 -0.000003  0.000007
                                -0.000013  0.000011  0.000159 -0.000703 -0.001146  0.001442  0.004134 -0.002422  0.007479 -0.005137
                                -0.002487 -0.000712 -0.000022 -0.000000  0.000000  0.000000 -0.000000 -0.000001  0.000000  0.000003
                                -0.000001 -0.000006  0.000002  0.000049 -0.000007  0.000026  0.000021  0.000278 -0.000082 -0.000961
                                 0.000023  0.004022  0.000101 -0.002613  0.000877  0.008256 -0.001011  0.001278 -0.000392 -0.000248
                                -0.001654 -0.000218 -0.000481 -0.000279  0.000100 -0.000000 -0.000043  0.000036  0.000061  0.000004
                                -0.000486 -0.001341  0.000163  0.000135  0.001412  0.004345  0.007816  0.003334  0.000096 -0.000035
                                 0.000647 -0.001347 -0.004066 -0.000060 -0.001171  0.001220  0.000054  0.000904  0.000064

   2.3   2    -0.6949  -11.2978  0.000000 -0.000000  0.000000 -0.000000  0.000000 -0.000000  0.000000 -0.000000  0.000000 -0.000000
                                 0.000000 -0.000000  0.000001 -0.000003  0.000007 -0.000019  0.000054 -0.000233  0.001602 -0.009294
                                 0.021492 -0.005962  0.018331 -0.038514  0.130205 -0.176957 -0.006311 -0.042716 -0.017187  0.003052
                                -0.001611  0.000000 -0.000000  0.000000 -0.000000  0.000000 -0.000001  0.000004 -0.000007  0.000004
                                 0.000083 -0.000953  0.009419 -0.032697 -0.030118  0.029089  0.135627  0.006978  0.230778  0.185633
                                 0.035306  0.004949 -0.000139 -0.000000 -0.000000  0.000001  0.000000 -0.000004 -0.000000  0.000016
                                 0.000000 -0.000043 -0.000000  0.000176 -0.000002 -0.000192 -0.000005  0.001317 -0.000002 -0.006067
                                -0.000038  0.017594 -0.000011 -0.026770 -0.000235  0.034541 -0.000121 -0.005478 -0.000222  0.005867
                                 0.000447 -0.018479  0.000476  0.001461 -0.000021 -0.000026  0.000020  0.001580  0.000386  0.009063
                                 0.001125  0.001277  0.001318  0.006753  0.070206  0.225266  0.360958  0.272476  0.003921 -0.001779
                                 0.015298 -0.009328 -0.033711 -0.000421 -0.031107  0.006275  0.001489  0.008384  0.001613

   3.3   2    -0.3582  -10.5512 -0.000000  0.000000 -0.000000  0.000000 -0.000000  0.000000 -0.000000  0.000000 -0.000000  0.000000
                                -0.000000  0.000000 -0.000001  0.000002 -0.000006  0.000017 -0.000063  0.000355 -0.002879  0.017574
                                -0.041481  0.012540 -0.038161  0.084501 -0.483066  0.578896  0.013738 -0.070697 -0.097129 -0.005913
                                -0.000074 -0.000000  0.000000 -0.000000  0.000000 -0.000002  0.000006 -0.000017  0.000045 -0.000119
                                 0.000387 -0.001958  0.015178 -0.054614 -0.024719  0.024794  0.213824 -0.000669  0.337672  0.290254
                                 0.184903  0.029921  0.004628  0.000000  0.000000 -0.000001 -0.000000  0.000003  0.000000 -0.000011
                                -0.000000  0.000028  0.000001 -0.000145 -0.000001  0.000060  0.000011 -0.001033 -0.000015  0.003456
                                -0.000004 -0.010553  0.000050  0.014932  0.000506 -0.027128 -0.000212  0.008330 -0.000025 -0.033086
                                -0.000810 -0.002382 -0.000838 -0.011888 -0.000097  0.003103 -0.000043  0.000079  0.000693  0.000254
                                 0.001124  0.001342  0.001778 -0.005572 -0.057268 -0.182858 -0.297962 -0.297007 -0.002837  0.001479
                                -0.061092 -0.002729  0.000155 -0.000130  0.015908  0.000454 -0.001044 -0.001635 -0.001336

   4.3   0     0.0252   -2.3821  0.000000 -0.000000  0.000000 -0.000000  0.000000 -0.000000  0.000000 -0.000000  0.000000 -0.000001
                                 0.000002 -0.000007  0.000019 -0.000047  0.000113 -0.000257  0.000567 -0.001263  0.003202 -0.009854
                                 0.026982 -0.176805  0.236625 -0.155801  2.808650 -2.813031  0.074360 -0.047884  0.127307 -0.773175
                                 1.377926 -0.000000  0.000000 -0.000000  0.000000 -0.000002  0.000006 -0.000018  0.000046 -0.000107
                                 0.000243 -0.000637  0.002600 -0.010259  0.012387 -0.012939  0.036113 -0.042384  0.072698  0.011881
                                 0.047634 -0.140410 -0.165553  0.000000  0.000000 -0.000001 -0.000000  0.000003  0.000000 -0.000012
                                -0.000001  0.000035  0.000004 -0.000105 -0.000010  0.000210  0.000024 -0.000795 -0.000075  0.004494
                                 0.000489 -0.012065 -0.001302  0.019524  0.001947 -0.023981 -0.002194  0.018084  0.001855 -0.017860
                                -0.000683  0.023148  0.003463 -0.058335 -0.003524 -0.048056  0.010353  0.000016  0.000107 -0.000589
                                 0.000401  0.001257  0.000029 -0.000623 -0.007362 -0.026333 -0.036819 -0.073987 -0.000712  0.000152
                                 0.354302 -0.000588  0.001857 -0.000011 -0.006027 -0.000522 -0.000148  0.000642 -0.000131

   5.3   0     0.0771   -3.3558 -0.000000  0.000000 -0.000000  0.000000 -0.000000  0.000000 -0.000000  0.000000 -0.000001  0.000002
                                -0.000006  0.000018 -0.000048  0.000122 -0.000291  0.000658 -0.001423  0.002913 -0.004999  0.004929
                                -0.021741  0.454580 -0.582435  0.313648 -6.923723  6.822792 -0.235266  0.207995 -0.237963  1.622932
                                -1.031108  0.000000 -0.000000  0.000001 -0.000003  0.000011 -0.000038  0.000110 -0.000279  0.000633
                                -0.001337  0.002689 -0.004729  0.022964 -0.105532  0.109154 -0.059749  0.282391 -0.194484  0.156171
                                -0.174487  0.368024 -0.747881  0.000000 -0.000000 -0.000001  0.000000  0.000004 -0.000000 -0.000016
                                 0.000000  0.000046 -0.000000 -0.000141  0.000000  0.000269 -0.000007 -0.001055  0.000012  0.005750
                                -0.000031 -0.015387 -0.000031  0.024312 -0.000487 -0.030229  0.000348  0.022778 -0.000324 -0.030554
                                 0.002063 -0.030441  0.005066  0.020749  0.001084  0.071796  0.011460 -0.000705  0.000186  0.002027
                                 0.000975 -0.008892 -0.000289 -0.001198 -0.012154 -0.038531 -0.065089  0.001876 -0.000530  0.000320
                                -0.267563 -0.001587 -0.003870 -0.000072 -0.051140 -0.000166 -0.000198  0.004598 -0.000232

                                   1 3d2-    1 3d2-    1 3d2-    1 3d2-    1 3d2-    1 3d2-    1 3d2-    1 3d2-    1 3d2-    1 3d2- 
                                   1 3d2-    1 3d2-    1 3d2-    1 3d2-    1 3d2-    1 3d2-    1 3d2-    1 3d2-    1 3d2-    1 3d2- 
                                   1 3d2-    1 3d2-    1 4f2-    1 4f2-    1 4f2-    1 4f2-    1 4f2-    1 4f2-    1 4f2-    1 4f2- 
                                   1 4f2-    1 4f2-    1 4f2-    1 4f2-    1 4f2-    1 4f2-    1 4f2-    1 4f2-    1 4f2-    1 5g2- 
                                   1 5g4-    1 5g2-    1 5g4-    1 5g2-    1 5g4-    2 3d2-    2 3d2-    2 3d2-    2 3d2-    2 4f2- 
                                   2 4f2- 

   1.4   +    -0.5231  -11.5894 -0.000000  0.000000 -0.000000  0.000000 -0.000002  0.000006 -0.000017  0.000046 -0.000126  0.000432
                                -0.002304  0.018267 -0.064961 -0.034154  0.032755  0.255977  0.009528  0.405547  0.350453  0.160173
                                 0.021654 -0.000664  0.000000 -0.000000  0.000000 -0.000001  0.000003 -0.000007  0.000020 -0.000068
                                 0.000474 -0.001122  0.002516 -0.003787  0.003695 -0.005298 -0.003025 -0.000237 -0.000104 -0.000430
                                 0.001713  0.000823  0.003021  0.001542  0.003977  0.002275  0.007782  0.000113  0.002814 -0.001899
                                -0.001865

   2.4   0     0.0824   -2.6255 -0.000000  0.000000 -0.000001  0.000005 -0.000019  0.000064 -0.000185  0.000470 -0.001071  0.002295
                                -0.004910  0.011567 -0.051444  0.167454 -0.173345  0.151997 -0.465625  0.407266 -0.190037  0.217042
                                -0.487284  1.264794 -0.000000  0.000001 -0.000004  0.000014 -0.000040  0.000103 -0.000271  0.000796
                                -0.005066  0.013022 -0.021441  0.023436 -0.020667  0.014711 -0.022736  0.052120 -0.099326  0.000000
                                -0.000060  0.000020 -0.000342 -0.000226  0.000207  0.000429 -0.000590  0.000001  0.005613 -0.000088
                                 0.000140

   3.4   0     0.1469   -2.5483 -0.000000  0.000000 -0.000000  0.000001 -0.000002  0.000007 -0.000021  0.000053 -0.000120  0.000258
                                -0.000559  0.001381 -0.006074  0.018573 -0.019250  0.018392 -0.052667  0.048410 -0.020253  0.025292
                                -0.052053  0.092771  0.000002 -0.000015  0.000069 -0.000247  0.000723 -0.001884  0.004886 -0.014473
                                 0.091553 -0.235478  0.385807 -0.421468  0.368013 -0.262987  0.371479 -1.008045  1.633090  0.000003
                                -0.000010  0.000056  0.000018 -0.000475 -0.000060  0.000802  0.002375  0.000027 -0.000863  0.000074
                                -0.001503

 HOMO      6.1    -0.336040 =      -9.1441eV
 LUMO      3.2    -0.002007 =      -0.0546eV
 LUMO-HOMO         0.334034 =       9.0895eV


 **********************************************************************************************************************************
 DATASETS  * FILE   NREC   LENGTH (MB)   RECORD NAMES
              1      19       22.57       500      610      700      900      950      970     1000      129      960     1100   
                                          VAR    BASINP    GEOM    SYMINP    ZMAT    AOBASIS   BASIS     P2S    ABASIS      S 
                                         1400     1410     1420     1200     1210     1080     1600     1650     1700   
                                           T        V       ECP      H0       H01     AOSYM     SMH    MOLCAS    OPER   

              2       4        4.55       700     1000      520     2100   
                                         GEOM     BASIS   MCVARS     RHF  

 PROGRAMS   *        TOTAL       RHF       INT
 CPU TIMES  *       217.38     11.31    205.91
 REAL TIME  *       229.19 SEC
 DISK USED  *        12.01 GB      
 SF USED    *         0.25 MB      
 GA USED    *         0.00 MB       (max)       0.00 MB       (current)
 **********************************************************************************************************************************
 SETTING SCF(1)         =      -119.36076864  AU                              


 PROGRAM * CCSD (Restricted open-shell coupled cluster)     Authors: C. Hampel, H.-J. Werner, 1991, M. Deegan, P.J. Knowles, 1992


 Convergence thresholds:  THRVAR = 1.00D-08  THRDEN = 1.00D-06

 CCSD(T)     terms to be evaluated (factor= 1.000)


 Number of closed-shell orbitals:  11 (   6   2   3   0 )
 Number of active  orbitals:        1 (   0   0   0   1 )
 Number of external orbitals:     443 ( 180 107 106  50 )

 Memory could be reduced to 445.68 Mwords without degradation in triples

 Number of N-1 electron functions:              23
 Number of N-2 electron functions:             253
 Number of singly external CSFs:              3275
 Number of doubly external CSFs:           9817564
 Total number of CSFs:                     9820839

 Molecular orbitals read from record     2100.2  Type=RHF/CANONICAL (state 1.4)

 Integral transformation finished. Total CPU:  16.40 sec, npass=  1  Memory used:  43.25 MW

 Starting RMP2 calculation

 Wavefunction is spin-projected

 ITER.      SQ.NORM     CORR.ENERGY   TOTAL ENERGY   ENERGY CHANGE        DEN1      VAR(S)    VAR(P)  DIIS     TIME
   1      1.24142495    -0.94530080  -120.30606944    -0.94530080    -0.00280535  0.64D-05  0.14D-02  1  1    17.75
   2      1.24483263    -0.94831458  -120.30908323    -0.00301378    -0.00000977  0.36D-07  0.77D-05  2  2    18.91
   3      1.24504233    -0.94841688  -120.30918553    -0.00010230    -0.00000006  0.15D-09  0.54D-07  3  3    20.20
   4      1.24504967    -0.94841831  -120.30918695    -0.00000143    -0.00000000  0.26D-11  0.25D-09  4  4    21.58
   5      1.24504970    -0.94841830  -120.30918694     0.00000001    -0.00000000  0.11D-12  0.14D-11  5  5    23.11

 Norm of t1 vector:      0.02781491      S-energy:    -0.00260197      T1 diagnostic:  0.00004750
 Norm of t2 vector:      0.49424288      P-energy:    -0.94581633
                                         Alpha-Beta:  -0.66730705
                                         Alpha-Alpha: -0.15115593
                                         Beta-Beta:   -0.12735335

 Spin contamination <S**2-Sz**2-Sz>     0.00000000
  Reference energy                   -119.360768642837
  RHF-RMP2 correlation energy          -0.948418300479
 !RHF-RMP2 energy                    -120.309186943317
 (NB above energy spin projected)

 Starting RCCSD calculation

 ITER.      SQ.NORM     CORR.ENERGY   TOTAL ENERGY   ENERGY CHANGE        DEN1      VAR(S)    VAR(P)  DIIS     TIME
   1      1.19371591    -0.85930825  -120.22007689    -0.85930825    -0.03658131  0.10D-01  0.75D-02  1  1    36.92
   2      1.21486430    -0.88760403  -120.24837267    -0.02829579    -0.00324819  0.40D-03  0.12D-02  2  2    49.84
   3      1.22478412    -0.88973845  -120.25050709    -0.00213442    -0.00063811  0.38D-03  0.17D-03  3  3    62.67
   4      1.23195655    -0.89183125  -120.25259989    -0.00209280    -0.00010926  0.43D-04  0.45D-04  4  4    75.65
   5      1.23642412    -0.89271775  -120.25348639    -0.00088650    -0.00001917  0.68D-05  0.11D-04  5  5    88.52
   6      1.23784731    -0.89284505  -120.25361370    -0.00012730    -0.00000534  0.16D-05  0.33D-05  6  6   101.69
   7      1.23856573    -0.89289453  -120.25366317    -0.00004948    -0.00000134  0.44D-06  0.75D-06  7  7   115.21
   8      1.23884895    -0.89291639  -120.25368504    -0.00002187    -0.00000027  0.95D-07  0.13D-06  8  8   128.79
   9      1.23891502    -0.89291770  -120.25368634    -0.00000130    -0.00000006  0.19D-07  0.31D-07  9  9   142.38
  10      1.23892588    -0.89291778  -120.25368643    -0.00000009    -0.00000001  0.37D-08  0.74D-08 10 10   156.88
  11      1.23892996    -0.89291888  -120.25368752    -0.00000110    -0.00000000  0.95D-09  0.26D-08 11 11   170.37
  12      1.23893106    -0.89291909  -120.25368774    -0.00000021    -0.00000000  0.29D-09  0.99D-09 12 12   184.30

 Norm of t1 vector:      0.14256478      S-energy:    -0.00278314      T1 diagnostic:  0.02022864
                                                                       D1 diagnostic:  0.05400548
 Norm of t2 vector:      0.46755358      P-energy:    -0.89013595
                                         Alpha-Beta:  -0.65699164
                                         Alpha-Alpha: -0.12643029
                                         Beta-Beta:   -0.10671402

 Spin contamination <S**2-Sz**2-Sz>     0.00000000

 Memory could be reduced to 458.42 Mwords without degradation in triples
 

  Correlated core orbitals:             1.1       2.1       1.2       1.3
  Orbital energies:                    -4.3296   -2.5900   -2.5706   -2.5594
 
  RCCSD core-core energy               -0.121438941839
  RCCSD core-valence energy            -0.221185546074
  RCCSD valence correlation energy     -0.550294605391
 

 RESULTS
 =======

  Reference energy                   -119.360768642837
  RCCSD singles energy                 -0.002783143130
  RCCSD pair energy                    -0.890135950174
  RCCSD correlation energy             -0.892919093304
  Triples (T) contribution             -0.047314703226
  Total correlation energy             -0.940233796530
 
  RHF-RCCSD energy                   -120.253687736142
  RHF-RCCSD[T] energy                -120.304745597385
  RHF-RCCSD-T energy                 -120.300507122771
 !RHF-RCCSD(T) energy                -120.301002439368

 Program statistics:

 Available memory in ccsd:              1023998628
 Min. memory needed in ccsd:              28062859
 Max. memory used in ccsd:                40287473
 Max. memory used in cckext:              32692403 (12 integral passes)
 Max. memory used in cckint:              43251562 ( 1 integral passes)



 **********************************************************************************************************************************
 DATASETS  * FILE   NREC   LENGTH (MB)   RECORD NAMES
              1      19       22.57       500      610      700      900      950      970     1000      129      960     1100   
                                          VAR    BASINP    GEOM    SYMINP    ZMAT    AOBASIS   BASIS     P2S    ABASIS      S 
                                         1400     1410     1420     1200     1210     1080     1600     1650     1700   
                                           T        V       ECP      H0       H01     AOSYM     SMH    MOLCAS    OPER   

              2       4        4.55       700     1000      520     2100   
                                         GEOM     BASIS   MCVARS     RHF  

 PROGRAMS   *        TOTAL  RCCSD(T)       RHF       INT
 CPU TIMES  *       686.58    469.15     11.31    205.91
 REAL TIME  *       777.60 SEC
 DISK USED  *        38.98 GB      
 SF USED    *         7.46 GB      
 GA USED    *         0.00 MB       (max)       0.00 MB       (current)
 **********************************************************************************************************************************
 SETTING CCSD(1)        =      -120.30100244  AU                              
 Output type csv         
                                                                                                                                                                                                                                                                

     Z,SCF,CCSD
   1.5,   -119.3607686,   -120.3010024
                                                  

 RCCSD(T)/USERDEF energy=   -120.301002439368

        RCCSD(T)        RHF-SCF 
   -120.30100244   -119.36076864
 **********************************************************************************************************************************
 Molpro calculation terminated
 Variable memory released
