
 Primary working directories    : /global/cscratch1/sd/bkincaid
 Secondary working directories  : /global/cscratch1/sd/bkincaid
 Wavefunction directory         : /global/homes/b/bkincaid/wfu/
 Main file repository           : /global/cscratch1/sd/bkincaid/

 SHA1      : 19cd028119e0e09f93f0674bd8af7968d9b3eff6
 NAME      : 2015.1.36
 ARCHNAME  : linux/x86_64
 FC        : /opt/cray/pe/craype/2.5.14/bin/ftn
 BLASLIB   : -L/opt/intel/compilers_and_libraries_2018.1.163/linux/mkl/lib/intel64 -Wl,-_start-group -lmkl_intel_ilp64 -lmkl_intel_thread -lmkl_core -Wl,-_end-group -liomp5
 id        : lbl

 Nodes     nprocs
 nid02036    11
 Number of processes for MPI-2 version of Molpro:   nprocs(total)=   12   nprocs(compute)=   11   nprocs(helper)=    1

 Using customized tuning parameters: mindgm=7; mindgv=16; mindgc=1; mindgr=1; noblas=0; minvec=7
 default implementation of scratch files=sf  

 ***,Calculation for Pt atom, singlet and triplet
 memory,1024,m
 gthresh,twoint=1.0E-15
 gthresh,throvl=1.0E-15
 
 geometry={
 1
 Pt
 pt  0.0 0.0 0.0
 }
 
 set,dkroll=1,dkho=10,dkhp=4
 
 Including file /global/u1/b/bkincaid/molpro/Pt/atoms/AE/dkh/basis/16/states.proc
 
 basis={
 Including file /global/u1/b/bkincaid/molpro/Pt/atoms/AE/dkh/basis/16/aug-cc-pwCVTZ.basis
 }
 
 Idten
 
 do i=16,16
     if (i.eq.1) then
         Idten
     else if (i.eq.2) then
         EAs2d9
     else if (i.eq.3) then
         Is1d9
     else if (i.eq.4) then
         Is2d8
     else if (i.eq.5) then
         IId9
     else if (i.eq.6) then
         IIs1d8
     else if (i.eq.7) then
         IIId8
     else if (i.eq.8) then
         IVd7
     else if (i.eq.9) then
         Vd6
     else if (i.eq.10) then
         VId5
     else if (i.eq.11) then
         XIKr
     else if (i.eq.12) then
         XIVp3
     else if (i.eq.13) then
         XVIIs2
     else if (i.eq.14) then
         IIId5s2f1
     else if (i.eq.15) then
         Vd5f1
     else if (i.eq.16) then
         Xf1
     endif
     scf(i)=energy
     _CC_NORM_MAX=2.0
     {rccsd(t),maxit=100;core}
     ccsd(i)=energy
 enddo
 
 table,scf,ccsd
 type,csv
 save

 Variables initialized (889), CPU time= 0.01 sec
 Commands  initialized (702), CPU time= 0.01 sec, 572 directives.
 Default parameters read. Elapsed time= 0.31 sec

 Checking input...
 Passed
1


                                         ***  PROGRAM SYSTEM MOLPRO  ***
                                       Copyright, TTI GmbH Stuttgart, 2015
                                    Version 2015.1 linked Dec 29 2018 15:55:43


 **********************************************************************************************************************************
 LABEL *   Calculation for Pt atom, singlet and triplet                                  
  64 bit mpp version                                                                     DATE: 31-Jul-21          TIME: 23:36:48  
 **********************************************************************************************************************************

 SHA1:             19cd028119e0e09f93f0674bd8af7968d9b3eff6
 **********************************************************************************************************************************

 THRESHOLDS:

 ZERO    =  1.00D-12  ONEINT  =  1.00D-12  TWOINT  =  1.00D-15  PREFAC  =  1.00D-14  LOCALI  =  1.00D-09  EORDER  =  1.00D-04
 ENERGY  =  0.00D+00  ETEST   =  0.00D+00  EDENS   =  0.00D+00  THRDEDEF=  1.00D-06  GRADIENT=  1.00D-02  STEP    =  1.00D-03
 ORBITAL =  1.00D-05  CIVEC   =  1.00D-05  COEFF   =  1.00D-04  PRINTCI =  5.00D-02  PUNCHCI =  9.90D+01  OPTGRAD =  3.00D-04
 OPTENERG=  1.00D-06  OPTSTEP =  3.00D-04  THRGRAD =  1.00D-10  COMPRESS=  1.00D-11  VARMIN  =  1.00D-07  VARMAX  =  1.00D-03
 THRDOUB =  0.00D+00  THRDIV  =  1.00D-05  THRRED  =  1.00D-07  THRPSP  =  1.00D+00  THRDC   =  1.00D-10  THRCS   =  1.00D-10
 THRNRM  =  1.00D-08  THREQ   =  0.00D+00  THRDE   =  1.00D+00  THRREF  =  1.00D-05  SPARFAC =  1.00D+00  THRDLP  =  1.00D-07
 THRDIA  =  1.00D-10  THRDLS  =  1.00D-07  THRGPS  =  0.00D+00  THRKEX  =  0.00D+00  THRDIS  =  2.00D-01  THRVAR  =  1.00D-10
 THRLOC  =  1.00D-06  THRGAP  =  1.00D-06  THRLOCT = -1.00D+00  THRGAPT = -1.00D+00  THRORB  =  1.00D-06  THRMLTP =  0.00D+00
 THRCPQCI=  1.00D-10  KEXTA   =  0.00D+00  THRCOARS=  0.00D+00  SYMTOL  =  1.00D-06  GRADTOL =  1.00D-06  THROVL  =  1.00D-08
 THRORTH =  1.00D-08  GRID    =  1.00D-06  GRIDMAX =  1.00D-03  DTMAX   =  0.00D+00  THROCCDE=  1.00D-01  THROCCDE=  1.00D-01



 THRESHOLDS:

 ZERO    =  1.00D-12  ONEINT  =  1.00D-12  TWOINT  =  1.00D-15  PREFAC  =  1.00D-14  LOCALI  =  1.00D-09  EORDER  =  1.00D-04
 ENERGY  =  0.00D+00  ETEST   =  0.00D+00  EDENS   =  0.00D+00  THRDEDEF=  1.00D-06  GRADIENT=  1.00D-02  STEP    =  1.00D-03
 ORBITAL =  1.00D-05  CIVEC   =  1.00D-05  COEFF   =  1.00D-04  PRINTCI =  5.00D-02  PUNCHCI =  9.90D+01  OPTGRAD =  3.00D-04
 OPTENERG=  1.00D-06  OPTSTEP =  3.00D-04  THRGRAD =  1.00D-10  COMPRESS=  1.00D-11  VARMIN  =  1.00D-07  VARMAX  =  1.00D-03
 THRDOUB =  0.00D+00  THRDIV  =  1.00D-05  THRRED  =  1.00D-07  THRPSP  =  1.00D+00  THRDC   =  1.00D-10  THRCS   =  1.00D-10
 THRNRM  =  1.00D-08  THREQ   =  0.00D+00  THRDE   =  1.00D+00  THRREF  =  1.00D-05  SPARFAC =  1.00D+00  THRDLP  =  1.00D-07
 THRDIA  =  1.00D-10  THRDLS  =  1.00D-07  THRGPS  =  0.00D+00  THRKEX  =  0.00D+00  THRDIS  =  2.00D-01  THRVAR  =  1.00D-10
 THRLOC  =  1.00D-06  THRGAP  =  1.00D-06  THRLOCT = -1.00D+00  THRGAPT = -1.00D+00  THRORB  =  1.00D-06  THRMLTP =  0.00D+00
 THRCPQCI=  1.00D-10  KEXTA   =  0.00D+00  THRCOARS=  0.00D+00  SYMTOL  =  1.00D-06  GRADTOL =  1.00D-06  THROVL  =  1.00D-15
 THRORTH =  1.00D-08  GRID    =  1.00D-06  GRIDMAX =  1.00D-03  DTMAX   =  0.00D+00  THROCCDE=  1.00D-01  THROCCDE=  1.00D-01



Geometry recognized as XYZ

 SETTING DKROLL         =         1.00000000                                  
 SETTING DKHO           =        10.00000000                                  
 SETTING DKHP           =         4.00000000                                  

 Variable memory set to 1024000000 words,  buffer space   230000 words

 SETTING BASIS          =    USERDEF

 Running procedure=IDTEN


 Recomputing integrals since basis changed


 Using spherical harmonics



 PROGRAM * SEWARD (Integral evaluation for generally contracted gaussian basis sets)     Author: Roland Lindh, 1990

 Geometry written to block  1 of record 700

 Orientation using atomic masses  
 Molecule type: Atom
 Symmetry elements: X,Y,Z
 Rotational constants:       0.0000000      0.0000000      0.0000000 GHz  (calculated with average atomic masses)

 Point group  D2h 



 ATOMIC COORDINATES

 NR  ATOM    CHARGE       X              Y              Z

   1  PT     78.00    0.000000000    0.000000000    0.000000000

 NUCLEAR CHARGE:                   78
 NUMBER OF PRIMITIVE AOS:         434
 NUMBER OF SYMMETRY AOS:          347
 NUMBER OF CONTRACTIONS:          347   (  78Ag  +  60B3u +  60B2u +  24B1g +  60B1u +  24B2g +  24B3g +  17Au  )
 NUMBER OF CORE ORBITALS:          34   (   9Ag  +   6B3u +   6B2u +   2B1g +   6B1u +   2B2g +   2B3g +   1Au  )
 NUMBER OF VALENCE ORBITALS:        6   (   3Ag  +   0B3u +   0B2u +   1B1g +   0B1u +   1B2g +   1B3g +   0Au  )


 NUCLEAR REPULSION ENERGY    0.00000000

 One-electron integrals computed with SEWARD

 10nd-order Douglas-Kroll-Hess method activated. McWeeny DKH parametrization is used.

 Computing Douglas-Kroll / X2C integrals

 AO integral compression algorithm  1   Integral accuracy      1.0D-15

     1918.632 MB (compressed) written to integral file ( 47.7%)

     Node minimum: 108.790 MB, node maximum: 291.766 MB


 NUMBER OF SORTED TWO-ELECTRON INTEGRALS:   21372670.     BUFFER LENGTH:  32768
 NUMBER OF SEGMENTS:   1  SEGMENT LENGTH:   21372670      RECORD LENGTH: 524288

 Memory used in sort:      21.93 MW

 SORT1 READ   502828645. AND WROTE    14003921. INTEGRALS IN     41 RECORDS. CPU TIME:     9.73 SEC, REAL TIME:    10.23 SEC
 SORT2 READ   153399602. AND WROTE   235142862. INTEGRALS IN   4565 RECORDS. CPU TIME:     0.68 SEC, REAL TIME:     1.14 SEC

 Node minimum:    21275732.  Node maximum:    21480371. integrals

 OPERATOR DM      FOR CENTER  0  COORDINATES:    0.000000    0.000000    0.000000

 EXTRA SYMMETRY OF AOS IN SYMMETRY 1:   1 1 1 1 1 1 1 1 1 1   1 1 1 1 1 1 1 1 1 1   1 1 1 1 1 1 1 1 1 1   1 1 1 2 3 2 3 2 3 2
                                        3 2 3 2 3 2 3 2 3 2   3 2 3 2 3 2 3 2 3 2   3 2 3 2 3 2 3 2 3 4   5 6 4 5 6 4 5 6
 EXTRA SYMMETRY OF AOS IN SYMMETRY 2:   1 1 1 1 1 1 1 1 1 1   1 1 1 1 1 1 1 1 1 1   1 1 1 1 1 1 2 3 2 3   2 3 2 3 2 3 2 3 2 3
                                        2 3 2 3 2 3 2 3 2 3   2 3 2 3 2 3 2 3 2 3
 EXTRA SYMMETRY OF AOS IN SYMMETRY 3:   1 1 1 1 1 1 1 1 1 1   1 1 1 1 1 1 1 1 1 1   1 1 1 1 1 1 2 3 2 3   2 3 2 3 2 3 2 3 2 3
                                        2 3 2 3 2 3 2 3 2 3   2 3 2 3 2 3 2 3 2 3
 EXTRA SYMMETRY OF AOS IN SYMMETRY 4:   1 1 1 1 1 1 1 1 1 1   1 1 1 1 1 1 1 1 2 3   2 3 2 3
 EXTRA SYMMETRY OF AOS IN SYMMETRY 5:   1 1 1 1 1 1 1 1 1 1   1 1 1 1 1 1 1 1 1 1   1 1 1 1 1 1 2 3 2 3   2 3 2 3 2 3 2 3 2 3
                                        2 3 2 3 2 3 2 3 2 3   2 3 2 3 2 3 2 3 2 3
 EXTRA SYMMETRY OF AOS IN SYMMETRY 6:   1 1 1 1 1 1 1 1 1 1   1 1 1 1 1 1 1 1 2 3   2 3 2 3
 EXTRA SYMMETRY OF AOS IN SYMMETRY 7:   1 1 1 1 1 1 1 1 1 1   1 1 1 1 1 1 1 1 2 3   2 3 2 3

 Eigenvalues of metric

         1 0.632E-05 0.391E-04 0.662E-04 0.117E-03 0.187E-03 0.332E-03 0.599E-03 0.825E-03
         2 0.139E-04 0.272E-03 0.963E-03 0.191E-02 0.191E-02 0.243E-02 0.243E-02 0.245E-02
         3 0.139E-04 0.272E-03 0.963E-03 0.191E-02 0.191E-02 0.243E-02 0.243E-02 0.245E-02
         4 0.825E-03 0.217E-02 0.713E-02 0.171E-01 0.337E-01 0.649E-01 0.119E+00 0.188E+00
         5 0.139E-04 0.272E-03 0.963E-03 0.191E-02 0.191E-02 0.243E-02 0.243E-02 0.245E-02
         6 0.825E-03 0.217E-02 0.713E-02 0.171E-01 0.337E-01 0.649E-01 0.119E+00 0.188E+00
         7 0.825E-03 0.217E-02 0.713E-02 0.171E-01 0.337E-01 0.649E-01 0.119E+00 0.188E+00
         8 0.191E-02 0.243E-02 0.658E-02 0.118E-01 0.266E-01 0.456E-01 0.920E-01 0.173E+00


 **********************************************************************************************************************************
 DATASETS  * FILE   NREC   LENGTH (MB)   RECORD NAMES
              1      22       21.27       500      610      700      900      950      970     1000      129      960     1700   
                                          VAR    BASINP    GEOM    SYMINP    ZMAT    AOBASIS   BASIS     P2S    ABASIS    OPER   
                                         1101     1401     1411     1412     1650     1100     1400     1410     1200     1210   
                                          SR      EKINR    POTR     PVPR    MOLCAS      S      EKIN      POT      H0       H01  
                                         1080     1600   
                                         AOSYM     SMH  

 PROGRAMS   *        TOTAL       INT
 CPU TIMES  *        74.92     74.50
 REAL TIME  *        78.23 SEC
 DISK USED  *         3.76 GB      
 GA USED    *         0.00 MB       (max)       0.00 MB       (current)
 **********************************************************************************************************************************


 PROGRAM * RHF-SCF (CLOSED SHELL)       Authors: W. Meyer, H.-J. Werner


 NUMBER OF ELECTRONS:      39+   39-    SPACE SYMMETRY=1    SPIN SYMMETRY: Singlet 
 CONVERGENCE THRESHOLDS:    1.00E-05 (Density)    1.56E-07 (Energy)
 MAX. NUMBER OF ITERATIONS:       60
 INTERPOLATION TYPE:            DIIS
 INTERPOLATION STEPS:              2 (START)      1 (STEP)
 LEVEL SHIFTS:                  0.00 (CLOSED)  0.00 (OPEN) 

 Number of closed-shell orbitals:   39 (  11   6   6   3   6   3   3   1 )


 
 Extra symmetries of mos in symmetry 1:   1   1   1   3   2   1   3   2   1   3   2
 Orbital guess generated from atomic densities. Full valence occupancy:   12   6   6   3   6   3   3   1


 Molecular orbital dump at record        4202.2

 ITERATION    DDIFF          GRAD             ENERGY        2-EL.EN.            DIPOLE MOMENTS         DIIS   ORB.
    1      0.000D+00      0.000D+00    -18393.29360298  12838.146872    0.00000    0.00000    0.00000    0    start
    2      0.000D+00      0.559D-01    -18406.23619636  14248.636669    0.00000    0.00000    0.00000    1    diag
    3      0.121D+00      0.122D+00    -18410.46186033  14012.245167    0.00000    0.00000    0.00000    2    diag
    4      0.121D-01      0.566D-01    -18412.21254124  13885.470495    0.00000    0.00000    0.00000    3    diag
    5      0.818D-02      0.309D-01    -18412.96687392  13782.039535    0.00000    0.00000    0.00000    4    diag
    6      0.573D-02      0.119D-01    -18413.13071143  13714.774033    0.00000    0.00000    0.00000    5    diag
    7      0.331D-02      0.119D-02    -18413.13458523  13702.688839    0.00000    0.00000    0.00000    6    diag
    8      0.826D-03      0.624D-03    -18413.13494339  13705.160727    0.00000    0.00000    0.00000    7    diag
    9      0.190D-03      0.158D-03    -18413.13496287  13705.735093    0.00000    0.00000    0.00000    8    diag
   10      0.498D-04      0.375D-04    -18413.13496406  13705.922531    0.00000    0.00000    0.00000    9    orth
   11      0.100D-04      0.465D-05    -18413.13496408  13705.947627    0.00000    0.00000    0.00000    9    diag
   12      0.124D-05      0.343D-06    -18413.13496408  13705.951376    0.00000    0.00000    0.00000    0    orth

 Final occupancy:  11   6   6   3   6   3   3   1

 !RHF STATE 1.1 Energy               -18413.1349640784    
 Nuclear energy                         0.00000000
 One-electron energy               -25266.11065220
 Two-electron energy                 6852.97568812
 Virial quotient                       -0.67629514
 !RHF STATE 1.1 Dipole moment           0.00000000     0.00000000     0.00000000
 Dipole moment /Debye                   0.00000000     0.00000000     0.00000000

 ELECTRON ORBITALS
 =================


   Orb  Occ    Energy  Couls-En    Coefficients

                                   1 1s      1 1s      1 1s      1 1s      1 1s      1 1s      1 1s      1 1s      1 1s      1 1s   
                                   1 1s      1 1s      1 1s      1 1s      1 1s      1 1s      1 1s      1 1s      1 1s      1 1s   
                                   1 1s      1 1s      1 1s      1 1s      1 1s      1 1s      1 1s      1 1s      1 1s      1 1s   
                                   1 1s      1 1s      1 1s      1 3d0     1 3d2+    1 3d0     1 3d2+    1 3d0     1 3d2+    1 3d0  
                                   1 3d2+    1 3d0     1 3d2+    1 3d0     1 3d2+    1 3d0     1 3d2+    1 3d0     1 3d2+    1 3d0  
                                   1 3d2+    1 3d0     1 3d2+    1 3d0     1 3d2+    1 3d0     1 3d2+    1 3d0     1 3d2+    1 3d0  
                                   1 3d2+    1 3d0     1 3d2+    1 3d0     1 3d2+    1 3d0     1 3d2+    1 3d0     1 3d2+    1 5g0  
                                   1 5g4+    1 5g2+    1 5g0     1 5g4+    1 5g2+    1 5g0     1 5g4+    1 5g2+ 

   1.1   2 -2897.4829-6235.8506  0.000912  0.000995  0.002594  0.003050  0.006001  0.007586  0.013714  0.020199  0.035192  0.057528
                                 0.098418  0.159082  0.235954  0.276414  0.213081  0.079083  0.011106 -0.000671  0.001102 -0.000954
                                 0.000573 -0.000313  0.000168 -0.000094  0.000056 -0.000035  0.000016 -0.000014  0.000022 -0.000015
                                 0.000004 -0.000001  0.000000 -0.000000  0.000000 -0.000000 -0.000000 -0.000000  0.000000 -0.000000
                                -0.000000  0.000000  0.000000 -0.000000 -0.000000  0.000000  0.000000 -0.000000 -0.000000  0.000000
                                 0.000000 -0.000000 -0.000000  0.000000  0.000000 -0.000000 -0.000000  0.000000  0.000000 -0.000000
                                -0.000000  0.000000  0.000000 -0.000000 -0.000000  0.000000  0.000000 -0.000000 -0.000000 -0.000000
                                 0.000000 -0.000000  0.000000 -0.000000  0.000000 -0.000000  0.000000 -0.000000

   2.1   2  -514.3606-1365.1542 -0.000352 -0.000384 -0.001004 -0.001184 -0.002335 -0.002971 -0.005401 -0.008047 -0.014215 -0.023796
                                -0.042178 -0.072301 -0.117871 -0.159204 -0.133029  0.049153  0.335375  0.439809  0.258780  0.065707
                                 0.004326  0.000519 -0.000387  0.000089 -0.000073  0.000054 -0.000021  0.000020 -0.000031  0.000021
                                -0.000005  0.000002 -0.000000  0.000000 -0.000000  0.000000 -0.000000  0.000000  0.000000  0.000000
                                -0.000000  0.000000  0.000000  0.000000 -0.000000  0.000000  0.000000  0.000000 -0.000000 -0.000000
                                 0.000000  0.000000 -0.000000 -0.000000  0.000000  0.000000 -0.000000 -0.000000  0.000000  0.000000
                                -0.000000 -0.000000  0.000000  0.000000 -0.000000 -0.000000  0.000000  0.000000 -0.000000 -0.000000
                                 0.000000 -0.000000 -0.000000  0.000000  0.000000  0.000000 -0.000000 -0.000000

   3.1   2  -123.2000 -483.1964  0.000168  0.000184  0.000480  0.000567  0.001118  0.001424  0.002591  0.003867  0.006847  0.011508
                                 0.020518  0.035540  0.058924  0.081839  0.069676 -0.041622 -0.276916 -0.457184 -0.297020  0.252727
                                 0.707860  0.407571  0.048686 -0.000540  0.000823 -0.000466  0.000115 -0.000117  0.000173 -0.000119
                                 0.000028 -0.000009  0.000002 -0.000000  0.000000  0.000000 -0.000000 -0.000000  0.000000  0.000000
                                -0.000000 -0.000000 -0.000000 -0.000000 -0.000000  0.000000 -0.000000  0.000000 -0.000000  0.000000
                                -0.000000 -0.000000 -0.000000  0.000000 -0.000000 -0.000000 -0.000000  0.000000  0.000000 -0.000000
                                -0.000000  0.000000  0.000000 -0.000000 -0.000000  0.000000  0.000000 -0.000000 -0.000000  0.000000
                                -0.000000  0.000000 -0.000000  0.000000 -0.000000  0.000000 -0.000000  0.000000

   4.1   2   -80.7528 -408.3880  0.000000 -0.000000  0.000000 -0.000000  0.000000 -0.000000  0.000000 -0.000000  0.000000  0.000000
                                 0.000000  0.000000  0.000000  0.000000 -0.000000  0.000000 -0.000000  0.000000 -0.000000  0.000000
                                -0.000000  0.000000 -0.000000  0.000000 -0.000000  0.000000 -0.000000  0.000000 -0.000000  0.000000
                                -0.000000  0.000000 -0.000000 -0.000000  0.000145 -0.000000  0.001037 -0.000000  0.005638 -0.000000
                                 0.023582 -0.000000  0.078156 -0.000000  0.195505 -0.000000  0.336019 -0.000001  0.355839 -0.000000
                                 0.185315 -0.000000  0.036343 -0.000000  0.002071 -0.000000  0.000308  0.000000 -0.000026 -0.000000
                                 0.000029  0.000000 -0.000010 -0.000000  0.000002  0.000000 -0.000000 -0.000000  0.000000  0.000000
                                -0.000000  0.000000 -0.000000  0.000000 -0.000000  0.000000 -0.000000  0.000000

   5.1   2   -80.7528 -408.3880 -0.000000 -0.000000 -0.000000 -0.000000 -0.000000 -0.000000 -0.000000 -0.000000 -0.000000 -0.000000
                                -0.000000 -0.000000 -0.000000 -0.000000 -0.000000  0.000000  0.000000  0.000000  0.000000 -0.000000
                                -0.000000  0.000000  0.000000  0.000000 -0.000000  0.000000  0.000000  0.000000 -0.000000  0.000000
                                -0.000000  0.000000 -0.000000  0.000145  0.000000  0.001037  0.000000  0.005638  0.000000  0.023582
                                 0.000000  0.078156  0.000000  0.195505  0.000000  0.336019  0.000000  0.355839  0.000001  0.185315
                                 0.000000  0.036343  0.000000  0.002071  0.000000  0.000308  0.000000 -0.000026 -0.000000  0.000029
                                 0.000000 -0.000010 -0.000000  0.000002  0.000000 -0.000000 -0.000000  0.000000  0.000000  0.000000
                                 0.000000  0.000000 -0.000000 -0.000000 -0.000000  0.000000  0.000000  0.000000

   6.1   2   -27.7000 -208.9695 -0.000084 -0.000092 -0.000239 -0.000282 -0.000557 -0.000709 -0.001291 -0.001927 -0.003415 -0.005744
                                -0.010259 -0.017809 -0.029664 -0.041451 -0.035541  0.023575  0.157624  0.277968  0.190031 -0.219343
                                -0.851503 -0.475406  0.709883  0.760702  0.115974 -0.006643  0.003221 -0.001600  0.002391 -0.001627
                                 0.000375 -0.000119  0.000033  0.000000 -0.000000 -0.000000  0.000000  0.000000  0.000000 -0.000000
                                 0.000000  0.000000  0.000000 -0.000000  0.000000  0.000000  0.000000 -0.000000  0.000000 -0.000000
                                -0.000000 -0.000000 -0.000000  0.000000 -0.000000 -0.000000 -0.000000 -0.000000  0.000000  0.000000
                                -0.000000 -0.000000  0.000000  0.000000 -0.000000 -0.000000  0.000000  0.000000 -0.000000  0.000000
                                -0.000000  0.000000 -0.000000  0.000000  0.000000  0.000000 -0.000000 -0.000000

   7.1   2   -12.5982 -169.4932  0.000000  0.000000  0.000000  0.000000  0.000000  0.000000  0.000000  0.000000  0.000000  0.000000
                                 0.000000  0.000000  0.000000  0.000000 -0.000000  0.000000 -0.000000  0.000000 -0.000000  0.000000
                                -0.000000  0.000000 -0.000000  0.000000 -0.000000  0.000000 -0.000000  0.000000 -0.000000  0.000000
                                -0.000000  0.000000 -0.000000  0.000000 -0.000075  0.000000 -0.000534  0.000000 -0.002921  0.000000
                                -0.012296  0.000000 -0.041434  0.000000 -0.105192  0.000000 -0.178271  0.000000 -0.151897 -0.000000
                                 0.113226 -0.000000  0.426114 -0.000000  0.430159 -0.000000  0.164897 -0.000000  0.016581 -0.000000
                                 0.001370  0.000000 -0.000182 -0.000000  0.000221  0.000000 -0.000055 -0.000000  0.000017 -0.000000
                                -0.000000  0.000000 -0.000000  0.000000 -0.000000  0.000000 -0.000000  0.000000

   8.1   2   -12.5982 -169.4932  0.000000  0.000000  0.000000  0.000000  0.000000  0.000000  0.000000  0.000000  0.000000  0.000000
                                 0.000000  0.000000  0.000000  0.000000  0.000000 -0.000000 -0.000000 -0.000000 -0.000000  0.000000
                                 0.000000  0.000000 -0.000001 -0.000000  0.000001 -0.000000  0.000000 -0.000000  0.000000 -0.000000
                                 0.000000 -0.000000  0.000000 -0.000075 -0.000000 -0.000534 -0.000000 -0.002921 -0.000000 -0.012296
                                -0.000000 -0.041434 -0.000000 -0.105192 -0.000000 -0.178271 -0.000000 -0.151897 -0.000000  0.113226
                                 0.000000  0.426114  0.000000  0.430159  0.000000  0.164897  0.000000  0.016581  0.000000  0.001370
                                 0.000000 -0.000182 -0.000000  0.000221  0.000000 -0.000055 -0.000000  0.000017  0.000000  0.000000
                                 0.000000 -0.000000 -0.000000 -0.000000 -0.000000  0.000000  0.000000  0.000000

   9.1   2    -4.2968  -91.3853  0.000036  0.000039  0.000102  0.000120  0.000237  0.000302  0.000549  0.000820  0.001454  0.002446
                                 0.004369  0.007590  0.012654  0.017713  0.015203 -0.010315 -0.069343 -0.123872 -0.087158  0.108331
                                 0.448989  0.247851 -0.529405 -0.868037  0.115911  0.840890  0.445880  0.052122 -0.030633  0.017571
                                -0.003095  0.000896 -0.000239 -0.000000  0.000000 -0.000000  0.000000 -0.000000  0.000000 -0.000000
                                 0.000000 -0.000000  0.000000 -0.000000  0.000000 -0.000000 -0.000000 -0.000000  0.000000  0.000000
                                -0.000000  0.000000  0.000000  0.000000 -0.000000 -0.000000  0.000000 -0.000001 -0.000000 -0.000001
                                 0.000000 -0.000000  0.000000  0.000000  0.000000  0.000000  0.000000  0.000000 -0.000000 -0.000000
                                 0.000000  0.000000 -0.000000  0.000000 -0.000000  0.000000 -0.000000  0.000000

  10.1   2    -0.3223  -53.7741  0.000000  0.000000  0.000000  0.000000  0.000000  0.000000  0.000000  0.000000  0.000000  0.000000
                                 0.000000  0.000000  0.000000  0.000000  0.000000 -0.000000 -0.000000 -0.000000 -0.000000  0.000000
                                 0.000000  0.000000 -0.000000 -0.000000 -0.000000  0.000000 -0.000000 -0.000000  0.000000 -0.000000
                                 0.000000 -0.000000  0.000000 -0.000000  0.000020 -0.000000  0.000147 -0.000000  0.000802 -0.000000
                                 0.003399 -0.000000  0.011423 -0.000000  0.029250 -0.000000  0.049057 -0.000000  0.040262  0.000000
                                -0.046686  0.000000 -0.141927  0.000000 -0.144391 -0.000000  0.085974 -0.000001  0.289402 -0.000000
                                 0.162682 -0.000001  0.318014 -0.000001  0.282288 -0.000000  0.133909 -0.000000  0.004264 -0.000000
                                -0.000000 -0.000000  0.000000 -0.000000 -0.000000  0.000000 -0.000000 -0.000002

  11.1   2    -0.3223  -53.7740 -0.000000 -0.000000 -0.000000 -0.000000 -0.000000 -0.000000 -0.000000 -0.000000 -0.000000 -0.000000
                                -0.000000 -0.000000 -0.000000 -0.000001 -0.000001  0.000000  0.000003  0.000005  0.000003 -0.000004
                                -0.000018 -0.000010  0.000023  0.000041 -0.000010 -0.000056 -0.000041  0.000023  0.000029  0.000067
                                 0.000048  0.000002  0.000000  0.000020  0.000000  0.000147  0.000000  0.000802  0.000000  0.003399
                                 0.000000  0.011423  0.000000  0.029250  0.000000  0.049057  0.000000  0.040262  0.000000 -0.046686
                                -0.000000 -0.141927 -0.000000 -0.144391 -0.000000  0.085974  0.000000  0.289402  0.000001  0.162682
                                 0.000000  0.318013  0.000001  0.282287  0.000001  0.133912  0.000000  0.004266  0.000000 -0.000000
                                -0.000000 -0.000000 -0.000001 -0.000000  0.000000 -0.000003  0.000000 -0.000000

  12.1   0    -0.0067  -18.5436 -0.000006 -0.000006 -0.000016 -0.000019 -0.000037 -0.000047 -0.000086 -0.000128 -0.000227 -0.000383
                                -0.000682 -0.001188 -0.001975 -0.002780 -0.002354  0.001555  0.011060  0.019116  0.014568 -0.018658
                                -0.070691 -0.042397  0.093435  0.157402 -0.026268 -0.225612 -0.136770 -0.037155  0.374175 -0.230219
                                 0.536600 -0.146122  0.699116 -0.000000  0.000000 -0.000000  0.000000 -0.000000  0.000000 -0.000000
                                 0.000000 -0.000001  0.000000 -0.000003  0.000000 -0.000005  0.000000 -0.000004  0.000000  0.000005
                                -0.000000  0.000014 -0.000000  0.000015 -0.000000 -0.000009  0.000000 -0.000029  0.000000 -0.000017
                                 0.000000 -0.000031  0.000000 -0.000033  0.000000 -0.000022  0.000000 -0.000018  0.000000 -0.000000
                                 0.000000  0.000000 -0.000000  0.000000  0.000000  0.000000 -0.000000  0.000000

  13.1   0     0.0228   -9.8075  0.000004  0.000004  0.000010  0.000012  0.000024  0.000030  0.000056  0.000082  0.000148  0.000245
                                 0.000448  0.000756  0.001309  0.001724  0.001717 -0.001509 -0.005885 -0.015337 -0.003485  0.002208
                                 0.059288  0.010994 -0.036910 -0.137677  0.081694  0.042242  0.234384 -0.634308  2.256291 -2.980720
                                 2.245608 -3.904599  3.019419  0.000000 -0.000000  0.000000 -0.000000  0.000000 -0.000000  0.000000
                                -0.000000  0.000001 -0.000000  0.000002 -0.000000  0.000003 -0.000000  0.000002 -0.000000 -0.000002
                                -0.000000 -0.000007  0.000000 -0.000008 -0.000000  0.000004  0.000000  0.000015 -0.000000  0.000008
                                 0.000000  0.000016 -0.000000  0.000017  0.000000  0.000014 -0.000000  0.000008  0.000000  0.000000
                                -0.000000 -0.000000  0.000000 -0.000000  0.000000 -0.000000  0.000000 -0.000000

                                   1 2px     1 2px     1 2px     1 2px     1 2px     1 2px     1 2px     1 2px     1 2px     1 2px  
                                   1 2px     1 2px     1 2px     1 2px     1 2px     1 2px     1 2px     1 2px     1 2px     1 2px  
                                   1 2px     1 2px     1 2px     1 2px     1 2px     1 2px     1 4f1+    1 4f3+    1 4f1+    1 4f3+ 
                                   1 4f1+    1 4f3+    1 4f1+    1 4f3+    1 4f1+    1 4f3+    1 4f1+    1 4f3+    1 4f1+    1 4f3+ 
                                   1 4f1+    1 4f3+    1 4f1+    1 4f3+    1 4f1+    1 4f3+    1 4f1+    1 4f3+    1 4f1+    1 4f3+ 
                                   1 4f1+    1 4f3+    1 4f1+    1 4f3+    1 4f1+    1 4f3+    1 4f1+    1 4f3+    1 4f1+    1 4f3+ 


   1.2   2  -447.2542-1242.7445  0.000024  0.000060  0.000175  0.000451  0.001166  0.002998  0.007814  0.020403  0.051865  0.121212
                                 0.236303  0.341001  0.286419  0.074235  0.058379 -0.003656  0.004717 -0.002132  0.001000 -0.000561
                                 0.000288 -0.000130  0.000051 -0.000020  0.000008 -0.000003 -0.000000  0.000000  0.000000  0.000000
                                 0.000000 -0.000000  0.000000  0.000000  0.000000  0.000000  0.000000 -0.000000  0.000000 -0.000000
                                 0.000000 -0.000000 -0.000000  0.000000 -0.000000  0.000000 -0.000000  0.000000 -0.000000 -0.000000
                                -0.000000  0.000000  0.000000 -0.000000 -0.000000 -0.000000  0.000000 -0.000000 -0.000000  0.000000

   2.2   2  -103.2572 -444.5612 -0.000012 -0.000031 -0.000090 -0.000232 -0.000603 -0.001555 -0.004090 -0.010764 -0.027981 -0.067087
                                -0.137650 -0.204137 -0.146061  0.123586  0.095112  0.490348  0.369889  0.071939  0.007055 -0.001238
                                 0.000764 -0.000418  0.000144 -0.000063  0.000026 -0.000008  0.000000 -0.000000  0.000000 -0.000000
                                -0.000000  0.000000  0.000000 -0.000000  0.000000 -0.000000  0.000000 -0.000000  0.000000  0.000000
                                -0.000000  0.000000  0.000000 -0.000000  0.000000 -0.000000  0.000000 -0.000000 -0.000000  0.000000
                                 0.000000 -0.000000 -0.000000  0.000000  0.000000  0.000000 -0.000000  0.000000  0.000000 -0.000000

   3.2   2   -21.0232 -190.9992  0.000006  0.000015  0.000044  0.000115  0.000298  0.000770  0.002031  0.005355  0.013996  0.033761
                                 0.070180  0.104868  0.069898 -0.097653 -0.077798 -0.400800 -0.233493  0.414380  0.612961  0.216141
                                 0.013054  0.001935 -0.000305  0.000191 -0.000074  0.000023  0.000000 -0.000000  0.000000  0.000000
                                 0.000000 -0.000000  0.000000  0.000000  0.000000  0.000000  0.000000  0.000000  0.000000  0.000000
                                 0.000000  0.000000  0.000000 -0.000000 -0.000000 -0.000000 -0.000000  0.000000  0.000000 -0.000000
                                -0.000000  0.000000  0.000000 -0.000000 -0.000000  0.000000  0.000000 -0.000000 -0.000000  0.000000

   4.2   2    -3.2384 -142.5912  0.000000  0.000000  0.000000  0.000000  0.000000  0.000000  0.000000  0.000000  0.000000  0.000000
                                 0.000000  0.000000  0.000000 -0.000000 -0.000000 -0.000000 -0.000000  0.000000  0.000000  0.000000
                                -0.000001 -0.000001  0.000000  0.000000  0.000000  0.000000  0.000215  0.000000  0.001990  0.000001
                                 0.000005  0.000000  0.011257  0.000004  0.042360  0.000017  0.114350  0.000045  0.223439  0.000088
                                 0.311402  0.000122  0.320162  0.000126  0.225476  0.000089  0.089076  0.000035 -0.000313 -0.000000
                                 0.015282  0.000006 -0.007196 -0.000003  0.003987  0.000002 -0.002339 -0.000001  0.001136  0.000000

   5.2   2    -3.2384 -142.5911  0.000000  0.000000  0.000000  0.000000  0.000000  0.000000  0.000000  0.000000  0.000000  0.000000
                                 0.000000  0.000000  0.000000 -0.000000 -0.000000 -0.000000 -0.000000  0.000000  0.000000 -0.000000
                                -0.000000  0.000000  0.000000 -0.000000 -0.000000 -0.000000 -0.000000  0.000215 -0.000001  0.001990
                                -0.000000  0.000005 -0.000004  0.011257 -0.000017  0.042360 -0.000045  0.114350 -0.000088  0.223439
                                -0.000122  0.311402 -0.000126  0.320162 -0.000089  0.225476 -0.000035  0.089076  0.000000 -0.000313
                                -0.000006  0.015282  0.000003 -0.007196 -0.000002  0.003987  0.000001 -0.002339 -0.000000  0.001136

   6.2   2    -2.4668  -79.0832 -0.000002 -0.000006 -0.000017 -0.000045 -0.000117 -0.000301 -0.000795 -0.002092 -0.005490 -0.013211
                                -0.027685 -0.041031 -0.028198  0.046017  0.025709  0.183044  0.082450 -0.237259 -0.429772 -0.006048
                                 0.520500  0.504897  0.153305  0.000300  0.003437 -0.001033  0.000000 -0.000000  0.000000 -0.000000
                                -0.000000 -0.000000  0.000000 -0.000000  0.000000 -0.000000  0.000000 -0.000000  0.000000 -0.000000
                                 0.000000 -0.000000  0.000000 -0.000000  0.000000  0.000000 -0.000000  0.000000 -0.000001  0.000000
                                -0.000000  0.000000  0.000000 -0.000000  0.000000 -0.000000  0.000000 -0.000000 -0.000000 -0.000000

   7.2   0     0.0379  -10.1266  0.000000  0.000000  0.000001  0.000002  0.000005  0.000013  0.000033  0.000092  0.000227  0.000586
                                 0.001112  0.001974  0.000281  0.001348 -0.007405 -0.001695 -0.008963  0.017738  0.008778  0.016094
                                -0.055665  0.013410 -0.072656  0.189251 -0.389390  1.219989 -0.000000  0.000000 -0.000000  0.000000
                                -0.000000 -0.000000 -0.000000  0.000000 -0.000000  0.000000 -0.000000  0.000000 -0.000000  0.000000
                                -0.000000  0.000000 -0.000000  0.000000  0.000000  0.000000 -0.000000 -0.000000  0.000001 -0.000000
                                -0.000001 -0.000000  0.000002 -0.000000 -0.000003 -0.000000  0.000007 -0.000000 -0.000012 -0.000000

   8.2   0     0.1363  -16.3857 -0.000000 -0.000001 -0.000002 -0.000006 -0.000015 -0.000039 -0.000107 -0.000269 -0.000746 -0.001672
                                -0.003861 -0.004731 -0.006511  0.016255 -0.015746  0.043303 -0.005894 -0.010765 -0.093224  0.054219
                                 0.003273  0.219619 -0.207539  0.416310 -1.836431  1.090211  0.000000 -0.000000  0.000000 -0.000000
                                 0.000000  0.000000  0.000000 -0.000000  0.000000 -0.000000  0.000000 -0.000000  0.000000 -0.000000
                                 0.000000 -0.000000  0.000000 -0.000000 -0.000000 -0.000000  0.000000  0.000000 -0.000002 -0.000000
                                 0.000002  0.000000 -0.000005 -0.000000  0.000010  0.000000 -0.000014 -0.000000  0.000025  0.000000

                                   1 2py     1 2py     1 2py     1 2py     1 2py     1 2py     1 2py     1 2py     1 2py     1 2py  
                                   1 2py     1 2py     1 2py     1 2py     1 2py     1 2py     1 2py     1 2py     1 2py     1 2py  
                                   1 2py     1 2py     1 2py     1 2py     1 2py     1 2py     1 4f1-    1 4f3-    1 4f1-    1 4f3- 
                                   1 4f1-    1 4f3-    1 4f1-    1 4f3-    1 4f1-    1 4f3-    1 4f1-    1 4f3-    1 4f1-    1 4f3- 
                                   1 4f1-    1 4f3-    1 4f1-    1 4f3-    1 4f1-    1 4f3-    1 4f1-    1 4f3-    1 4f1-    1 4f3- 
                                   1 4f1-    1 4f3-    1 4f1-    1 4f3-    1 4f1-    1 4f3-    1 4f1-    1 4f3-    1 4f1-    1 4f3- 


   1.3   2  -447.2542-1242.7445  0.000024  0.000060  0.000175  0.000451  0.001166  0.002998  0.007814  0.020403  0.051865  0.121212
                                 0.236303  0.341001  0.286419  0.074235  0.058379 -0.003656  0.004717 -0.002132  0.001000 -0.000561
                                 0.000288 -0.000130  0.000051 -0.000020  0.000008 -0.000003 -0.000000 -0.000000  0.000000 -0.000000
                                 0.000000  0.000000  0.000000 -0.000000  0.000000 -0.000000  0.000000  0.000000  0.000000  0.000000
                                 0.000000  0.000000 -0.000000 -0.000000 -0.000000 -0.000000 -0.000000 -0.000000 -0.000000  0.000000
                                -0.000000 -0.000000  0.000000  0.000000 -0.000000  0.000000  0.000000  0.000000 -0.000000 -0.000000

   2.3   2  -103.2572 -444.5612 -0.000012 -0.000031 -0.000090 -0.000232 -0.000603 -0.001555 -0.004090 -0.010764 -0.027981 -0.067087
                                -0.137650 -0.204137 -0.146061  0.123586  0.095112  0.490348  0.369889  0.071939  0.007055 -0.001238
                                 0.000764 -0.000418  0.000144 -0.000063  0.000026 -0.000008  0.000000  0.000000  0.000000  0.000000
                                -0.000000 -0.000000  0.000000  0.000000  0.000000  0.000000  0.000000  0.000000  0.000000 -0.000000
                                -0.000000 -0.000000  0.000000  0.000000  0.000000  0.000000  0.000000  0.000000 -0.000000 -0.000000
                                 0.000000  0.000000 -0.000000 -0.000000  0.000000 -0.000000 -0.000000 -0.000000  0.000000  0.000000

   3.3   2   -21.0232 -190.9992  0.000006  0.000015  0.000044  0.000115  0.000298  0.000770  0.002031  0.005355  0.013996  0.033761
                                 0.070180  0.104868  0.069898 -0.097653 -0.077798 -0.400800 -0.233493  0.414380  0.612961  0.216141
                                 0.013054  0.001935 -0.000305  0.000191 -0.000074  0.000023  0.000000  0.000000  0.000000 -0.000000
                                 0.000000  0.000000  0.000000 -0.000000  0.000000 -0.000000  0.000000 -0.000000  0.000000 -0.000000
                                 0.000000 -0.000000  0.000000  0.000000 -0.000000  0.000000 -0.000000 -0.000000  0.000000  0.000000
                                -0.000000 -0.000000  0.000000  0.000000 -0.000000 -0.000000  0.000000  0.000000 -0.000000 -0.000000

   4.3   2    -3.2384 -142.5912  0.000000  0.000000  0.000000  0.000000  0.000000  0.000000  0.000000  0.000000  0.000000  0.000000
                                 0.000000  0.000000  0.000000 -0.000000 -0.000000 -0.000000 -0.000000  0.000000  0.000000  0.000000
                                -0.000001 -0.000001  0.000000  0.000000  0.000000  0.000000  0.000215 -0.000000  0.001990 -0.000001
                                 0.000005 -0.000000  0.011257 -0.000004  0.042360 -0.000017  0.114350 -0.000045  0.223439 -0.000088
                                 0.311402 -0.000122  0.320162 -0.000126  0.225476 -0.000088  0.089076 -0.000035 -0.000313  0.000000
                                 0.015282 -0.000006 -0.007196  0.000003  0.003987 -0.000002 -0.002339  0.000001  0.001136 -0.000000

   5.3   2    -3.2384 -142.5911 -0.000000 -0.000000 -0.000000 -0.000000 -0.000000 -0.000000 -0.000000 -0.000000 -0.000000 -0.000000
                                -0.000000 -0.000000 -0.000000  0.000000  0.000000  0.000000  0.000000 -0.000000 -0.000000  0.000000
                                 0.000000 -0.000000 -0.000000  0.000000  0.000000 -0.000000  0.000000  0.000215  0.000001  0.001990
                                 0.000000  0.000005  0.000004  0.011257  0.000017  0.042360  0.000045  0.114350  0.000088  0.223439
                                 0.000122  0.311402  0.000126  0.320162  0.000088  0.225476  0.000035  0.089076 -0.000000 -0.000313
                                 0.000006  0.015282 -0.000003 -0.007196  0.000002  0.003987 -0.000001 -0.002339  0.000000  0.001136

   6.3   2    -2.4668  -79.0832 -0.000002 -0.000006 -0.000017 -0.000045 -0.000117 -0.000301 -0.000795 -0.002092 -0.005490 -0.013211
                                -0.027685 -0.041031 -0.028198  0.046017  0.025709  0.183044  0.082450 -0.237259 -0.429772 -0.006048
                                 0.520500  0.504897  0.153305  0.000300  0.003437 -0.001033  0.000000  0.000000  0.000000  0.000000
                                -0.000000  0.000000  0.000000  0.000000  0.000000  0.000000  0.000000  0.000000  0.000000  0.000000
                                 0.000000  0.000000  0.000000  0.000000  0.000000 -0.000000 -0.000000 -0.000000 -0.000001 -0.000000
                                -0.000000 -0.000000  0.000000  0.000000  0.000000  0.000000  0.000000  0.000000 -0.000000  0.000000

   7.3   0     0.0379  -10.1266  0.000000  0.000000  0.000001  0.000002  0.000005  0.000013  0.000033  0.000092  0.000227  0.000586
                                 0.001112  0.001974  0.000281  0.001348 -0.007405 -0.001695 -0.008963  0.017738  0.008778  0.016094
                                -0.055665  0.013410 -0.072656  0.189251 -0.389390  1.219989 -0.000000 -0.000000 -0.000000 -0.000000
                                -0.000000  0.000000 -0.000000 -0.000000 -0.000000 -0.000000 -0.000000 -0.000000 -0.000000 -0.000000
                                -0.000000 -0.000000 -0.000000 -0.000000  0.000000 -0.000000 -0.000000  0.000000  0.000001  0.000000
                                -0.000001  0.000000  0.000002  0.000000 -0.000003  0.000000  0.000007  0.000000 -0.000012  0.000000

   8.3   0     0.1363  -16.3857 -0.000000 -0.000001 -0.000002 -0.000006 -0.000015 -0.000039 -0.000107 -0.000269 -0.000746 -0.001672
                                -0.003861 -0.004731 -0.006511  0.016255 -0.015746  0.043303 -0.005894 -0.010765 -0.093224  0.054219
                                 0.003273  0.219619 -0.207539  0.416310 -1.836431  1.090211  0.000000  0.000000  0.000000  0.000000
                                 0.000000 -0.000000  0.000000  0.000000  0.000000  0.000000  0.000000  0.000000  0.000000  0.000000
                                 0.000000  0.000000  0.000000  0.000000 -0.000000  0.000000  0.000000 -0.000000 -0.000002  0.000000
                                 0.000002 -0.000000 -0.000005  0.000000  0.000010 -0.000000 -0.000014  0.000000  0.000025 -0.000000

                                   1 3d2-    1 3d2-    1 3d2-    1 3d2-    1 3d2-    1 3d2-    1 3d2-    1 3d2-    1 3d2-    1 3d2- 
                                   1 3d2-    1 3d2-    1 3d2-    1 3d2-    1 3d2-    1 3d2-    1 3d2-    1 3d2-    1 5g2-    1 5g4- 
                                   1 5g2-    1 5g4-    1 5g2-    1 5g4- 

   1.4   2   -80.7528 -408.3880  0.000145  0.001037  0.005638  0.023582  0.078156  0.195505  0.336019  0.355839  0.185315  0.036343
                                 0.002071  0.000308 -0.000026  0.000029 -0.000010  0.000002 -0.000000  0.000000  0.000000  0.000000
                                -0.000000 -0.000000  0.000000  0.000000

   2.4   2   -12.5982 -169.4932 -0.000075 -0.000534 -0.002921 -0.012296 -0.041434 -0.105192 -0.178271 -0.151897  0.113226  0.426114
                                 0.430159  0.164897  0.016581  0.001370 -0.000182  0.000221 -0.000055  0.000017  0.000000 -0.000000
                                -0.000000  0.000000  0.000000  0.000000

   3.4   2    -0.3223  -53.7741 -0.000020 -0.000147 -0.000802 -0.003399 -0.011423 -0.029250 -0.049057 -0.040262  0.046686  0.141927
                                 0.144391 -0.085974 -0.289402 -0.162682 -0.318014 -0.282288 -0.133909 -0.004265  0.000000  0.000000
                                 0.000000  0.000000  0.000002  0.000000

   4.4   0     0.1144  -11.1388 -0.000003 -0.000016 -0.000100 -0.000377 -0.001418 -0.003204 -0.006366 -0.003303  0.002526  0.022697
                                 0.004902  0.016099 -0.136229  0.171518 -0.244210  0.181703 -0.447176  1.230157 -0.000000  0.000000
                                 0.000000 -0.000000  0.000000  0.000000

   5.4   0     0.4074  -19.3929  0.000007  0.000057  0.000273  0.001312  0.003885  0.011418  0.015729  0.019497 -0.027448 -0.031138
                                -0.094661  0.126537 -0.249929  0.750566 -0.641479  0.982578 -1.850375  0.826193  0.000000 -0.000000
                                -0.000001  0.000000  0.000001 -0.000000

                                   1 2pz     1 2pz     1 2pz     1 2pz     1 2pz     1 2pz     1 2pz     1 2pz     1 2pz     1 2pz  
                                   1 2pz     1 2pz     1 2pz     1 2pz     1 2pz     1 2pz     1 2pz     1 2pz     1 2pz     1 2pz  
                                   1 2pz     1 2pz     1 2pz     1 2pz     1 2pz     1 2pz     1 4f0     1 4f2+    1 4f0     1 4f2+ 
                                   1 4f0     1 4f2+    1 4f0     1 4f2+    1 4f0     1 4f2+    1 4f0     1 4f2+    1 4f0     1 4f2+ 
                                   1 4f0     1 4f2+    1 4f0     1 4f2+    1 4f0     1 4f2+    1 4f0     1 4f2+    1 4f0     1 4f2+ 
                                   1 4f0     1 4f2+    1 4f0     1 4f2+    1 4f0     1 4f2+    1 4f0     1 4f2+    1 4f0     1 4f2+ 


   1.5   2  -447.2542-1242.7445  0.000024  0.000060  0.000175  0.000451  0.001166  0.002998  0.007814  0.020403  0.051865  0.121212
                                 0.236303  0.341001  0.286419  0.074235  0.058379 -0.003656  0.004717 -0.002132  0.001000 -0.000561
                                 0.000288 -0.000130  0.000051 -0.000020  0.000008 -0.000003 -0.000000 -0.000000  0.000000 -0.000000
                                 0.000000  0.000000  0.000000 -0.000000  0.000000  0.000000  0.000000 -0.000000  0.000000  0.000000
                                 0.000000 -0.000000 -0.000000  0.000000 -0.000000 -0.000000 -0.000000  0.000000 -0.000000 -0.000000
                                -0.000000  0.000000  0.000000 -0.000000 -0.000000  0.000000  0.000000 -0.000000 -0.000000  0.000000

   2.5   2  -103.2572 -444.5612 -0.000012 -0.000031 -0.000090 -0.000232 -0.000603 -0.001555 -0.004090 -0.010764 -0.027981 -0.067087
                                -0.137650 -0.204137 -0.146061  0.123586  0.095112  0.490348  0.369889  0.071939  0.007055 -0.001238
                                 0.000764 -0.000418  0.000144 -0.000063  0.000026 -0.000008  0.000000  0.000000  0.000000  0.000000
                                -0.000000 -0.000000  0.000000  0.000000  0.000000 -0.000000  0.000000 -0.000000  0.000000 -0.000000
                                -0.000000 -0.000000  0.000000 -0.000000  0.000000 -0.000000  0.000000 -0.000000 -0.000000 -0.000000
                                 0.000000  0.000000 -0.000000 -0.000000  0.000000  0.000000 -0.000000 -0.000000  0.000000  0.000000

   3.5   2   -21.0232 -190.9992  0.000006  0.000015  0.000044  0.000115  0.000298  0.000770  0.002031  0.005355  0.013996  0.033761
                                 0.070180  0.104868  0.069898 -0.097653 -0.077798 -0.400800 -0.233493  0.414379  0.612961  0.216141
                                 0.013053  0.001935 -0.000305  0.000191 -0.000074  0.000023  0.000000 -0.000000  0.000000 -0.000000
                                 0.000000  0.000000  0.000000 -0.000000  0.000000  0.000000  0.000000 -0.000000  0.000000  0.000000
                                 0.000000 -0.000000  0.000000 -0.000000 -0.000000  0.000000 -0.000000 -0.000000  0.000000  0.000000
                                -0.000000 -0.000000  0.000000 -0.000000 -0.000000  0.000000  0.000000 -0.000000 -0.000000  0.000000

   4.5   2    -3.2384 -142.5912  0.000000  0.000000  0.000000  0.000000  0.000000  0.000000  0.000000  0.000000  0.000000  0.000000
                                 0.000000  0.000000  0.000000 -0.000000 -0.000000 -0.000000 -0.000000  0.000000  0.000000  0.000000
                                -0.000001 -0.000001  0.000000  0.000000  0.000000  0.000000  0.000215  0.000000  0.001990  0.000000
                                 0.000005  0.000000  0.011257  0.000000  0.042360  0.000000  0.114350  0.000000  0.223439  0.000000
                                 0.311402  0.000000  0.320162  0.000000  0.225476  0.000000  0.089076  0.000000 -0.000313 -0.000000
                                 0.015282  0.000000 -0.007196 -0.000000  0.003987  0.000000 -0.002339 -0.000000  0.001136  0.000000

   5.5   2    -3.2384 -142.5911  0.000000 -0.000000  0.000000  0.000000  0.000000  0.000000  0.000000  0.000000  0.000000  0.000000
                                 0.000000  0.000000 -0.000000  0.000000 -0.000000  0.000000 -0.000000  0.000000 -0.000000  0.000000
                                -0.000000  0.000000 -0.000000  0.000000 -0.000000  0.000000 -0.000000  0.000215 -0.000000  0.001990
                                -0.000000  0.000005 -0.000000  0.011257 -0.000000  0.042360 -0.000000  0.114350 -0.000000  0.223439
                                -0.000000  0.311402 -0.000000  0.320162 -0.000000  0.225476 -0.000000  0.089076  0.000000 -0.000313
                                -0.000000  0.015282  0.000000 -0.007196 -0.000000  0.003987  0.000000 -0.002339 -0.000000  0.001136

   6.5   2    -2.4668  -79.0831 -0.000002 -0.000006 -0.000017 -0.000045 -0.000117 -0.000301 -0.000795 -0.002092 -0.005490 -0.013211
                                -0.027685 -0.041031 -0.028198  0.046017  0.025709  0.183043  0.082449 -0.237259 -0.429772 -0.006049
                                 0.520499  0.504894  0.153308  0.000303  0.003437 -0.001033  0.000000  0.000000  0.000000  0.000000
                                -0.000000 -0.000000  0.000000  0.000000  0.000000  0.000000  0.000000  0.000000  0.000000  0.000000
                                 0.000000  0.000000  0.000000 -0.000000  0.000000  0.000000 -0.000000 -0.000000 -0.000001  0.000000
                                -0.000000 -0.000000  0.000000  0.000000  0.000000 -0.000000  0.000000  0.000000 -0.000000 -0.000000

   7.5   0     0.0379  -10.1266  0.000000  0.000000  0.000001  0.000002  0.000005  0.000013  0.000033  0.000092  0.000227  0.000586
                                 0.001112  0.001974  0.000281  0.001348 -0.007405 -0.001695 -0.008963  0.017739  0.008778  0.016095
                                -0.055666  0.013410 -0.072657  0.189257 -0.389401  1.219995 -0.000000 -0.000000 -0.000000 -0.000000
                                -0.000000  0.000000 -0.000000 -0.000000 -0.000000 -0.000000 -0.000000 -0.000000 -0.000000 -0.000000
                                -0.000000 -0.000000 -0.000000 -0.000000  0.000000 -0.000000 -0.000000  0.000000  0.000001 -0.000000
                                -0.000001  0.000000  0.000002 -0.000000 -0.000004  0.000000  0.000009 -0.000000 -0.000015  0.000000

   8.5   0     0.1364  -16.3858 -0.000000 -0.000001 -0.000002 -0.000006 -0.000015 -0.000039 -0.000107 -0.000269 -0.000746 -0.001672
                                -0.003861 -0.004731 -0.006511  0.016255 -0.015746  0.043304 -0.005893 -0.010766 -0.093227  0.054219
                                 0.003275  0.219623 -0.207542  0.416307 -1.836426  1.090204  0.000000  0.000000  0.000000 -0.000000
                                 0.000000  0.000000  0.000000 -0.000000  0.000000  0.000000  0.000000 -0.000000  0.000000  0.000000
                                 0.000000 -0.000000  0.000000  0.000000 -0.000000 -0.000000  0.000000  0.000000 -0.000002 -0.000000
                                 0.000003  0.000000 -0.000006 -0.000000  0.000011  0.000000 -0.000017 -0.000000  0.000030  0.000000

                                   1 3d1+    1 3d1+    1 3d1+    1 3d1+    1 3d1+    1 3d1+    1 3d1+    1 3d1+    1 3d1+    1 3d1+ 
                                   1 3d1+    1 3d1+    1 3d1+    1 3d1+    1 3d1+    1 3d1+    1 3d1+    1 3d1+    1 5g1+    1 5g3+ 
                                   1 5g1+    1 5g3+    1 5g1+    1 5g3+ 

   1.6   2   -80.7528 -408.3880  0.000145  0.001037  0.005638  0.023582  0.078156  0.195505  0.336019  0.355839  0.185315  0.036343
                                 0.002071  0.000308 -0.000026  0.000029 -0.000010  0.000002 -0.000000  0.000000  0.000000 -0.000000
                                -0.000000  0.000000  0.000000 -0.000000

   2.6   2   -12.5982 -169.4932 -0.000075 -0.000534 -0.002921 -0.012296 -0.041434 -0.105192 -0.178271 -0.151897  0.113226  0.426114
                                 0.430159  0.164897  0.016581  0.001370 -0.000182  0.000221 -0.000055  0.000017  0.000000 -0.000000
                                -0.000000  0.000000  0.000000 -0.000000

   3.6   2    -0.3223  -53.7741  0.000020  0.000147  0.000802  0.003399  0.011423  0.029250  0.049057  0.040262 -0.046686 -0.141927
                                -0.144391  0.085974  0.289402  0.162682  0.318013  0.282287  0.133911  0.004265 -0.000000  0.000000
                                -0.000001  0.000000 -0.000002 -0.000000

   4.6   0     0.1144  -11.1388 -0.000003 -0.000016 -0.000100 -0.000377 -0.001418 -0.003204 -0.006366 -0.003303  0.002525  0.022697
                                 0.004902  0.016099 -0.136231  0.171521 -0.244212  0.181706 -0.447182  1.230160 -0.000000 -0.000000
                                 0.000000 -0.000000  0.000000 -0.000000

   5.6   0     0.4074  -19.3929  0.000007  0.000057  0.000273  0.001312  0.003885  0.011418  0.015729  0.019497 -0.027449 -0.031138
                                -0.094662  0.126538 -0.249932  0.750572 -0.641486  0.982584 -1.850376  0.826190  0.000000  0.000000
                                -0.000001  0.000000  0.000001  0.000000

                                   1 3d1-    1 3d1-    1 3d1-    1 3d1-    1 3d1-    1 3d1-    1 3d1-    1 3d1-    1 3d1-    1 3d1- 
                                   1 3d1-    1 3d1-    1 3d1-    1 3d1-    1 3d1-    1 3d1-    1 3d1-    1 3d1-    1 5g1-    1 5g3- 
                                   1 5g1-    1 5g3-    1 5g1-    1 5g3- 

   1.7   2   -80.7528 -408.3880  0.000145  0.001037  0.005638  0.023582  0.078156  0.195505  0.336019  0.355839  0.185315  0.036343
                                 0.002071  0.000308 -0.000026  0.000029 -0.000010  0.000002 -0.000000  0.000000  0.000000  0.000000
                                -0.000000 -0.000000  0.000000  0.000000

   2.7   2   -12.5982 -169.4932 -0.000075 -0.000534 -0.002921 -0.012296 -0.041434 -0.105192 -0.178271 -0.151897  0.113226  0.426114
                                 0.430159  0.164897  0.016581  0.001370 -0.000182  0.000221 -0.000055  0.000017  0.000000  0.000000
                                -0.000000 -0.000000  0.000000  0.000000

   3.7   2    -0.3223  -53.7741  0.000020  0.000147  0.000802  0.003399  0.011423  0.029250  0.049057  0.040262 -0.046686 -0.141927
                                -0.144391  0.085974  0.289402  0.162682  0.318013  0.282287  0.133911  0.004265 -0.000000 -0.000000
                                -0.000001 -0.000000 -0.000002  0.000000

   4.7   0     0.1144  -11.1388 -0.000003 -0.000016 -0.000100 -0.000377 -0.001418 -0.003204 -0.006366 -0.003303  0.002525  0.022697
                                 0.004902  0.016099 -0.136231  0.171521 -0.244212  0.181706 -0.447182  1.230160 -0.000000  0.000000
                                 0.000000  0.000000  0.000000  0.000000

   5.7   0     0.4074  -19.3929  0.000007  0.000057  0.000273  0.001312  0.003885  0.011418  0.015729  0.019497 -0.027449 -0.031138
                                -0.094662  0.126538 -0.249932  0.750572 -0.641486  0.982584 -1.850376  0.826190  0.000000 -0.000000
                                -0.000001 -0.000000  0.000001 -0.000000

                                   1 4f2-    1 4f2-    1 4f2-    1 4f2-    1 4f2-    1 4f2-    1 4f2-    1 4f2-    1 4f2-    1 4f2- 
                                   1 4f2-    1 4f2-    1 4f2-    1 4f2-    1 4f2-    1 4f2-    1 4f2- 

   1.8   2    -3.2384 -142.5911  0.000215  0.001990  0.000005  0.011257  0.042360  0.114350  0.223439  0.311402  0.320162  0.225476
                                 0.089076 -0.000313  0.015282 -0.007196  0.003987 -0.002339  0.001136

   2.8   0     0.1576   -9.4886  0.000003 -0.000056  0.000170 -0.000254  0.000260 -0.000991  0.001319 -0.004212  0.006671 -0.015273
                                 0.056828 -0.120616  0.274106 -0.486418  0.802818 -2.139643  2.518410

   3.8   0     0.3822  -12.9720 -0.000008  0.000075 -0.000314  0.000311 -0.001070  0.000237 -0.005535  0.003585 -0.016404  0.027362
                                -0.101091  0.232601 -0.505511  0.961216 -1.566753  4.055018 -2.616907

 HOMO     11.1    -0.322305 =      -8.7704eV
 LUMO     12.1    -0.006674 =      -0.1816eV
 LUMO-HOMO         0.315631 =       8.5888eV


 **********************************************************************************************************************************
 DATASETS  * FILE   NREC   LENGTH (MB)   RECORD NAMES
              1      22       21.27       500      610      700      900      950      970     1000      129      960     1700   
                                          VAR    BASINP    GEOM    SYMINP    ZMAT    AOBASIS   BASIS     P2S    ABASIS    OPER   
                                         1101     1401     1411     1412     1650     1100     1400     1410     1200     1210   
                                          SR      EKINR    POTR     PVPR    MOLCAS      S      EKIN      POT      H0       H01  
                                         1080     1600   
                                         AOSYM     SMH  

              2       5        5.77       200      700     1000      520     4202   
                                        OPTIONS   GEOM     BASIS   MCVARS     RHF  

 PROGRAMS   *        TOTAL       RHF       INT
 CPU TIMES  *        76.28      1.36     74.50
 REAL TIME  *        79.87 SEC
 DISK USED  *         4.07 GB      
 SF USED    *         0.08 MB      
 GA USED    *         0.00 MB       (max)       0.00 MB       (current)
 **********************************************************************************************************************************

 DO I                   =        16.00000000   

 Running procedure=XF1


 PROGRAM * RHF-SCF (OPEN SHELL)       Authors: W. Meyer, H.-J. Werner


 NUMBER OF ELECTRONS:      35+   34-    SPACE SYMMETRY=8    SPIN SYMMETRY: Doublet 
 CONVERGENCE THRESHOLDS:    1.00E-05 (Density)    1.56E-07 (Energy)
 MAX. NUMBER OF ITERATIONS:       60
 INTERPOLATION TYPE:            DIIS
 INTERPOLATION STEPS:              2 (START)      1 (STEP)
 LEVEL SHIFTS:                 -0.60 (CLOSED) -0.30 (OPEN) 

 Number of closed-shell orbitals:   34 (   9   6   6   2   6   2   2   1 )
 Number of open-shell orbitals:      1 (   0   0   0   0   0   0   0   1 )


 
 Extra symmetries of mos in symmetry 1:   1   1   1   3   2   1   3   2   1
 Extra symmetries of mos in symmetry 2:   1   1   1   3   2   1   3   2
 Extra symmetries of mos in symmetry 3:   1   1   1   3   2   1   3   2
 Extra symmetries of mos in symmetry 5:   1   1   1   3   2   1   3   2
 Orbital guess generated from atomic densities. Full valence occupancy:   12   6   6   3   6   3   3   1


 Molecular orbital dump at record        4202.2

 ITERATION    DDIFF          GRAD             ENERGY        2-EL.EN.            DIPOLE MOMENTS         DIIS   ORB.
    1      0.000D+00      0.000D+00    -18387.30293184  12662.493222    0.00000    0.00000    0.00000    0    start
    2      0.000D+00      0.569D-01    -18390.46630032  12968.459512    0.00000    0.00000    0.00000    1    diag,B
    3      0.189D+00      0.449D-01    -18390.69841529  12885.707796    0.00000    0.00000    0.00000    2    diag,B
    4      0.406D-02      0.320D-02    -18390.70331083  12881.214655    0.00000    0.00000    0.00000    3    diag,B
    5      0.164D-02      0.115D-02    -18390.70376585  12882.931116    0.00000    0.00000    0.00000    4    diag,B
    6      0.278D-03      0.136D-03    -18390.70379937  12882.975327    0.00000    0.00000    0.00000    5    diag,B
    7      0.552D-04      0.305D-04    -18390.70380205  12882.968114    0.00000    0.00000    0.00000    6    fixocc
    8      0.154D-04      0.284D-05    -18390.70380209  12882.961770    0.00000    0.00000    0.00000    7    diag,B
    9      0.212D-05      0.271D-06    -18390.70380209  12882.961199    0.00000    0.00000    0.00000    0    orth

 Final alpha occupancy:   9   6   6   2   6   2   2   2
 Final beta  occupancy:   9   6   6   2   6   2   2   1

 !RHF STATE 1.8 Energy               -18390.7038020888    
 Nuclear energy                         0.00000000
 One-electron energy               -24832.18440158
 Two-electron energy                 6441.48059949
 Virial quotient                       -0.67596274
 !RHF STATE 1.8 Dipole moment           0.00000000     0.00000000     0.00000000
 Dipole moment /Debye                   0.00000000     0.00000000     0.00000000

 ELECTRON ORBITALS
 =================


   Orb  Occ    Energy  Couls-En    Coefficients

                                   1 1s      1 1s      1 1s      1 1s      1 1s      1 1s      1 1s      1 1s      1 1s      1 1s   
                                   1 1s      1 1s      1 1s      1 1s      1 1s      1 1s      1 1s      1 1s      1 1s      1 1s   
                                   1 1s      1 1s      1 1s      1 1s      1 1s      1 1s      1 1s      1 1s      1 1s      1 1s   
                                   1 1s      1 1s      1 1s      1 3d0     1 3d2+    1 3d0     1 3d2+    1 3d0     1 3d2+    1 3d0  
                                   1 3d2+    1 3d0     1 3d2+    1 3d0     1 3d2+    1 3d0     1 3d2+    1 3d0     1 3d2+    1 3d0  
                                   1 3d2+    1 3d0     1 3d2+    1 3d0     1 3d2+    1 3d0     1 3d2+    1 3d0     1 3d2+    1 3d0  
                                   1 3d2+    1 3d0     1 3d2+    1 3d0     1 3d2+    1 3d0     1 3d2+    1 3d0     1 3d2+    1 5g0  
                                   1 5g4+    1 5g2+    1 5g0     1 5g4+    1 5g2+    1 5g0     1 5g4+    1 5g2+ 

   1.1   2 -2903.3495-6241.7169  0.000912  0.000995  0.002594  0.003050  0.006001  0.007586  0.013714  0.020199  0.035192  0.057527
                                 0.098417  0.159081  0.235952  0.276411  0.213083  0.079089  0.011106 -0.000671  0.001101 -0.000954
                                 0.000573 -0.000313  0.000169 -0.000094  0.000055 -0.000035  0.000016 -0.000014  0.000022 -0.000015
                                 0.000004 -0.000001  0.000000 -0.000000  0.000000  0.000000 -0.000000  0.000000  0.000000  0.000000
                                -0.000000 -0.000000  0.000000  0.000000 -0.000000 -0.000000  0.000000  0.000000 -0.000000 -0.000000
                                 0.000000  0.000000  0.000000 -0.000000 -0.000000  0.000000  0.000000 -0.000000 -0.000000  0.000000
                                 0.000000 -0.000000 -0.000000  0.000000  0.000000 -0.000000 -0.000000  0.000000  0.000000 -0.000000
                                -0.000000 -0.000000  0.000000  0.000000  0.000000 -0.000000 -0.000000 -0.000000

   2.1   2  -520.2429-1371.0407 -0.000352 -0.000384 -0.001004 -0.001184 -0.002335 -0.002972 -0.005401 -0.008047 -0.014216 -0.023797
                                -0.042179 -0.072304 -0.117876 -0.159210 -0.133040  0.049135  0.335446  0.439877  0.258700  0.065665
                                 0.004327  0.000520 -0.000390  0.000089 -0.000071  0.000055 -0.000021  0.000020 -0.000031  0.000021
                                -0.000005  0.000002 -0.000000 -0.000000 -0.000000 -0.000000  0.000000 -0.000000  0.000000 -0.000000
                                 0.000000 -0.000000  0.000000 -0.000000  0.000000 -0.000000  0.000000 -0.000000  0.000000  0.000000
                                 0.000000 -0.000000 -0.000000  0.000000 -0.000000 -0.000000  0.000000  0.000000  0.000000 -0.000000
                                -0.000000  0.000000  0.000000 -0.000000  0.000000  0.000000  0.000000 -0.000000  0.000000  0.000000
                                 0.000000  0.000000  0.000000  0.000000  0.000000 -0.000000 -0.000000  0.000000

   3.1   2  -129.0089 -489.0290  0.000168  0.000184  0.000480  0.000567  0.001118  0.001424  0.002591  0.003868  0.006849  0.011511
                                 0.020523  0.035550  0.058941  0.081862  0.069700 -0.041620 -0.277085 -0.457521 -0.296752  0.253227
                                 0.707912  0.407327  0.048448 -0.000500  0.000793 -0.000459  0.000126 -0.000108  0.000163 -0.000112
                                 0.000026 -0.000008  0.000002 -0.000000  0.000000 -0.000000 -0.000000 -0.000000 -0.000000 -0.000000
                                -0.000000 -0.000000 -0.000000 -0.000000 -0.000000 -0.000000 -0.000000 -0.000000 -0.000000 -0.000000
                                -0.000000  0.000000 -0.000000 -0.000000 -0.000000  0.000000  0.000000 -0.000000  0.000000  0.000000
                                -0.000000 -0.000000  0.000000  0.000000 -0.000000 -0.000000 -0.000000  0.000000  0.000000  0.000000
                                 0.000000 -0.000000 -0.000000 -0.000000 -0.000000  0.000000  0.000000 -0.000000

   4.1   2   -86.5645 -414.2198  0.000000 -0.000000  0.000000 -0.000000  0.000000 -0.000000  0.000000 -0.000000  0.000000 -0.000000
                                 0.000000 -0.000000  0.000000 -0.000000  0.000000 -0.000000  0.000000 -0.000000  0.000000 -0.000000
                                 0.000000 -0.000000  0.000000 -0.000000  0.000000 -0.000000 -0.000000  0.000000 -0.000000  0.000000
                                -0.000000  0.000000 -0.000000 -0.000000  0.000145 -0.000000  0.001037 -0.000000  0.005640 -0.000001
                                 0.023590 -0.000002  0.078183 -0.000006  0.195608 -0.000010  0.336101 -0.000011  0.355754 -0.000006
                                 0.185241 -0.000001  0.036261 -0.000000  0.002082 -0.000000  0.000296  0.000000 -0.000027 -0.000000
                                 0.000024  0.000000 -0.000008 -0.000000  0.000001  0.000000 -0.000000 -0.000000  0.000000 -0.000000
                                 0.000000 -0.000000  0.000000 -0.000000  0.000000 -0.000000  0.000000 -0.000000

   5.1   2   -86.5645 -414.2198  0.000000  0.000000  0.000000  0.000000  0.000000  0.000000  0.000000  0.000000  0.000000  0.000000
                                 0.000000  0.000000  0.000000  0.000000  0.000000 -0.000000 -0.000000 -0.000000 -0.000000  0.000000
                                 0.000000 -0.000000  0.000000 -0.000000 -0.000000  0.000000  0.000000 -0.000000  0.000000 -0.000000
                                 0.000000 -0.000000  0.000000  0.000145  0.000000  0.001037  0.000000  0.005640  0.000000  0.023590
                                 0.000001  0.078183  0.000002  0.195608  0.000006  0.336101  0.000010  0.355754  0.000011  0.185241
                                 0.000006  0.036261  0.000001  0.002082  0.000000  0.000296  0.000000 -0.000027 -0.000000  0.000024
                                 0.000000 -0.000008 -0.000000  0.000001  0.000000 -0.000000 -0.000000  0.000000  0.000000  0.000000
                                -0.000000 -0.000000 -0.000000  0.000000  0.000000  0.000000 -0.000000 -0.000000

   6.1   2   -33.4594 -214.7836 -0.000084 -0.000092 -0.000239 -0.000282 -0.000557 -0.000710 -0.001292 -0.001929 -0.003417 -0.005748
                                -0.010266 -0.017820 -0.029687 -0.041471 -0.035589  0.023640  0.157663  0.278656  0.189216 -0.218657
                                -0.854142 -0.473483  0.711911  0.758387  0.117886 -0.008479  0.003353 -0.002083  0.003034 -0.002064
                                 0.000473 -0.000150  0.000041  0.000000 -0.000000  0.000000  0.000000  0.000000  0.000000  0.000000
                                 0.000000  0.000000  0.000000  0.000000  0.000000  0.000000  0.000000  0.000000  0.000000  0.000000
                                -0.000000 -0.000000 -0.000000 -0.000000 -0.000000 -0.000000 -0.000000  0.000000  0.000000 -0.000000
                                 0.000000  0.000000  0.000000 -0.000000  0.000000  0.000000 -0.000000 -0.000000  0.000000  0.000036
                                 0.000031 -0.000000 -0.000021 -0.000018 -0.000000  0.000006  0.000005 -0.000000

   7.1   2   -18.3306 -175.2537 -0.000000 -0.000000 -0.000000  0.000000 -0.000000  0.000000 -0.000000 -0.000000 -0.000000 -0.000000
                                -0.000000 -0.000000 -0.000000 -0.000000 -0.000000 -0.000000  0.000000  0.000000  0.000000 -0.000000
                                 0.000000 -0.000000  0.000000 -0.000000  0.000000 -0.000000  0.000000 -0.000000  0.000000 -0.000000
                                 0.000000 -0.000000  0.000000  0.000000 -0.000075  0.000000 -0.000534  0.000000 -0.002921  0.000001
                                -0.012299  0.000003 -0.041433  0.000007 -0.105246  0.000012 -0.178197  0.000010 -0.151908 -0.000008
                                 0.113520 -0.000029  0.425736 -0.000030  0.430070 -0.000011  0.167339 -0.000001  0.013002 -0.000000
                                 0.001584  0.000000 -0.000902 -0.000000  0.000294  0.000000 -0.000083 -0.000000  0.000024 -0.000000
                                 0.000000 -0.000083  0.000000 -0.000000  0.000029 -0.000000  0.000000 -0.000009

   8.1   2   -18.3306 -175.2537 -0.000000 -0.000000 -0.000000 -0.000000 -0.000000 -0.000000 -0.000000 -0.000000 -0.000000 -0.000000
                                -0.000000 -0.000000 -0.000000 -0.000000 -0.000000  0.000000  0.000000  0.000000  0.000000 -0.000000
                                -0.000000 -0.000000  0.000000  0.000000 -0.000000  0.000000  0.000000  0.000000 -0.000000  0.000000
                                -0.000000  0.000000 -0.000000 -0.000075 -0.000000 -0.000534 -0.000000 -0.002921 -0.000000 -0.012299
                                -0.000001 -0.041433 -0.000003 -0.105246 -0.000007 -0.178197 -0.000012 -0.151908 -0.000010  0.113520
                                 0.000008  0.425736  0.000029  0.430070  0.000030  0.167339  0.000011  0.013002  0.000001  0.001584
                                 0.000000 -0.000902 -0.000000  0.000294  0.000000 -0.000083 -0.000000  0.000024  0.000000  0.000054
                                -0.000064 -0.000000 -0.000019  0.000022  0.000000  0.000006 -0.000007 -0.000000

   9.1   2    -9.7373  -99.9016  0.000038  0.000041  0.000108  0.000127  0.000251  0.000320  0.000582  0.000869  0.001539  0.002590
                                 0.004628  0.008036  0.013404  0.018749  0.016125 -0.010986 -0.073343 -0.131717 -0.091498  0.113775
                                 0.479183  0.261063 -0.564696 -0.938423  0.110177  1.081650  0.295264 -0.029725  0.041325 -0.027386
                                 0.006081 -0.001895  0.000514  0.000000  0.000000  0.000000 -0.000000  0.000000 -0.000000  0.000000
                                -0.000000  0.000000 -0.000000  0.000000 -0.000000  0.000000 -0.000000  0.000000 -0.000000 -0.000000
                                 0.000000 -0.000000  0.000000 -0.000000  0.000000  0.000000 -0.000000  0.000000 -0.000000  0.000000
                                -0.000000  0.000000 -0.000000 -0.000000  0.000000  0.000000  0.000000 -0.000000  0.000000  0.000409
                                 0.000346  0.000000 -0.000012 -0.000010  0.000000 -0.000082 -0.000069  0.000000

  10.1   0    -4.6743  -71.9650 -0.000000 -0.000000 -0.000000 -0.000000 -0.000000 -0.000000 -0.000000 -0.000000 -0.000000 -0.000000
                                -0.000000 -0.000000 -0.000000 -0.000000 -0.000000 -0.000000  0.000000 -0.000000  0.000000 -0.000000
                                 0.000000 -0.000000  0.000000 -0.000000  0.000000 -0.000000  0.000000  0.000000  0.000000 -0.000000
                                 0.000000 -0.000000  0.000000 -0.000000  0.000028 -0.000000  0.000203 -0.000000  0.001104 -0.000000
                                 0.004685 -0.000001  0.015725 -0.000002  0.040343 -0.000003  0.067471 -0.000003  0.055433  0.000003
                                -0.066011  0.000010 -0.197061  0.000010 -0.201433 -0.000007  0.134914 -0.000023  0.469934 -0.000013
                                 0.257068 -0.000014  0.276075 -0.000000  0.009498 -0.000000  0.001673  0.000000 -0.000553 -0.000000
                                 0.000000 -0.000293 -0.000000  0.000000 -0.000907 -0.000000  0.000000 -0.000158

  11.1   0    -4.6743  -71.9650 -0.000000 -0.000000 -0.000000 -0.000000 -0.000000 -0.000000 -0.000000 -0.000000 -0.000000 -0.000000
                                -0.000000 -0.000000 -0.000000 -0.000000 -0.000000  0.000000  0.000000  0.000000  0.000000 -0.000000
                                -0.000000 -0.000000  0.000000  0.000000  0.000000  0.000000 -0.000000 -0.000000  0.000000 -0.000000
                                 0.000000 -0.000000  0.000000  0.000028  0.000000  0.000203  0.000000  0.001104  0.000000  0.004685
                                 0.000000  0.015725  0.000001  0.040343  0.000002  0.067471  0.000003  0.055433  0.000003 -0.066011
                                -0.000003 -0.197061 -0.000010 -0.201433 -0.000010  0.134914  0.000007  0.469934  0.000023  0.257068
                                 0.000013  0.276075  0.000014  0.009498  0.000000  0.001673  0.000000 -0.000553 -0.000000  0.000189
                                -0.000224 -0.000000  0.000585 -0.000693 -0.000000  0.000102 -0.000121 -0.000000

                                   1 2px     1 2px     1 2px     1 2px     1 2px     1 2px     1 2px     1 2px     1 2px     1 2px  
                                   1 2px     1 2px     1 2px     1 2px     1 2px     1 2px     1 2px     1 2px     1 2px     1 2px  
                                   1 2px     1 2px     1 2px     1 2px     1 2px     1 2px     1 4f1+    1 4f3+    1 4f1+    1 4f3+ 
                                   1 4f1+    1 4f3+    1 4f1+    1 4f3+    1 4f1+    1 4f3+    1 4f1+    1 4f3+    1 4f1+    1 4f3+ 
                                   1 4f1+    1 4f3+    1 4f1+    1 4f3+    1 4f1+    1 4f3+    1 4f1+    1 4f3+    1 4f1+    1 4f3+ 
                                   1 4f1+    1 4f3+    1 4f1+    1 4f3+    1 4f1+    1 4f3+    1 4f1+    1 4f3+    1 4f1+    1 4f3+ 


   1.2   2  -453.1369-1248.6326  0.000024  0.000060  0.000175  0.000451  0.001166  0.002998  0.007814  0.020404  0.051867  0.121216
                                 0.236316  0.341045  0.286422  0.074177  0.058358 -0.003670  0.004724 -0.002124  0.001003 -0.000562
                                 0.000285 -0.000131  0.000050 -0.000020  0.000008 -0.000003  0.000000 -0.000000 -0.000000  0.000000
                                 0.000000 -0.000000 -0.000000  0.000000 -0.000000  0.000000  0.000000 -0.000000  0.000000 -0.000000
                                 0.000000 -0.000000 -0.000000  0.000000 -0.000000  0.000000 -0.000000  0.000000  0.000000 -0.000000
                                -0.000000  0.000000  0.000000 -0.000000 -0.000000  0.000000  0.000000 -0.000000 -0.000000  0.000000

   2.2   2  -109.0666 -450.4017 -0.000012 -0.000031 -0.000090 -0.000232 -0.000603 -0.001555 -0.004091 -0.010768 -0.027990 -0.067110
                                -0.137701 -0.204243 -0.146073  0.123836  0.095277  0.490418  0.369745  0.071682  0.006991 -0.001213
                                 0.000790 -0.000390  0.000150 -0.000061  0.000026 -0.000008 -0.000000  0.000000  0.000000 -0.000000
                                -0.000000  0.000000  0.000000 -0.000000 -0.000000  0.000000 -0.000002  0.000002  0.000002 -0.000002
                                 0.000002 -0.000003 -0.000000  0.000000 -0.000001  0.000001 -0.000001  0.000001  0.000000 -0.000000
                                -0.000000  0.000000  0.000000 -0.000000 -0.000000  0.000000  0.000000 -0.000000 -0.000000  0.000000

   3.2   2   -26.7767 -196.8198  0.000006  0.000015  0.000045  0.000115  0.000299  0.000771  0.002032  0.005359  0.014006  0.033784
                                 0.070237  0.104958  0.069947 -0.098018 -0.077713 -0.401338 -0.233253  0.416041  0.611441  0.217870
                                 0.011379  0.001251 -0.000409  0.000166 -0.000070  0.000022 -0.000000  0.000000  0.000000 -0.000000
                                -0.000000  0.000000  0.000000 -0.000000  0.000000 -0.000000  0.000005 -0.000006 -0.000002  0.000003
                                 0.000001 -0.000001 -0.000014  0.000018 -0.000032  0.000041  0.000007 -0.000009 -0.000002  0.000003
                                 0.000004 -0.000005 -0.000002  0.000003  0.000001 -0.000001 -0.000001  0.000001  0.000000 -0.000000

   4.2   2    -8.9698 -149.3150  0.000000  0.000000  0.000000  0.000000  0.000000  0.000000  0.000001  0.000003  0.000008  0.000019
                                 0.000040  0.000061  0.000039 -0.000060 -0.000053 -0.000253 -0.000130  0.000360  0.000608  0.000051
                                -0.001158 -0.000152  0.000125 -0.000019  0.000008 -0.000002  0.000133 -0.000172  0.001231 -0.001589
                                 0.000008 -0.000011  0.006964 -0.008991  0.026247 -0.033884  0.070742 -0.091327  0.138257 -0.178490
                                 0.192274 -0.248225  0.197389 -0.254829  0.138444 -0.178731  0.047700 -0.061580 -0.005819  0.007512
                                 0.005541 -0.007153 -0.003407  0.004398  0.001579 -0.002039 -0.000920  0.001188  0.000433 -0.000559

   5.2   2    -8.9672 -149.3193  0.000000  0.000000  0.000000  0.000000  0.000000  0.000000  0.000000  0.000000  0.000000  0.000000
                                 0.000000  0.000000  0.000000 -0.000000 -0.000000 -0.000000 -0.000000  0.000000  0.000000 -0.000000
                                -0.000000  0.000000  0.000000  0.000000  0.000000 -0.000000  0.000172  0.000134  0.001589  0.001231
                                 0.000011  0.000008  0.008991  0.006964  0.033886  0.026248  0.091330  0.070744  0.178493  0.138260
                                 0.248227  0.192275  0.254882  0.197430  0.178752  0.138460  0.061457  0.047604 -0.007580 -0.005871
                                 0.007108  0.005506 -0.004385 -0.003396  0.002032  0.001574 -0.001184 -0.000917  0.000557  0.000432

   6.2   2    -7.6766  -89.3753 -0.000003 -0.000007 -0.000019 -0.000050 -0.000129 -0.000333 -0.000880 -0.002320 -0.006072 -0.014660
                                -0.030592 -0.045729 -0.030129  0.047271  0.036070  0.196082  0.097695 -0.276339 -0.468824 -0.028095
                                 0.707434  0.461526  0.014749  0.000920 -0.000578  0.000192  0.000000 -0.000000  0.000001 -0.000002
                                 0.000000 -0.000001  0.000007 -0.000009  0.000029 -0.000038  0.000073 -0.000094  0.000156 -0.000201
                                 0.000197 -0.000254  0.000218 -0.000281  0.000116 -0.000149 -0.000263  0.000340  0.000328 -0.000423
                                 0.000152 -0.000196  0.000005 -0.000006 -0.000001  0.000001  0.000001 -0.000002 -0.000001  0.000001

   7.2   0    -2.6803  -49.0471  0.000000  0.000000  0.000000  0.000000  0.000001  0.000003  0.000007  0.000018  0.000049  0.000114
                                 0.000247  0.000347  0.000300 -0.000605  0.000136 -0.002004 -0.000392  0.001861  0.004884 -0.001261
                                -0.006043 -0.012610  0.020805  0.010433 -0.001781  0.000474  0.000040 -0.000051  0.000324 -0.000419
[...]
                                 0.000000  0.000000  0.000000  0.000000

   2.7  2.00000   -18.330001    -0.000075 -0.000534 -0.002921 -0.012300 -0.041438 -0.105259 -0.178220 -0.151922  0.113538  0.425787
                                 0.430120  0.167206  0.012954  0.001629 -0.000898  0.000298 -0.000083  0.000025  0.000000  0.000000
                                 0.000000  0.000000  0.000000  0.000000

                                   1 4f2-    1 4f2-    1 4f2-    1 4f2-    1 4f2-    1 4f2-    1 4f2-    1 4f2-    1 4f2-    1 4f2- 
                                   1 4f2-    1 4f2-    1 4f2-    1 4f2-    1 4f2-    1 4f2-    1 4f2- 

   1.8  2.00000    -8.970511     0.000218  0.002010  0.000014  0.011376  0.042877  0.115562  0.225849  0.314057  0.322379  0.225922
                                 0.077647 -0.009456  0.009068 -0.005521  0.002571 -0.001497  0.000705

   2.8  0.14286    -2.687573    -0.000070 -0.000571 -0.000159 -0.003294 -0.013543 -0.035027 -0.070549 -0.086869 -0.085294  0.037485
                                 0.202062  0.354284  0.457465  0.062144  0.036158 -0.017539  0.008239

 Total charge:   9.000000000000
 
 *** IN SYMMETRY 1 ORBITAL  4 SYMMETRY CONTAMINATION OF 0.485D-01 HAS BEEN REMOVED
 *** IN SYMMETRY 1 ORBITAL  5 SYMMETRY CONTAMINATION OF 0.485D-01 HAS BEEN REMOVED
 *** IN SYMMETRY 1 ORBITAL  7 SYMMETRY CONTAMINATION OF 0.538D-01 HAS BEEN REMOVED
 *** IN SYMMETRY 1 ORBITAL  8 SYMMETRY CONTAMINATION OF 0.538D-01 HAS BEEN REMOVED

 EXTRA SYMMETRY OF MOS IN SYMMETRY 1:   1 1 1 2 3 1 2 3 1 2   3 1 3 2 1 6 4 5 2 3   1 3 2 1 1 2 3 1 1 5   6 4 2 3 4 6 5 1 2 3
                                        1 2 3 3 2 1 3 2 1 3   2 1 1 3 2 1 3 2 1 3   2 1 2 3 1 1 2 3 1 1   1 1 1 1 1 1 1 1
 EXTRA SYMMETRY OF MOS IN SYMMETRY 2:   1 1 1 2 3 1 2 3 1 1   2 3 1 3 2 2 3 1 2 3   1 3 2 3 2 1 2 3 2 3   1 2 3 1 2 3 1 2 3 1
                                        2 3 1 3 2 1 2 3 1 2   3 1 1 1 1 1 1 1 1 1
 *** IN SYMMETRY 3 ORBITAL  4 SYMMETRY CONTAMINATION OF 0.371D-02 HAS BEEN REMOVED
 *** IN SYMMETRY 3 ORBITAL  5 SYMMETRY CONTAMINATION OF 0.371D-02 HAS BEEN REMOVED
 EXTRA SYMMETRY OF MOS IN SYMMETRY 3:   1 1 1 3 2 1 2 3 1 1   2 3 1 2 3 3 2 1 3 2   1 3 2 3 2 1 2 3 2 3   1 3 2 1 3 2 1 2 3 1
                                        2 3 1 2 3 1 2 3 1 2   3 1 1 1 1 1 1 1 1 1
 EXTRA SYMMETRY OF MOS IN SYMMETRY 4:   1 1 1 1 2 3 1 1 1 2   3 1 2 3 1 1 1 1 1 1   1 1 1 1
 EXTRA SYMMETRY OF MOS IN SYMMETRY 5:   1 1 1 3 2 1 3 2 1 1   3 2 1 2 3 2 3 1 3 2   1 2 3 3 2 1 3 2 2 3   1 2 3 1 3 2 1 3 2 1
                                        3 2 1 3 2 1 3 2 1 3   2 1 1 1 1 1 1 1 1 1
 EXTRA SYMMETRY OF MOS IN SYMMETRY 6:   1 1 1 1 2 3 1 1 1 3   2 1 3 2 1 1 1 1 1 1   1 1 1 1
 EXTRA SYMMETRY OF MOS IN SYMMETRY 7:   1 1 1 1 2 3 1 1 1 2   3 1 3 2 1 1 1 1 1 1   1 1 1 1

 Natural orbital dump (state averaged) at molpro section  5202.2    (Orbital set 2)


 CI vector for state symmetry 1
 ==============================

 0a 00 00 0          0.9985934   0.0530206
 a0 00 00 0         -0.0530206   0.9985934

 TOTAL ENERGIES                    -18390.70372166-18390.70372166

 CI vector for state symmetry 2
 ==============================

 00 0a 00 0          0.9996529  -0.0263462
 00 a0 00 0          0.0263462   0.9996529

 TOTAL ENERGIES                    -18390.70372166-18390.70372166

 CI vector for state symmetry 3
 ==============================

 00 00 0a 0          0.9997401  -0.0227957
 00 00 a0 0          0.0227957   0.9997401

 TOTAL ENERGIES                    -18390.70372166-18390.70372166

 CI vector for state symmetry 4
 ==============================

 00 00 00 a          1.0000000

 TOTAL ENERGIES                    -18390.70372166



 **********************************************************************************************************************************
 DATASETS  * FILE   NREC   LENGTH (MB)   RECORD NAMES
              1      23      182.05       500      610      700      900      950      970     1000      129      960     1700   
                                          VAR    BASINP    GEOM    SYMINP    ZMAT    AOBASIS   BASIS     P2S    ABASIS    OPER   
                                         1101     1401     1411     1412     1650     1100     1400     1410     1200     1210   
                                          SR      EKINR    POTR     PVPR    MOLCAS      S      EKIN      POT      H0       H01  
                                         1080     1600     1380   
                                         AOSYM     SMH     JKOP   

              2       6        9.11       200      700     1000      520     4202     5202   
                                        OPTIONS   GEOM     BASIS   MCVARS     RHF     MCSCF   

 PROGRAMS   *        TOTAL     MULTI       POP       RHF       RHF       INT
 CPU TIMES  *        87.57      9.85      0.00      1.43      1.36     74.50
 REAL TIME  *       101.18 SEC
 DISK USED  *         4.09 GB      
 SF USED    *       626.47 MB      
 GA USED    *         0.00 MB       (max)       0.00 MB       (current)
 **********************************************************************************************************************************


 PROGRAM * RHF-SCF (OPEN SHELL)       Authors: W. Meyer, H.-J. Werner


 NUMBER OF ELECTRONS:      35+   34-    SPACE SYMMETRY=8    SPIN SYMMETRY: Doublet 
 CONVERGENCE THRESHOLDS:    1.00E-05 (Density)    1.38E-07 (Energy)
 MAX. NUMBER OF ITERATIONS:        0
 INTERPOLATION TYPE:            DIIS
 INTERPOLATION STEPS:              2 (START)      1 (STEP)
 LEVEL SHIFTS:                 -0.60 (CLOSED) -0.30 (OPEN) 

 Number of closed-shell orbitals:   34 (   9   6   6   2   6   2   2   1 )
 Number of open-shell orbitals:      1 (   0   0   0   0   0   0   0   1 )


 Molecular orbitals read from record     5202.2  Type=MCSCF/NATURAL (state averaged)

 Molecular orbital dump at record        2123.2

 ITERATION    DDIFF          GRAD             ENERGY        2-EL.EN.            DIPOLE MOMENTS         DIIS   ORB.
    1      0.000D+00      0.000D+00    -18390.70372166  12882.959286    0.00000    0.00000    0.00000    0    start

 Final alpha occupancy:   9   6   6   2   6   2   2   2
 Final beta  occupancy:   9   6   6   2   6   2   2   1

 !RHF STATE 1.8 Energy               -18390.7037216628    
 Nuclear energy                         0.00000000
 One-electron energy               -24832.18336470
 Two-electron energy                 6441.47964304
 Virial quotient                       -0.67596274
 !RHF STATE 1.8 Dipole moment           0.00000000     0.00000000     0.00000000
 Dipole moment /Debye                   0.00000000     0.00000000     0.00000000

 Orbital energies:

         1.1          2.1          3.1          4.1          5.1          6.1          7.1          8.1          9.1         10.1
  -2903.349494  -520.242941  -129.008929   -86.565301   -86.565301   -33.459414   -18.330001   -18.330001    -9.737300    -4.677981

        11.1
     -4.677981

         1.2          2.2          3.2          4.2          5.2          6.2          7.2          8.2
   -453.136937  -109.066643   -26.776680    -8.970511    -8.970511    -7.676584    -2.687573    -2.687573

         1.3          2.3          3.3          4.3          5.3          6.3          7.3          8.3
   -453.136937  -109.066643   -26.776680    -8.970511    -8.970511    -7.676584    -2.687573    -2.687573

         1.4          2.4          3.4          4.4
    -86.565301   -18.330001    -4.677981    -2.406340

         1.5          2.5          3.5          4.5          5.5          6.5          7.5          8.5
   -453.136937  -109.066643   -26.776680    -8.970511    -8.970511    -7.676584    -2.687573    -2.687573

         1.6          2.6          3.6          4.6
    -86.565301   -18.330001    -4.677981    -2.406340

         1.7          2.7          3.7          4.7
    -86.565301   -18.330001    -4.677981    -2.406340

         1.8          2.8          3.8          4.8
     -8.970511    -2.687573    -1.670683    -1.147971

 HOMO      2.8    -2.687573 =     -73.1326eV
 LUMO     10.1    -4.677981 =    -127.2943eV
 LUMO-HOMO        -1.990408 =     -54.1618eV


 **********************************************************************************************************************************
 DATASETS  * FILE   NREC   LENGTH (MB)   RECORD NAMES
              1      23      182.05       500      610      700      900      950      970     1000      129      960     1700   
                                          VAR    BASINP    GEOM    SYMINP    ZMAT    AOBASIS   BASIS     P2S    ABASIS    OPER   
                                         1101     1401     1411     1412     1650     1100     1400     1410     1200     1210   
                                          SR      EKINR    POTR     PVPR    MOLCAS      S      EKIN      POT      H0       H01  
                                         1080     1600     1380   
                                         AOSYM     SMH     JKOP   

              2       7       12.77       200      700     1000      520     4202     5202     2123   
                                        OPTIONS   GEOM     BASIS   MCVARS     RHF     MCSCF     RHF  

 PROGRAMS   *        TOTAL       RHF     MULTI       POP       RHF       RHF       INT
 CPU TIMES  *        87.67      0.10      9.85      0.00      1.43      1.36     74.50
 REAL TIME  *       101.38 SEC
 DISK USED  *         4.09 GB      
 SF USED    *       626.47 MB      
 GA USED    *         0.00 MB       (max)       0.00 MB       (current)
 **********************************************************************************************************************************
 SETTING SCF(16)        =    -18390.70372166  AU                              
 SETTING _CC_NORM_MAX   =         2.00000000                                  


 PROGRAM * CCSD (Restricted open-shell coupled cluster)     Authors: C. Hampel, H.-J. Werner, 1991, M. Deegan, P.J. Knowles, 1992


 Convergence thresholds:  THRVAR = 1.00D-08  THRDEN = 1.38D-06

 CCSD(T)     terms to be evaluated (factor= 1.000)


 Number of closed-shell orbitals:  34 (   9   6   6   2   6   2   2   1 )
 Number of active  orbitals:        1 (   0   0   0   0   0   0   0   1 )
 Number of external orbitals:     312 (  69  54  54  22  54  22  22  15 )

 Memory could be reduced to 251.99 Mwords without degradation in triples

 Number of N-1 electron functions:              69
 Number of N-2 electron functions:            2346
 Number of singly external CSFs:              3498
 Number of doubly external CSFs:          22117859
 Total number of CSFs:                    22121357

 Molecular orbitals read from record     2123.2  Type=RHF/CANONICAL (state 1.8)

 Integral transformation finished. Total CPU:   5.34 sec, npass=  1  Memory used:  56.19 MW

 Starting RMP2 calculation

 Wavefunction is spin-projected

 ITER.      SQ.NORM     CORR.ENERGY   TOTAL ENERGY   ENERGY CHANGE        DEN1      VAR(S)    VAR(P)  DIIS     TIME
   1      1.09472768    -2.93740673-18393.64112839    -2.93740673    -0.00080038  0.28D-07  0.37D-03  1  1     7.75
   2      1.09557148    -2.93824792-18393.64196958    -0.00084119    -0.00000392  0.10D-10  0.23D-05  2  2     9.82
   3      1.09563899    -2.93829770-18393.64201937    -0.00004978    -0.00000000  0.98D-13  0.38D-09  3  3    12.36
   4      1.09563953    -2.93829791-18393.64201958    -0.00000021    -0.00000000  0.15D-16  0.21D-12  4  4    16.45

 Norm of t1 vector:      0.00674667      S-energy:    -0.00032163      T1 diagnostic:  0.00022926
 Norm of t2 vector:      0.30918281      P-energy:    -2.93797628
                                         Alpha-Beta:  -1.89815041
                                         Alpha-Alpha: -0.53182325
                                         Beta-Beta:   -0.50800262

 Spin contamination <S**2-Sz**2-Sz>     0.00000000
  Reference energy                   -18390.7037216628    
  RHF-RMP2 correlation energy          -2.938297913332
 !RHF-RMP2 energy                    -18393.6420195761    
 (NB above energy spin projected)

 Starting RCCSD calculation

 ITER.      SQ.NORM     CORR.ENERGY   TOTAL ENERGY   ENERGY CHANGE        DEN1      VAR(S)    VAR(P)  DIIS     TIME
   1      1.09236040    -2.68665074-18393.39037241    -2.68665074    -0.07877603  0.13D-02  0.54D-02  0  0    45.39
   2      1.11309573    -2.75892126-18393.46264292    -0.07227051    -0.00827550  0.15D-03  0.20D-02  0  0    72.71
   3      1.12517843    -2.74663906-18393.45036073     0.01228219    -0.00200081  0.41D-04  0.86D-03  1  1   100.35
   4      1.13341129    -2.75277419-18393.45649585    -0.00613512    -0.00095226  0.15D-04  0.53D-03  2  2   128.83
   5      1.15716368    -2.75843463-18393.46215629    -0.00566044    -0.00012373  0.22D-06  0.70D-04  3  3   157.94
   6      1.16410195    -2.75971762-18393.46343929    -0.00128300    -0.00003743  0.27D-06  0.21D-04  4  4   191.48
   7      1.16734244    -2.76007414-18393.46379581    -0.00035652    -0.00000161  0.18D-07  0.72D-06  5  5   226.70
   8      1.16822973    -2.76024310-18393.46396476    -0.00016896    -0.00000023  0.27D-08  0.11D-06  6  6   264.00
   9      1.16824605    -2.76024640-18393.46396807    -0.00000330    -0.00000006  0.12D-09  0.35D-07  6  1   315.43
  10      1.16822237    -2.76023960-18393.46396127     0.00000680    -0.00000002  0.10D-10  0.12D-07  6  3   352.60
  11      1.16821584    -2.76023672-18393.46395839     0.00000288    -0.00000000  0.12D-10  0.24D-08  6  5   393.45
  12      1.16822671    -2.76023928-18393.46396094    -0.00000256    -0.00000000  0.53D-11  0.28D-10  6  2   443.69
  13      1.16822583    -2.76023892-18393.46396059     0.00000036    -0.00000000  0.42D-12  0.18D-11  6  4   477.85

 Norm of t1 vector:      0.05234873      S-energy:    -0.00023636      T1 diagnostic:  0.00444162
                                                                       D1 diagnostic:  0.03238909
 Norm of t2 vector:      0.40679901      P-energy:    -2.76000256
                                         Alpha-Beta:  -1.83240879
                                         Alpha-Alpha: -0.47406402
                                         Beta-Beta:   -0.45352976

 Doubles amplitudes (print threshold =  0.500E-01):

         I         J         SYM. A    SYM. B    A         B      T(IJ, AB) [Alpha-Beta]

        35        29         6         7         1         1     -0.12855998
        35        29         7         6         1         1     -0.12855998
        35        21         4         7         1         1      0.12855998
        35        21         7         4         1         1      0.12855998
        35        15         4         6         1         1      0.12855998
        35        15         6         4         1         1      0.12855998

 Spin contamination <S**2-Sz**2-Sz>     0.00000000

 Memory could be reduced to 278.97 Mwords without degradation in triples
 

  Correlated core orbitals:             1.1       2.1       3.1       4.1       5.1       6.1       7.1       8.1       9.1       1.2
                                        2.2       3.2       4.2       5.2       6.2       1.3       2.3       3.3       4.3       5.3
                                        6.3       1.4       2.4       1.5       2.5       3.5       4.5       5.5       6.5       1.6
                                        2.6       1.7       2.7       1.8
  Orbital energies:                 -2903.3495 -520.2430 -129.0109  -86.5649  -86.5649  -33.4615  -18.3312  -18.3312   -9.7446 -453.1370
                                     -109.0689  -26.7787   -8.9698   -8.9708   -7.6874 -453.1370 -109.0689  -26.7787   -8.9708   -8.9698
                                       -7.6874  -86.5697  -18.3330 -453.1370 -109.0689  -26.7787   -8.9683   -8.9723   -7.6874  -86.5697
                                      -18.3330  -86.5697  -18.3330   -9.0020
 
  RCCSD core-core energy               -2.646216169089
  RCCSD core-valence energy            -0.114022753683
  RCCSD valence correlation energy      0.000000000007
 

 RESULTS
 =======

  Reference energy                   -18390.7037216628    
  RCCSD singles energy                 -0.000236358730
  RCCSD pair energy                    -2.760002564034
  RCCSD correlation energy             -2.760238922765
  Triples (T) contribution             -0.037348809652
  Total correlation energy             -2.797587732416
 
  RHF-RCCSD energy                   -18393.4639605856    
  RHF-RCCSD[T] energy                -18393.5025126393    
  RHF-RCCSD-T energy                 -18393.5009617554    
 !RHF-RCCSD(T) energy                -18393.5013093952    

 Program statistics:

 Available memory in ccsd:              1023989750
 Min. memory needed in ccsd:              60687942
 Max. memory used in ccsd:                89469339
 Max. memory used in cckext:              75568985 (13 integral passes)
 Max. memory used in cckint:              56189164 ( 1 integral passes)



 **********************************************************************************************************************************
 DATASETS  * FILE   NREC   LENGTH (MB)   RECORD NAMES
              1      23      182.05       500      610      700      900      950      970     1000      129      960     1700   
                                          VAR    BASINP    GEOM    SYMINP    ZMAT    AOBASIS   BASIS     P2S    ABASIS    OPER   
                                         1101     1401     1411     1412     1650     1100     1400     1410     1200     1210   
                                          SR      EKINR    POTR     PVPR    MOLCAS      S      EKIN      POT      H0       H01  
                                         1080     1600     1380   
                                         AOSYM     SMH     JKOP   

              2       7       12.77       200      700     1000      520     4202     5202     2123   
                                        OPTIONS   GEOM     BASIS   MCVARS     RHF     MCSCF     RHF  

 PROGRAMS   *        TOTAL  RCCSD(T)       RHF     MULTI       POP       RHF       RHF       INT
 CPU TIMES  *      1492.26   1403.80      0.10      9.85      0.00      1.43      1.36     74.50
 REAL TIME  *      1801.57 SEC
 DISK USED  *        36.90 GB      
 SF USED    *         5.70 GB      
 GA USED    *         0.00 MB       (max)       0.00 MB       (current)
 **********************************************************************************************************************************
 SETTING CCSD(16)       =    -18393.50130940  AU                              
 Output type csv         
                                                                                                                                                                                                                                                                

          SCF,CCSD
        0.00000,        0.00000
        0.00000,        0.00000
        0.00000,        0.00000
        0.00000,        0.00000
        0.00000,        0.00000
        0.00000,        0.00000
        0.00000,        0.00000
        0.00000,        0.00000
        0.00000,        0.00000
        0.00000,        0.00000
        0.00000,        0.00000
        0.00000,        0.00000
        0.00000,        0.00000
        0.00000,        0.00000
        0.00000,        0.00000
   -18390.70372,   -18393.50131
                                                  

 RCCSD(T)/USERDEF energy= -18393.501309395218

        RCCSD(T)        RHF-SCF         MULTI           RHF-SCF         RHF-SCF 
 -18393.50130940 -18390.70372166 -18390.70372166 -18390.70380209 -18413.13496408
 **********************************************************************************************************************************
 Molpro calculation terminated
 Variable memory released
