/global/cscratch1/sd/bkincaid/cutoffs/W/250-610/runs/scf_600

     Program PWSCF v.6.4.1 starts on 17Jan2022 at 19:51:55 

     This program is part of the open-source Quantum ESPRESSO suite
     for quantum simulation of materials; please cite
         "P. Giannozzi et al., J. Phys.:Condens. Matter 21 395502 (2009);
         "P. Giannozzi et al., J. Phys.:Condens. Matter 29 465901 (2017);
          URL http://www.quantum-espresso.org", 
     in publications or presentations arising from this work. More details at
     http://www.quantum-espresso.org/quote

     Parallel version (MPI & OpenMP), running on      32 processor cores
     Number of MPI processes:                32
     Threads/MPI process:                     1

     MPI processes distributed on     1 nodes
     R & G space division:  proc/nbgrp/npool/nimage =      32
     Reading input from scf_600.in

     Current dimensions of program PWSCF are:
     Max number of different atomic species (ntypx) = 10
     Max number of k-points (npk) =  40000
     Max angular momentum in pseudopotentials (lmaxx) =  3

     IMPORTANT: XC functional enforced from input :
     Exchange-correlation      = PBE ( 1  4  3  4 0 0)
     Any further DFT definition will be discarded
     Please, verify this is what you really want


     gamma-point specific algorithms are used

     Subspace diagonalization in iterative solution of the eigenvalue problem:
     one sub-group per band group will be used
     scalapack distributed-memory algorithm (size of sub-group:  4*  4 procs)

     Message from routine setup:
     DEPRECATED: symmetry with ibrav=0, use correct ibrav instead
 
     Parallelization info
     --------------------
     sticks:   dense  smooth     PW     G-vecs:    dense   smooth      PW
     Min        3067    3067    766               723496   723496   90426
     Max        3070    3070    768               723506   723506   90440
     Sum       98189   98189  24553             23152021 23152021 2893849
 


     bravais-lattice index     =            0
     lattice parameter (alat)  =      22.6767  a.u.
     unit-cell volume          =   11661.1222 (a.u.)^3
     number of atoms/cell      =            1
     number of atomic types    =            1
     number of electrons       =        14.00 (up:   9.00, down:   5.00)
     number of Kohn-Sham states=           12
     kinetic-energy cutoff     =     600.0000  Ry
     charge density cutoff     =    2400.0000  Ry
     convergence threshold     =      1.0E-06
     mixing beta               =       0.7000
     number of iterations used =            8  plain     mixing
     Exchange-correlation      = PBE ( 1  4  3  4 0 0)

     celldm(1)=  22.676714  celldm(2)=   0.000000  celldm(3)=   0.000000
     celldm(4)=   0.000000  celldm(5)=   0.000000  celldm(6)=   0.000000

     crystal axes: (cart. coord. in units of alat)
               a(1) = (   1.000000   0.000000   0.000000 )  
               a(2) = (   0.000000   1.000000   0.000000 )  
               a(3) = (   0.000000   0.000000   1.000000 )  

     reciprocal axes: (cart. coord. in units 2 pi/alat)
               b(1) = (  1.000000  0.000000  0.000000 )  
               b(2) = (  0.000000  1.000000  0.000000 )  
               b(3) = (  0.000000  0.000000  1.000000 )  


     PseudoPot. # 1 for W  read from file:
     ./W.upf
     MD5 check sum: 4ed05a8c0c5f577ff01fd4795b4ecf91
     Pseudo is Norm-conserving, Zval = 14.0
     Generated by new atomic code, or converted to UPF format
     Using radial grid of 1187 points,  3 beta functions with: 
                l(1) =   0
                l(2) =   2
                l(3) =   3

     atomic species   valence    mass     pseudopotential
        W             14.00   183.85000     W ( 1.00)

     Starting magnetic structure 
     atomic species   magnetization
        W            0.500

     48 Sym. Ops., with inversion, found


                                    s                        frac. trans.

      isym =  1     identity                                     

 cryst.   s( 1) = (     1          0          0      )
                  (     0          1          0      )
                  (     0          0          1      )

 cart.    s( 1) = (  1.0000000  0.0000000  0.0000000 )
                  (  0.0000000  1.0000000  0.0000000 )
                  (  0.0000000  0.0000000  1.0000000 )


      isym =  2     180 deg rotation - cart. axis [0,0,1]        

 cryst.   s( 2) = (    -1          0          0      )
                  (     0         -1          0      )
                  (     0          0          1      )

 cart.    s( 2) = ( -1.0000000  0.0000000  0.0000000 )
                  (  0.0000000 -1.0000000  0.0000000 )
                  (  0.0000000  0.0000000  1.0000000 )


      isym =  3     180 deg rotation - cart. axis [0,1,0]        

 cryst.   s( 3) = (    -1          0          0      )
                  (     0          1          0      )
                  (     0          0         -1      )

 cart.    s( 3) = ( -1.0000000  0.0000000  0.0000000 )
                  (  0.0000000  1.0000000  0.0000000 )
                  (  0.0000000  0.0000000 -1.0000000 )


      isym =  4     180 deg rotation - cart. axis [1,0,0]        

 cryst.   s( 4) = (     1          0          0      )
                  (     0         -1          0      )
                  (     0          0         -1      )

 cart.    s( 4) = (  1.0000000  0.0000000  0.0000000 )
                  (  0.0000000 -1.0000000  0.0000000 )
                  (  0.0000000  0.0000000 -1.0000000 )


      isym =  5     180 deg rotation - cart. axis [1,1,0]        

 cryst.   s( 5) = (     0          1          0      )
                  (     1          0          0      )
                  (     0          0         -1      )

 cart.    s( 5) = (  0.0000000  1.0000000  0.0000000 )
                  (  1.0000000  0.0000000  0.0000000 )
                  (  0.0000000  0.0000000 -1.0000000 )


      isym =  6     180 deg rotation - cart. axis [1,-1,0]       

 cryst.   s( 6) = (     0         -1          0      )
                  (    -1          0          0      )
                  (     0          0         -1      )

 cart.    s( 6) = (  0.0000000 -1.0000000  0.0000000 )
                  ( -1.0000000  0.0000000  0.0000000 )
                  (  0.0000000  0.0000000 -1.0000000 )


      isym =  7      90 deg rotation - cart. axis [0,0,-1]       

 cryst.   s( 7) = (     0         -1          0      )
                  (     1          0          0      )
                  (     0          0          1      )

 cart.    s( 7) = (  0.0000000  1.0000000  0.0000000 )
                  ( -1.0000000  0.0000000  0.0000000 )
                  (  0.0000000  0.0000000  1.0000000 )


      isym =  8      90 deg rotation - cart. axis [0,0,1]        

 cryst.   s( 8) = (     0          1          0      )
                  (    -1          0          0      )
                  (     0          0          1      )

 cart.    s( 8) = (  0.0000000 -1.0000000  0.0000000 )
                  (  1.0000000  0.0000000  0.0000000 )
                  (  0.0000000  0.0000000  1.0000000 )


      isym =  9     180 deg rotation - cart. axis [1,0,1]        

 cryst.   s( 9) = (     0          0          1      )
                  (     0         -1          0      )
                  (     1          0          0      )

 cart.    s( 9) = (  0.0000000  0.0000000  1.0000000 )
                  (  0.0000000 -1.0000000  0.0000000 )
                  (  1.0000000  0.0000000  0.0000000 )


      isym = 10     180 deg rotation - cart. axis [-1,0,1]       

 cryst.   s(10) = (     0          0         -1      )
                  (     0         -1          0      )
                  (    -1          0          0      )

 cart.    s(10) = (  0.0000000  0.0000000 -1.0000000 )
                  (  0.0000000 -1.0000000  0.0000000 )
                  ( -1.0000000  0.0000000  0.0000000 )


      isym = 11      90 deg rotation - cart. axis [0,1,0]        

 cryst.   s(11) = (     0          0         -1      )
                  (     0          1          0      )
                  (     1          0          0      )

 cart.    s(11) = (  0.0000000  0.0000000  1.0000000 )
                  (  0.0000000  1.0000000  0.0000000 )
                  ( -1.0000000  0.0000000  0.0000000 )


      isym = 12      90 deg rotation - cart. axis [0,-1,0]       

 cryst.   s(12) = (     0          0          1      )
                  (     0          1          0      )
                  (    -1          0          0      )

 cart.    s(12) = (  0.0000000  0.0000000 -1.0000000 )
                  (  0.0000000  1.0000000  0.0000000 )
                  (  1.0000000  0.0000000  0.0000000 )


      isym = 13     180 deg rotation - cart. axis [0,1,1]        

 cryst.   s(13) = (    -1          0          0      )
                  (     0          0          1      )
                  (     0          1          0      )

 cart.    s(13) = ( -1.0000000  0.0000000  0.0000000 )
                  (  0.0000000  0.0000000  1.0000000 )
                  (  0.0000000  1.0000000  0.0000000 )


      isym = 14     180 deg rotation - cart. axis [0,1,-1]       

 cryst.   s(14) = (    -1          0          0      )
                  (     0          0         -1      )
                  (     0         -1          0      )

 cart.    s(14) = ( -1.0000000  0.0000000  0.0000000 )
                  (  0.0000000  0.0000000 -1.0000000 )
                  (  0.0000000 -1.0000000  0.0000000 )


      isym = 15      90 deg rotation - cart. axis [-1,0,0]       

 cryst.   s(15) = (     1          0          0      )
                  (     0          0         -1      )
                  (     0          1          0      )

 cart.    s(15) = (  1.0000000  0.0000000  0.0000000 )
                  (  0.0000000  0.0000000  1.0000000 )
                  (  0.0000000 -1.0000000  0.0000000 )


      isym = 16      90 deg rotation - cart. axis [1,0,0]        

 cryst.   s(16) = (     1          0          0      )
                  (     0          0          1      )
                  (     0         -1          0      )

 cart.    s(16) = (  1.0000000  0.0000000  0.0000000 )
                  (  0.0000000  0.0000000 -1.0000000 )
                  (  0.0000000  1.0000000  0.0000000 )


      isym = 17     120 deg rotation - cart. axis [-1,-1,-1]     

 cryst.   s(17) = (     0          0          1      )
                  (     1          0          0      )
                  (     0          1          0      )

 cart.    s(17) = (  0.0000000  1.0000000  0.0000000 )
                  (  0.0000000  0.0000000  1.0000000 )
                  (  1.0000000  0.0000000  0.0000000 )


      isym = 18     120 deg rotation - cart. axis [-1,1,1]       

 cryst.   s(18) = (     0          0         -1      )
                  (    -1          0          0      )
                  (     0          1          0      )

 cart.    s(18) = (  0.0000000 -1.0000000  0.0000000 )
                  (  0.0000000  0.0000000  1.0000000 )
                  ( -1.0000000  0.0000000  0.0000000 )


      isym = 19     120 deg rotation - cart. axis [1,1,-1]       

 cryst.   s(19) = (     0          0         -1      )
                  (     1          0          0      )
                  (     0         -1          0      )

 cart.    s(19) = (  0.0000000  1.0000000  0.0000000 )
                  (  0.0000000  0.0000000 -1.0000000 )
                  ( -1.0000000  0.0000000  0.0000000 )


      isym = 20     120 deg rotation - cart. axis [1,-1,1]       

 cryst.   s(20) = (     0          0          1      )
                  (    -1          0          0      )
                  (     0         -1          0      )

 cart.    s(20) = (  0.0000000 -1.0000000  0.0000000 )
                  (  0.0000000  0.0000000 -1.0000000 )
                  (  1.0000000  0.0000000  0.0000000 )


      isym = 21     120 deg rotation - cart. axis [1,1,1]        

 cryst.   s(21) = (     0          1          0      )
                  (     0          0          1      )
                  (     1          0          0      )

 cart.    s(21) = (  0.0000000  0.0000000  1.0000000 )
                  (  1.0000000  0.0000000  0.0000000 )
                  (  0.0000000  1.0000000  0.0000000 )


      isym = 22     120 deg rotation - cart. axis [-1,1,-1]      

 cryst.   s(22) = (     0         -1          0      )
                  (     0          0         -1      )
                  (     1          0          0      )

 cart.    s(22) = (  0.0000000  0.0000000  1.0000000 )
                  ( -1.0000000  0.0000000  0.0000000 )
                  (  0.0000000 -1.0000000  0.0000000 )


      isym = 23     120 deg rotation - cart. axis [1,-1,-1]      

 cryst.   s(23) = (     0         -1          0      )
                  (     0          0          1      )
                  (    -1          0          0      )

 cart.    s(23) = (  0.0000000  0.0000000 -1.0000000 )
                  ( -1.0000000  0.0000000  0.0000000 )
                  (  0.0000000  1.0000000  0.0000000 )


      isym = 24     120 deg rotation - cart. axis [-1,-1,1]      

 cryst.   s(24) = (     0          1          0      )
                  (     0          0         -1      )
                  (    -1          0          0      )

 cart.    s(24) = (  0.0000000  0.0000000 -1.0000000 )
                  (  1.0000000  0.0000000  0.0000000 )
                  (  0.0000000 -1.0000000  0.0000000 )


      isym = 25     inversion                                    

 cryst.   s(25) = (    -1          0          0      )
                  (     0         -1          0      )
                  (     0          0         -1      )

 cart.    s(25) = ( -1.0000000  0.0000000  0.0000000 )
                  (  0.0000000 -1.0000000  0.0000000 )
                  (  0.0000000  0.0000000 -1.0000000 )


      isym = 26     inv. 180 deg rotation - cart. axis [0,0,1]   

 cryst.   s(26) = (     1          0          0      )
                  (     0          1          0      )
                  (     0          0         -1      )

 cart.    s(26) = (  1.0000000  0.0000000  0.0000000 )
                  (  0.0000000  1.0000000  0.0000000 )
                  (  0.0000000  0.0000000 -1.0000000 )


      isym = 27     inv. 180 deg rotation - cart. axis [0,1,0]   

 cryst.   s(27) = (     1          0          0      )
                  (     0         -1          0      )
                  (     0          0          1      )

 cart.    s(27) = (  1.0000000  0.0000000  0.0000000 )
                  (  0.0000000 -1.0000000  0.0000000 )
                  (  0.0000000  0.0000000  1.0000000 )


      isym = 28     inv. 180 deg rotation - cart. axis [1,0,0]   

 cryst.   s(28) = (    -1          0          0      )
                  (     0          1          0      )
                  (     0          0          1      )

 cart.    s(28) = ( -1.0000000  0.0000000  0.0000000 )
                  (  0.0000000  1.0000000  0.0000000 )
                  (  0.0000000  0.0000000  1.0000000 )


      isym = 29     inv. 180 deg rotation - cart. axis [1,1,0]   

 cryst.   s(29) = (     0         -1          0      )
                  (    -1          0          0      )
                  (     0          0          1      )

 cart.    s(29) = (  0.0000000 -1.0000000  0.0000000 )
                  ( -1.0000000  0.0000000  0.0000000 )
                  (  0.0000000  0.0000000  1.0000000 )


      isym = 30     inv. 180 deg rotation - cart. axis [1,-1,0]  

 cryst.   s(30) = (     0          1          0      )
                  (     1          0          0      )
                  (     0          0          1      )

 cart.    s(30) = (  0.0000000  1.0000000  0.0000000 )
                  (  1.0000000  0.0000000  0.0000000 )
                  (  0.0000000  0.0000000  1.0000000 )


      isym = 31     inv.  90 deg rotation - cart. axis [0,0,-1]  

 cryst.   s(31) = (     0          1          0      )
                  (    -1          0          0      )
                  (     0          0         -1      )

 cart.    s(31) = (  0.0000000 -1.0000000  0.0000000 )
                  (  1.0000000  0.0000000  0.0000000 )
                  (  0.0000000  0.0000000 -1.0000000 )


      isym = 32     inv.  90 deg rotation - cart. axis [0,0,1]   

 cryst.   s(32) = (     0         -1          0      )
                  (     1          0          0      )
                  (     0          0         -1      )

 cart.    s(32) = (  0.0000000  1.0000000  0.0000000 )
                  ( -1.0000000  0.0000000  0.0000000 )
                  (  0.0000000  0.0000000 -1.0000000 )


      isym = 33     inv. 180 deg rotation - cart. axis [1,0,1]   

 cryst.   s(33) = (     0          0         -1      )
                  (     0          1          0      )
                  (    -1          0          0      )

 cart.    s(33) = (  0.0000000  0.0000000 -1.0000000 )
                  (  0.0000000  1.0000000  0.0000000 )
                  ( -1.0000000  0.0000000  0.0000000 )


      isym = 34     inv. 180 deg rotation - cart. axis [-1,0,1]  

 cryst.   s(34) = (     0          0          1      )
                  (     0          1          0      )
                  (     1          0          0      )

 cart.    s(34) = (  0.0000000  0.0000000  1.0000000 )
                  (  0.0000000  1.0000000  0.0000000 )
                  (  1.0000000  0.0000000  0.0000000 )


      isym = 35     inv.  90 deg rotation - cart. axis [0,1,0]   

 cryst.   s(35) = (     0          0          1      )
                  (     0         -1          0      )
                  (    -1          0          0      )

 cart.    s(35) = (  0.0000000  0.0000000 -1.0000000 )
                  (  0.0000000 -1.0000000  0.0000000 )
                  (  1.0000000  0.0000000  0.0000000 )


      isym = 36     inv.  90 deg rotation - cart. axis [0,-1,0]  

 cryst.   s(36) = (     0          0         -1      )
                  (     0         -1          0      )
                  (     1          0          0      )

 cart.    s(36) = (  0.0000000  0.0000000  1.0000000 )
                  (  0.0000000 -1.0000000  0.0000000 )
                  ( -1.0000000  0.0000000  0.0000000 )


      isym = 37     inv. 180 deg rotation - cart. axis [0,1,1]   

 cryst.   s(37) = (     1          0          0      )
                  (     0          0         -1      )
                  (     0         -1          0      )

 cart.    s(37) = (  1.0000000  0.0000000  0.0000000 )
                  (  0.0000000  0.0000000 -1.0000000 )
                  (  0.0000000 -1.0000000  0.0000000 )


      isym = 38     inv. 180 deg rotation - cart. axis [0,1,-1]  

 cryst.   s(38) = (     1          0          0      )
                  (     0          0          1      )
                  (     0          1          0      )

 cart.    s(38) = (  1.0000000  0.0000000  0.0000000 )
                  (  0.0000000  0.0000000  1.0000000 )
                  (  0.0000000  1.0000000  0.0000000 )


      isym = 39     inv.  90 deg rotation - cart. axis [-1,0,0]  

 cryst.   s(39) = (    -1          0          0      )
                  (     0          0          1      )
                  (     0         -1          0      )

 cart.    s(39) = ( -1.0000000  0.0000000  0.0000000 )
                  (  0.0000000  0.0000000 -1.0000000 )
                  (  0.0000000  1.0000000  0.0000000 )


      isym = 40     inv.  90 deg rotation - cart. axis [1,0,0]   

 cryst.   s(40) = (    -1          0          0      )
                  (     0          0         -1      )
                  (     0          1          0      )

 cart.    s(40) = ( -1.0000000  0.0000000  0.0000000 )
                  (  0.0000000  0.0000000  1.0000000 )
                  (  0.0000000 -1.0000000  0.0000000 )


      isym = 41     inv. 120 deg rotation - cart. axis [-1,-1,-1]

 cryst.   s(41) = (     0          0         -1      )
                  (    -1          0          0      )
                  (     0         -1          0      )

 cart.    s(41) = (  0.0000000 -1.0000000  0.0000000 )
                  (  0.0000000  0.0000000 -1.0000000 )
                  ( -1.0000000  0.0000000  0.0000000 )


      isym = 42     inv. 120 deg rotation - cart. axis [-1,1,1]  

 cryst.   s(42) = (     0          0          1      )
                  (     1          0          0      )
                  (     0         -1          0      )

 cart.    s(42) = (  0.0000000  1.0000000  0.0000000 )
                  (  0.0000000  0.0000000 -1.0000000 )
                  (  1.0000000  0.0000000  0.0000000 )


      isym = 43     inv. 120 deg rotation - cart. axis [1,1,-1]  

 cryst.   s(43) = (     0          0          1      )
                  (    -1          0          0      )
                  (     0          1          0      )

 cart.    s(43) = (  0.0000000 -1.0000000  0.0000000 )
                  (  0.0000000  0.0000000  1.0000000 )
                  (  1.0000000  0.0000000  0.0000000 )


      isym = 44     inv. 120 deg rotation - cart. axis [1,-1,1]  

 cryst.   s(44) = (     0          0         -1      )
                  (     1          0          0      )
                  (     0          1          0      )

 cart.    s(44) = (  0.0000000  1.0000000  0.0000000 )
                  (  0.0000000  0.0000000  1.0000000 )
                  ( -1.0000000  0.0000000  0.0000000 )


      isym = 45     inv. 120 deg rotation - cart. axis [1,1,1]   

 cryst.   s(45) = (     0         -1          0      )
                  (     0          0         -1      )
                  (    -1          0          0      )

 cart.    s(45) = (  0.0000000  0.0000000 -1.0000000 )
                  ( -1.0000000  0.0000000  0.0000000 )
                  (  0.0000000 -1.0000000  0.0000000 )


      isym = 46     inv. 120 deg rotation - cart. axis [-1,1,-1] 

 cryst.   s(46) = (     0          1          0      )
                  (     0          0          1      )
                  (    -1          0          0      )

 cart.    s(46) = (  0.0000000  0.0000000 -1.0000000 )
                  (  1.0000000  0.0000000  0.0000000 )
                  (  0.0000000  1.0000000  0.0000000 )


      isym = 47     inv. 120 deg rotation - cart. axis [1,-1,-1] 

 cryst.   s(47) = (     0          1          0      )
                  (     0          0         -1      )
                  (     1          0          0      )

 cart.    s(47) = (  0.0000000  0.0000000  1.0000000 )
                  (  1.0000000  0.0000000  0.0000000 )
                  (  0.0000000 -1.0000000  0.0000000 )


      isym = 48     inv. 120 deg rotation - cart. axis [-1,-1,1] 

 cryst.   s(48) = (     0         -1          0      )
                  (     0          0          1      )
                  (     1          0          0      )

 cart.    s(48) = (  0.0000000  0.0000000  1.0000000 )
                  ( -1.0000000  0.0000000  0.0000000 )
                  (  0.0000000  1.0000000  0.0000000 )


   Cartesian axes

     site n.     atom                  positions (alat units)
         1           W   tau(   1) = (   0.5000000   0.5000000   0.5000000  )

   Crystallographic axes

     site n.     atom                  positions (cryst. coord.)
         1           W   tau(   1) = (  0.5000000  0.5000000  0.5000000  )

     number of k points=     1
                       cart. coord. in units 2pi/alat
        k(    1) = (   0.0000000   0.0000000   0.0000000), wk =   1.0000000

                       cryst. coord.
        k(    1) = (   0.0000000   0.0000000   0.0000000), wk =   1.0000000

     Dense  grid: 11576011 G-vectors     FFT dimensions: ( 360, 360, 360)

     Dynamical RAM for                 wfc:       8.28 MB

     Dynamical RAM for     wfc (w. buffer):      24.84 MB

     Dynamical RAM for           str. fact:       5.52 MB

     Dynamical RAM for           local pot:       0.00 MB

     Dynamical RAM for          nlocal pot:       8.97 MB

     Dynamical RAM for                qrad:       5.67 MB

     Dynamical RAM for          rho,v,vnew:     104.31 MB

     Dynamical RAM for               rhoin:      34.77 MB

     Dynamical RAM for            rho*nmix:     176.64 MB

     Dynamical RAM for           G-vectors:      23.46 MB

     Dynamical RAM for          h,s,v(r/c):       0.00 MB

     Dynamical RAM for          <psi|beta>:       0.00 MB

     Dynamical RAM for                 psi:      33.12 MB

     Dynamical RAM for                hpsi:      33.12 MB

     Dynamical RAM for      wfcinit/wfcrot:      22.09 MB

     Estimated static dynamical RAM per process >     466.40 MB

     Estimated max dynamical RAM per process >     532.65 MB

     Estimated total dynamical RAM >      16.65 GB
     Generating pointlists ...
     new r_m :   0.4125 (alat units)  9.3541 (a.u.) for type    1

     Initial potential from superposition of free atoms

     starting charge   11.30112, renormalised to   14.00000

     negative rho (up, down):  1.847E-02 0.000E+00
     Starting wfcs are   16 randomized atomic wfcs

     total cpu time spent up to now is       17.1 secs

     Self-consistent Calculation

     iteration #  1     ecut=   600.00 Ry     beta= 0.70
     Davidson diagonalization with overlap
     ethr =  1.00E-02,  avg # of iterations = 13.5

     negative rho (up, down):  9.438E-06 5.204E-02

     total cpu time spent up to now is       44.5 secs

     total energy              =    -127.06584801 Ry
     Harris-Foulkes estimate   =    -137.23104386 Ry
     estimated scf accuracy    <      13.06639525 Ry

     total magnetization       =     4.00 Bohr mag/cell
     absolute magnetization    =     4.09 Bohr mag/cell

     iteration #  2     ecut=   600.00 Ry     beta= 0.70
     Davidson diagonalization with overlap
     ethr =  1.00E-02,  avg # of iterations =  7.5

     negative rho (up, down):  5.615E-06 5.166E-02

     total cpu time spent up to now is       66.3 secs

     total energy              =    -134.77321758 Ry
     Harris-Foulkes estimate   =    -139.13814881 Ry
     estimated scf accuracy    <       7.53772733 Ry

     total magnetization       =     4.00 Bohr mag/cell
     absolute magnetization    =     4.00 Bohr mag/cell

     iteration #  3     ecut=   600.00 Ry     beta= 0.70
     Davidson diagonalization with overlap
     ethr =  1.00E-02,  avg # of iterations =  3.0

     negative rho (up, down):  5.024E-06 5.168E-02

     total cpu time spent up to now is       80.0 secs

     total energy              =    -134.99221711 Ry
     Harris-Foulkes estimate   =    -135.20980320 Ry
     estimated scf accuracy    <       1.50842890 Ry

     total magnetization       =     4.00 Bohr mag/cell
     absolute magnetization    =     4.03 Bohr mag/cell

     iteration #  4     ecut=   600.00 Ry     beta= 0.70
     Davidson diagonalization with overlap
     ethr =  1.00E-02,  avg # of iterations =  1.0

     negative rho (up, down):  5.139E-06 5.215E-02

     total cpu time spent up to now is       92.1 secs

     total energy              =    -135.22953657 Ry
     Harris-Foulkes estimate   =    -135.00795299 Ry
     estimated scf accuracy    <       0.89024661 Ry

     total magnetization       =     4.00 Bohr mag/cell
     absolute magnetization    =     4.24 Bohr mag/cell

     iteration #  5     ecut=   600.00 Ry     beta= 0.70
     Davidson diagonalization with overlap
     ethr =  6.36E-03,  avg # of iterations =  1.0

     negative rho (up, down):  4.875E-06 5.340E-02

     total cpu time spent up to now is      104.3 secs

     total energy              =    -135.23581161 Ry
     Harris-Foulkes estimate   =    -135.26328174 Ry
     estimated scf accuracy    <       1.46172681 Ry

     total magnetization       =     4.00 Bohr mag/cell
     absolute magnetization    =     4.17 Bohr mag/cell

     iteration #  6     ecut=   600.00 Ry     beta= 0.70
     Davidson diagonalization with overlap
     ethr =  6.36E-03,  avg # of iterations =  1.0

     negative rho (up, down):  3.055E-06 5.707E-02

     total cpu time spent up to now is      116.5 secs

     total energy              =    -134.69378397 Ry
     Harris-Foulkes estimate   =    -135.24078654 Ry
     estimated scf accuracy    <       1.38297779 Ry

     total magnetization       =     4.00 Bohr mag/cell
     absolute magnetization    =     4.22 Bohr mag/cell

     iteration #  7     ecut=   600.00 Ry     beta= 0.70
     Davidson diagonalization with overlap
     ethr =  6.36E-03,  avg # of iterations =  1.0

     negative rho (up, down):  1.713E-06 5.865E-02

     total cpu time spent up to now is      128.9 secs

     total energy              =    -134.51874491 Ry
     Harris-Foulkes estimate   =    -134.77281818 Ry
     estimated scf accuracy    <       0.83881853 Ry

     total magnetization       =     4.00 Bohr mag/cell
     absolute magnetization    =     4.44 Bohr mag/cell

     iteration #  8     ecut=   600.00 Ry     beta= 0.70
     Davidson diagonalization with overlap
     ethr =  5.99E-03,  avg # of iterations =  1.0

     negative rho (up, down):  8.044E-07 6.039E-02

     total cpu time spent up to now is      141.2 secs

     total energy              =    -134.46535380 Ry
     Harris-Foulkes estimate   =    -134.52737197 Ry
     estimated scf accuracy    <       0.76372005 Ry

     total magnetization       =     4.00 Bohr mag/cell
     absolute magnetization    =     4.44 Bohr mag/cell

     iteration #  9     ecut=   600.00 Ry     beta= 0.70
     Davidson diagonalization with overlap
     ethr =  5.46E-03,  avg # of iterations =  1.5

     negative rho (up, down):  1.177E-06 6.925E-02

     total cpu time spent up to now is      153.9 secs

     total energy              =    -134.43570445 Ry
     Harris-Foulkes estimate   =    -134.50175115 Ry
     estimated scf accuracy    <       0.33495992 Ry

     total magnetization       =     4.00 Bohr mag/cell
     absolute magnetization    =     4.42 Bohr mag/cell

     iteration # 10     ecut=   600.00 Ry     beta= 0.70
     Davidson diagonalization with overlap
     ethr =  2.39E-03,  avg # of iterations =  1.0

     negative rho (up, down):  3.687E-03 6.605E-02

     total cpu time spent up to now is      165.9 secs

     total energy              =    -134.54850466 Ry
     Harris-Foulkes estimate   =    -134.44128337 Ry
     estimated scf accuracy    <       0.45340952 Ry

     total magnetization       =     4.00 Bohr mag/cell
     absolute magnetization    =     4.43 Bohr mag/cell

     iteration # 11     ecut=   600.00 Ry     beta= 0.70
     Davidson diagonalization with overlap
     ethr =  2.39E-03,  avg # of iterations =  1.5

     negative rho (up, down):  2.584E-06 4.343E-01

     total cpu time spent up to now is      178.6 secs

     total energy              =    -134.57804051 Ry
     Harris-Foulkes estimate   =    -134.58210619 Ry
     estimated scf accuracy    <       0.11707664 Ry

     total magnetization       =     4.00 Bohr mag/cell
     absolute magnetization    =     4.29 Bohr mag/cell

     iteration # 12     ecut=   600.00 Ry     beta= 0.70
     Davidson diagonalization with overlap
     ethr =  8.36E-04,  avg # of iterations =  5.0

     negative rho (up, down):  2.595E-09 1.466E-01

     total cpu time spent up to now is      193.2 secs

     total energy              =    -134.65599669 Ry
     Harris-Foulkes estimate   =    -134.58086456 Ry
     estimated scf accuracy    <       0.12963338 Ry

     total magnetization       =     4.00 Bohr mag/cell
     absolute magnetization    =     4.35 Bohr mag/cell

     iteration # 13     ecut=   600.00 Ry     beta= 0.70
     Davidson diagonalization with overlap
     ethr =  8.36E-04,  avg # of iterations =  2.5

     negative rho (up, down):  3.914E-04 3.879E-01

     total cpu time spent up to now is      207.4 secs

     total energy              =    -134.61522648 Ry
     Harris-Foulkes estimate   =    -134.72047344 Ry
     estimated scf accuracy    <       0.23292755 Ry

     total magnetization       =     4.00 Bohr mag/cell
     absolute magnetization    =     4.02 Bohr mag/cell

     iteration # 14     ecut=   600.00 Ry     beta= 0.70
     Davidson diagonalization with overlap
     ethr =  8.36E-04,  avg # of iterations =  2.0

     negative rho (up, down):  2.362E-06 2.715E-01

     total cpu time spent up to now is      220.3 secs

     total energy              =    -134.69670940 Ry
     Harris-Foulkes estimate   =    -134.69105890 Ry
     estimated scf accuracy    <       0.01454672 Ry

     total magnetization       =     4.00 Bohr mag/cell
     absolute magnetization    =     4.44 Bohr mag/cell

     iteration # 15     ecut=   600.00 Ry     beta= 0.70
     Davidson diagonalization with overlap
     ethr =  1.04E-04,  avg # of iterations =  5.0

     negative rho (up, down):  3.119E-08 6.368E-02

     total cpu time spent up to now is      234.9 secs

     total energy              =    -134.69952334 Ry
     Harris-Foulkes estimate   =    -134.69774506 Ry
     estimated scf accuracy    <       0.01107994 Ry

     total magnetization       =     4.00 Bohr mag/cell
     absolute magnetization    =     4.41 Bohr mag/cell

     iteration # 16     ecut=   600.00 Ry     beta= 0.70
     Davidson diagonalization with overlap
     ethr =  7.91E-05,  avg # of iterations =  2.5

     negative rho (up, down):  5.404E-09 3.091E-02

     total cpu time spent up to now is      248.1 secs

     total energy              =    -134.69973404 Ry
     Harris-Foulkes estimate   =    -134.70151159 Ry
     estimated scf accuracy    <       0.01059770 Ry

     total magnetization       =     4.00 Bohr mag/cell
     absolute magnetization    =     4.36 Bohr mag/cell

     iteration # 17     ecut=   600.00 Ry     beta= 0.70
     Davidson diagonalization with overlap
     ethr =  7.57E-05,  avg # of iterations =  1.0

     negative rho (up, down):  4.140E-09 6.525E-03

     total cpu time spent up to now is      260.4 secs

     total energy              =    -134.69762958 Ry
     Harris-Foulkes estimate   =    -134.69991945 Ry
     estimated scf accuracy    <       0.00749589 Ry

     total magnetization       =     4.00 Bohr mag/cell
     absolute magnetization    =     4.38 Bohr mag/cell

     iteration # 18     ecut=   600.00 Ry     beta= 0.70
     Davidson diagonalization with overlap
     ethr =  5.35E-05,  avg # of iterations =  2.5

     negative rho (up, down):  2.535E-04 4.225E-01

     total cpu time spent up to now is      273.3 secs

     total energy              =    -134.69734257 Ry
     Harris-Foulkes estimate   =    -134.69819000 Ry
     estimated scf accuracy    <       0.00343490 Ry

     total magnetization       =     4.00 Bohr mag/cell
     absolute magnetization    =     4.41 Bohr mag/cell

     iteration # 19     ecut=   600.00 Ry     beta= 0.70
     Davidson diagonalization with overlap
     ethr =  2.45E-05,  avg # of iterations =  7.0

     negative rho (up, down):  1.167E-04 3.613E-01

     total cpu time spent up to now is      289.5 secs

     total energy              =    -134.69748311 Ry
     Harris-Foulkes estimate   =    -134.69807797 Ry
     estimated scf accuracy    <       0.00351686 Ry

     total magnetization       =     4.00 Bohr mag/cell
     absolute magnetization    =     4.43 Bohr mag/cell

     iteration # 20     ecut=   600.00 Ry     beta= 0.70
     Davidson diagonalization with overlap
     ethr =  2.45E-05,  avg # of iterations =  2.0

     negative rho (up, down):  3.264E-05 2.891E-01

     total cpu time spent up to now is      302.5 secs

     total energy              =    -134.69747401 Ry
     Harris-Foulkes estimate   =    -134.69799514 Ry
     estimated scf accuracy    <       0.00222876 Ry

     total magnetization       =     4.00 Bohr mag/cell
     absolute magnetization    =     4.40 Bohr mag/cell

     iteration # 21     ecut=   600.00 Ry     beta= 0.70
     Davidson diagonalization with overlap
     ethr =  1.59E-05,  avg # of iterations =  1.0

     negative rho (up, down):  4.388E-05 3.537E-01

     total cpu time spent up to now is      314.7 secs

     total energy              =    -134.69767970 Ry
     Harris-Foulkes estimate   =    -134.69757359 Ry
     estimated scf accuracy    <       0.00118341 Ry

     total magnetization       =     4.00 Bohr mag/cell
     absolute magnetization    =     4.41 Bohr mag/cell

     iteration # 22     ecut=   600.00 Ry     beta= 0.70
     Davidson diagonalization with overlap
     ethr =  8.45E-06,  avg # of iterations =  2.5

     negative rho (up, down):  1.547E-05 2.857E-01

     total cpu time spent up to now is      327.6 secs

     total energy              =    -134.69814281 Ry
     Harris-Foulkes estimate   =    -134.69775109 Ry
     estimated scf accuracy    <       0.00046318 Ry

     total magnetization       =     4.00 Bohr mag/cell
     absolute magnetization    =     4.40 Bohr mag/cell

     iteration # 23     ecut=   600.00 Ry     beta= 0.70
     Davidson diagonalization with overlap
     ethr =  3.31E-06,  avg # of iterations =  3.0

     negative rho (up, down):  1.871E-11 1.718E-04

     total cpu time spent up to now is      342.6 secs

     total energy              =    -134.69856289 Ry
     Harris-Foulkes estimate   =    -134.69849100 Ry
     estimated scf accuracy    <       0.00005217 Ry

     total magnetization       =     4.00 Bohr mag/cell
     absolute magnetization    =     4.37 Bohr mag/cell

     iteration # 24     ecut=   600.00 Ry     beta= 0.70
     Davidson diagonalization with overlap
     ethr =  3.73E-07,  avg # of iterations =  4.5

     negative rho (up, down):  1.702E-12 1.406E-04

     total cpu time spent up to now is      357.4 secs

     total energy              =    -134.69860757 Ry
     Harris-Foulkes estimate   =    -134.69859360 Ry
     estimated scf accuracy    <       0.00000675 Ry

     total magnetization       =     4.00 Bohr mag/cell
     absolute magnetization    =     4.36 Bohr mag/cell

     iteration # 25     ecut=   600.00 Ry     beta= 0.70
     Davidson diagonalization with overlap
     ethr =  4.82E-08,  avg # of iterations =  4.0

     negative rho (up, down):  1.984E-14 1.940E-05

     total cpu time spent up to now is      372.3 secs

     total energy              =    -134.69861526 Ry
     Harris-Foulkes estimate   =    -134.69861355 Ry
     estimated scf accuracy    <       0.00000167 Ry

     total magnetization       =     4.00 Bohr mag/cell
     absolute magnetization    =     4.36 Bohr mag/cell

     iteration # 26     ecut=   600.00 Ry     beta= 0.70
     Davidson diagonalization with overlap
     ethr =  1.19E-08,  avg # of iterations =  2.0
 
     Magnetic moment per site:
     atom:    1    charge:   13.9994    magn:    4.0001    constr:    0.0000

     total cpu time spent up to now is      383.8 secs

     End of self-consistent calculation

 ------ SPIN UP ------------


          k = 0.0000 0.0000 0.0000 (****** PWs)   bands (ev):

   -77.8111 -42.8952 -42.8696 -42.8693  -5.7619  -4.7865  -4.7859  -4.7716
    -4.7715  -3.9157  -1.2480  -1.2479

     occupation numbers 
     1.0000   1.0000   1.0000   1.0000   1.0000   1.0000   1.0000   1.0000
     1.0000   0.0000   0.0000   0.0000

 ------ SPIN DOWN ----------


          k = 0.0000 0.0000 0.0000 (****** PWs)   bands (ev):

   -76.2658 -41.3527 -40.5115 -40.5109  -4.4835  -2.8843  -2.2419  -2.2415
    -1.7599  -1.7590  -0.8679  -0.2260

     occupation numbers 
     1.0000   1.0000   1.0000   1.0000   1.0000   0.0000   0.0000   0.0000
     0.0000   0.0000   0.0000   0.0000

     highest occupied, lowest unoccupied level (ev):    -4.4835   -3.9157

!    total energy              =    -134.69861681 Ry
     Harris-Foulkes estimate   =    -134.69861652 Ry
     estimated scf accuracy    <       0.00000020 Ry

     The total energy is the sum of the following terms:

     one-electron contribution =    -177.78013749 Ry
     hartree contribution      =      82.76590215 Ry
     xc contribution           =     -15.16097318 Ry
     ewald contribution        =     -24.52340829 Ry

     total magnetization       =     4.00 Bohr mag/cell
     absolute magnetization    =     4.36 Bohr mag/cell

     convergence has been achieved in  26 iterations

     Writing output data file pwscf.save/
 
     init_run     :     16.21s CPU     16.89s WALL (       1 calls)
     electrons    :    357.92s CPU    367.88s WALL (       1 calls)

     Called by init_run:
     wfcinit      :      3.21s CPU      3.31s WALL (       1 calls)
     wfcinit:atom :      0.05s CPU      0.07s WALL (       2 calls)
     wfcinit:wfcr :      3.05s CPU      3.12s WALL (       2 calls)
     potinit      :      3.78s CPU      4.03s WALL (       1 calls)
     hinit0       :      0.33s CPU      0.52s WALL (       1 calls)

     Called by electrons:
     c_bands      :    177.52s CPU    179.84s WALL (      26 calls)
     sum_band     :     58.09s CPU     58.26s WALL (      26 calls)
     v_of_rho     :     92.39s CPU     96.49s WALL (      27 calls)
     v_h          :      7.20s CPU      7.27s WALL (      27 calls)
     v_xc         :     85.20s CPU     89.22s WALL (      27 calls)
     mix_rho      :     30.05s CPU     32.89s WALL (      26 calls)

     Called by c_bands:
     init_us_2    :      1.84s CPU      1.84s WALL (     106 calls)
     regterg      :    174.29s CPU    176.58s WALL (      52 calls)

     Called by sum_band:

     Called by *egterg:
     h_psi        :    160.79s CPU    161.10s WALL (     213 calls)
     g_psi        :      0.51s CPU      0.51s WALL (     159 calls)
     rdiaghg      :      0.23s CPU      0.24s WALL (     211 calls)
     regterg:over :      3.51s CPU      3.51s WALL (     159 calls)
     regterg:upda :      7.08s CPU      7.17s WALL (     159 calls)
     regterg:last :      2.19s CPU      2.19s WALL (      58 calls)
     rdiaghg:chol :      0.04s CPU      0.05s WALL (     211 calls)
     rdiaghg:inve :      0.01s CPU      0.01s WALL (     211 calls)
     rdiaghg:para :      0.03s CPU      0.03s WALL (     422 calls)

     Called by h_psi:
     h_psi:pot    :    159.74s CPU    160.04s WALL (     213 calls)
     h_psi:calbec :      0.88s CPU      0.92s WALL (     213 calls)
     vloc_psi     :    157.43s CPU    157.69s WALL (     213 calls)
     add_vuspsi   :      1.43s CPU      1.43s WALL (     213 calls)

     General routines
     calbec       :      0.88s CPU      0.92s WALL (     213 calls)
     fft          :     79.52s CPU     80.23s WALL (     401 calls)
     ffts         :      8.25s CPU      8.27s WALL (      52 calls)
     fftw         :    155.91s CPU    156.23s WALL (    2070 calls)
 
     Parallel routines
     fft_scatt_xy :     42.54s CPU     42.60s WALL (    2523 calls)
     fft_scatt_yz :     87.70s CPU     88.29s WALL (    2523 calls)
 
     PWSCF        :   6m15.11s CPU   6m27.52s WALL

 
   This run was terminated on:  19:58:23  17Jan2022            

=------------------------------------------------------------------------------=
   JOB DONE.
=------------------------------------------------------------------------------=
