/global/cscratch1/sd/bkincaid/Ir/250-610/runs/scf_480

     Program PWSCF v.6.4.1 starts on 17Jan2022 at 13:51:12 

     This program is part of the open-source Quantum ESPRESSO suite
     for quantum simulation of materials; please cite
         "P. Giannozzi et al., J. Phys.:Condens. Matter 21 395502 (2009);
         "P. Giannozzi et al., J. Phys.:Condens. Matter 29 465901 (2017);
          URL http://www.quantum-espresso.org", 
     in publications or presentations arising from this work. More details at
     http://www.quantum-espresso.org/quote

     Parallel version (MPI & OpenMP), running on      32 processor cores
     Number of MPI processes:                32
     Threads/MPI process:                     1

     MPI processes distributed on     1 nodes
     R & G space division:  proc/nbgrp/npool/nimage =      32
     Reading input from scf_480.in

     Current dimensions of program PWSCF are:
     Max number of different atomic species (ntypx) = 10
     Max number of k-points (npk) =  40000
     Max angular momentum in pseudopotentials (lmaxx) =  3

     IMPORTANT: XC functional enforced from input :
     Exchange-correlation      = PBE ( 1  4  3  4 0 0)
     Any further DFT definition will be discarded
     Please, verify this is what you really want


     gamma-point specific algorithms are used
     Message from routine setup:
     the system is metallic, specify occupations

     Subspace diagonalization in iterative solution of the eigenvalue problem:
     one sub-group per band group will be used
     scalapack distributed-memory algorithm (size of sub-group:  4*  4 procs)

     Message from routine setup:
     DEPRECATED: symmetry with ibrav=0, use correct ibrav instead
 
     Parallelization info
     --------------------
     sticks:   dense  smooth     PW     G-vecs:    dense   smooth      PW
     Min        2454    2454    612               517702   517702   64696
     Max        2458    2458    614               517712   517712   64702
     Sum       78565   78565  19625             16566585 16566585 2070343
 


     bravais-lattice index     =            0
     lattice parameter (alat)  =      22.6767  a.u.
     unit-cell volume          =   11661.1222 (a.u.)^3
     number of atoms/cell      =            1
     number of atomic types    =            1
     number of electrons       =        17.00 (up:  10.00, down:   7.00)
     number of Kohn-Sham states=           12
     kinetic-energy cutoff     =     480.0000  Ry
     charge density cutoff     =    1920.0000  Ry
     convergence threshold     =      1.0E-06
     mixing beta               =       0.7000
     number of iterations used =            8  plain     mixing
     Exchange-correlation      = PBE ( 1  4  3  4 0 0)

     celldm(1)=  22.676714  celldm(2)=   0.000000  celldm(3)=   0.000000
     celldm(4)=   0.000000  celldm(5)=   0.000000  celldm(6)=   0.000000

     crystal axes: (cart. coord. in units of alat)
               a(1) = (   1.000000   0.000000   0.000000 )  
               a(2) = (   0.000000   1.000000   0.000000 )  
               a(3) = (   0.000000   0.000000   1.000000 )  

     reciprocal axes: (cart. coord. in units 2 pi/alat)
               b(1) = (  1.000000  0.000000  0.000000 )  
               b(2) = (  0.000000  1.000000  0.000000 )  
               b(3) = (  0.000000  0.000000  1.000000 )  


     PseudoPot. # 1 for Ir read from file:
     ./Ir.upf
     MD5 check sum: 4ec64f0b3ebe11de5a1e063b7aff0c74
     Pseudo is Norm-conserving, Zval = 17.0
     Generated by new atomic code, or converted to UPF format
     Using radial grid of 1188 points,  3 beta functions with: 
                l(1) =   1
                l(2) =   2
                l(3) =   3

     atomic species   valence    mass     pseudopotential
        Ir            17.00   192.20000     Ir( 1.00)

     Starting magnetic structure 
     atomic species   magnetization
        Ir           0.500

     48 Sym. Ops., with inversion, found


                                    s                        frac. trans.

      isym =  1     identity                                     

 cryst.   s( 1) = (     1          0          0      )
                  (     0          1          0      )
                  (     0          0          1      )

 cart.    s( 1) = (  1.0000000  0.0000000  0.0000000 )
                  (  0.0000000  1.0000000  0.0000000 )
                  (  0.0000000  0.0000000  1.0000000 )


      isym =  2     180 deg rotation - cart. axis [0,0,1]        

 cryst.   s( 2) = (    -1          0          0      )
                  (     0         -1          0      )
                  (     0          0          1      )

 cart.    s( 2) = ( -1.0000000  0.0000000  0.0000000 )
                  (  0.0000000 -1.0000000  0.0000000 )
                  (  0.0000000  0.0000000  1.0000000 )


      isym =  3     180 deg rotation - cart. axis [0,1,0]        

 cryst.   s( 3) = (    -1          0          0      )
                  (     0          1          0      )
                  (     0          0         -1      )

 cart.    s( 3) = ( -1.0000000  0.0000000  0.0000000 )
                  (  0.0000000  1.0000000  0.0000000 )
                  (  0.0000000  0.0000000 -1.0000000 )


      isym =  4     180 deg rotation - cart. axis [1,0,0]        

 cryst.   s( 4) = (     1          0          0      )
                  (     0         -1          0      )
                  (     0          0         -1      )

 cart.    s( 4) = (  1.0000000  0.0000000  0.0000000 )
                  (  0.0000000 -1.0000000  0.0000000 )
                  (  0.0000000  0.0000000 -1.0000000 )


      isym =  5     180 deg rotation - cart. axis [1,1,0]        

 cryst.   s( 5) = (     0          1          0      )
                  (     1          0          0      )
                  (     0          0         -1      )

 cart.    s( 5) = (  0.0000000  1.0000000  0.0000000 )
                  (  1.0000000  0.0000000  0.0000000 )
                  (  0.0000000  0.0000000 -1.0000000 )


      isym =  6     180 deg rotation - cart. axis [1,-1,0]       

 cryst.   s( 6) = (     0         -1          0      )
                  (    -1          0          0      )
                  (     0          0         -1      )

 cart.    s( 6) = (  0.0000000 -1.0000000  0.0000000 )
                  ( -1.0000000  0.0000000  0.0000000 )
                  (  0.0000000  0.0000000 -1.0000000 )


      isym =  7      90 deg rotation - cart. axis [0,0,-1]       

 cryst.   s( 7) = (     0         -1          0      )
                  (     1          0          0      )
                  (     0          0          1      )

 cart.    s( 7) = (  0.0000000  1.0000000  0.0000000 )
                  ( -1.0000000  0.0000000  0.0000000 )
                  (  0.0000000  0.0000000  1.0000000 )


      isym =  8      90 deg rotation - cart. axis [0,0,1]        

 cryst.   s( 8) = (     0          1          0      )
                  (    -1          0          0      )
                  (     0          0          1      )

 cart.    s( 8) = (  0.0000000 -1.0000000  0.0000000 )
                  (  1.0000000  0.0000000  0.0000000 )
                  (  0.0000000  0.0000000  1.0000000 )


      isym =  9     180 deg rotation - cart. axis [1,0,1]        

 cryst.   s( 9) = (     0          0          1      )
                  (     0         -1          0      )
                  (     1          0          0      )

 cart.    s( 9) = (  0.0000000  0.0000000  1.0000000 )
                  (  0.0000000 -1.0000000  0.0000000 )
                  (  1.0000000  0.0000000  0.0000000 )


      isym = 10     180 deg rotation - cart. axis [-1,0,1]       

 cryst.   s(10) = (     0          0         -1      )
                  (     0         -1          0      )
                  (    -1          0          0      )

 cart.    s(10) = (  0.0000000  0.0000000 -1.0000000 )
                  (  0.0000000 -1.0000000  0.0000000 )
                  ( -1.0000000  0.0000000  0.0000000 )


      isym = 11      90 deg rotation - cart. axis [0,1,0]        

 cryst.   s(11) = (     0          0         -1      )
                  (     0          1          0      )
                  (     1          0          0      )

 cart.    s(11) = (  0.0000000  0.0000000  1.0000000 )
                  (  0.0000000  1.0000000  0.0000000 )
                  ( -1.0000000  0.0000000  0.0000000 )


      isym = 12      90 deg rotation - cart. axis [0,-1,0]       

 cryst.   s(12) = (     0          0          1      )
                  (     0          1          0      )
                  (    -1          0          0      )

 cart.    s(12) = (  0.0000000  0.0000000 -1.0000000 )
                  (  0.0000000  1.0000000  0.0000000 )
                  (  1.0000000  0.0000000  0.0000000 )


      isym = 13     180 deg rotation - cart. axis [0,1,1]        

 cryst.   s(13) = (    -1          0          0      )
                  (     0          0          1      )
                  (     0          1          0      )

 cart.    s(13) = ( -1.0000000  0.0000000  0.0000000 )
                  (  0.0000000  0.0000000  1.0000000 )
                  (  0.0000000  1.0000000  0.0000000 )


      isym = 14     180 deg rotation - cart. axis [0,1,-1]       

 cryst.   s(14) = (    -1          0          0      )
                  (     0          0         -1      )
                  (     0         -1          0      )

 cart.    s(14) = ( -1.0000000  0.0000000  0.0000000 )
                  (  0.0000000  0.0000000 -1.0000000 )
                  (  0.0000000 -1.0000000  0.0000000 )


      isym = 15      90 deg rotation - cart. axis [-1,0,0]       

 cryst.   s(15) = (     1          0          0      )
                  (     0          0         -1      )
                  (     0          1          0      )

 cart.    s(15) = (  1.0000000  0.0000000  0.0000000 )
                  (  0.0000000  0.0000000  1.0000000 )
                  (  0.0000000 -1.0000000  0.0000000 )


      isym = 16      90 deg rotation - cart. axis [1,0,0]        

 cryst.   s(16) = (     1          0          0      )
                  (     0          0          1      )
                  (     0         -1          0      )

 cart.    s(16) = (  1.0000000  0.0000000  0.0000000 )
                  (  0.0000000  0.0000000 -1.0000000 )
                  (  0.0000000  1.0000000  0.0000000 )


      isym = 17     120 deg rotation - cart. axis [-1,-1,-1]     

 cryst.   s(17) = (     0          0          1      )
                  (     1          0          0      )
                  (     0          1          0      )

 cart.    s(17) = (  0.0000000  1.0000000  0.0000000 )
                  (  0.0000000  0.0000000  1.0000000 )
                  (  1.0000000  0.0000000  0.0000000 )


      isym = 18     120 deg rotation - cart. axis [-1,1,1]       

 cryst.   s(18) = (     0          0         -1      )
                  (    -1          0          0      )
                  (     0          1          0      )

 cart.    s(18) = (  0.0000000 -1.0000000  0.0000000 )
                  (  0.0000000  0.0000000  1.0000000 )
                  ( -1.0000000  0.0000000  0.0000000 )


      isym = 19     120 deg rotation - cart. axis [1,1,-1]       

 cryst.   s(19) = (     0          0         -1      )
                  (     1          0          0      )
                  (     0         -1          0      )

 cart.    s(19) = (  0.0000000  1.0000000  0.0000000 )
                  (  0.0000000  0.0000000 -1.0000000 )
                  ( -1.0000000  0.0000000  0.0000000 )


      isym = 20     120 deg rotation - cart. axis [1,-1,1]       

 cryst.   s(20) = (     0          0          1      )
                  (    -1          0          0      )
                  (     0         -1          0      )

 cart.    s(20) = (  0.0000000 -1.0000000  0.0000000 )
                  (  0.0000000  0.0000000 -1.0000000 )
                  (  1.0000000  0.0000000  0.0000000 )


      isym = 21     120 deg rotation - cart. axis [1,1,1]        

 cryst.   s(21) = (     0          1          0      )
                  (     0          0          1      )
                  (     1          0          0      )

 cart.    s(21) = (  0.0000000  0.0000000  1.0000000 )
                  (  1.0000000  0.0000000  0.0000000 )
                  (  0.0000000  1.0000000  0.0000000 )


      isym = 22     120 deg rotation - cart. axis [-1,1,-1]      

 cryst.   s(22) = (     0         -1          0      )
                  (     0          0         -1      )
                  (     1          0          0      )

 cart.    s(22) = (  0.0000000  0.0000000  1.0000000 )
                  ( -1.0000000  0.0000000  0.0000000 )
                  (  0.0000000 -1.0000000  0.0000000 )


      isym = 23     120 deg rotation - cart. axis [1,-1,-1]      

 cryst.   s(23) = (     0         -1          0      )
                  (     0          0          1      )
                  (    -1          0          0      )

 cart.    s(23) = (  0.0000000  0.0000000 -1.0000000 )
                  ( -1.0000000  0.0000000  0.0000000 )
                  (  0.0000000  1.0000000  0.0000000 )


      isym = 24     120 deg rotation - cart. axis [-1,-1,1]      

 cryst.   s(24) = (     0          1          0      )
                  (     0          0         -1      )
                  (    -1          0          0      )

 cart.    s(24) = (  0.0000000  0.0000000 -1.0000000 )
                  (  1.0000000  0.0000000  0.0000000 )
                  (  0.0000000 -1.0000000  0.0000000 )


      isym = 25     inversion                                    

 cryst.   s(25) = (    -1          0          0      )
                  (     0         -1          0      )
                  (     0          0         -1      )

 cart.    s(25) = ( -1.0000000  0.0000000  0.0000000 )
                  (  0.0000000 -1.0000000  0.0000000 )
                  (  0.0000000  0.0000000 -1.0000000 )


      isym = 26     inv. 180 deg rotation - cart. axis [0,0,1]   

 cryst.   s(26) = (     1          0          0      )
                  (     0          1          0      )
                  (     0          0         -1      )

 cart.    s(26) = (  1.0000000  0.0000000  0.0000000 )
                  (  0.0000000  1.0000000  0.0000000 )
                  (  0.0000000  0.0000000 -1.0000000 )


      isym = 27     inv. 180 deg rotation - cart. axis [0,1,0]   

 cryst.   s(27) = (     1          0          0      )
                  (     0         -1          0      )
                  (     0          0          1      )

 cart.    s(27) = (  1.0000000  0.0000000  0.0000000 )
                  (  0.0000000 -1.0000000  0.0000000 )
                  (  0.0000000  0.0000000  1.0000000 )


      isym = 28     inv. 180 deg rotation - cart. axis [1,0,0]   

 cryst.   s(28) = (    -1          0          0      )
                  (     0          1          0      )
                  (     0          0          1      )

 cart.    s(28) = ( -1.0000000  0.0000000  0.0000000 )
                  (  0.0000000  1.0000000  0.0000000 )
                  (  0.0000000  0.0000000  1.0000000 )


      isym = 29     inv. 180 deg rotation - cart. axis [1,1,0]   

 cryst.   s(29) = (     0         -1          0      )
                  (    -1          0          0      )
                  (     0          0          1      )

 cart.    s(29) = (  0.0000000 -1.0000000  0.0000000 )
                  ( -1.0000000  0.0000000  0.0000000 )
                  (  0.0000000  0.0000000  1.0000000 )


      isym = 30     inv. 180 deg rotation - cart. axis [1,-1,0]  

 cryst.   s(30) = (     0          1          0      )
                  (     1          0          0      )
                  (     0          0          1      )

 cart.    s(30) = (  0.0000000  1.0000000  0.0000000 )
                  (  1.0000000  0.0000000  0.0000000 )
                  (  0.0000000  0.0000000  1.0000000 )


      isym = 31     inv.  90 deg rotation - cart. axis [0,0,-1]  

 cryst.   s(31) = (     0          1          0      )
                  (    -1          0          0      )
                  (     0          0         -1      )

 cart.    s(31) = (  0.0000000 -1.0000000  0.0000000 )
                  (  1.0000000  0.0000000  0.0000000 )
                  (  0.0000000  0.0000000 -1.0000000 )


      isym = 32     inv.  90 deg rotation - cart. axis [0,0,1]   

 cryst.   s(32) = (     0         -1          0      )
                  (     1          0          0      )
                  (     0          0         -1      )

 cart.    s(32) = (  0.0000000  1.0000000  0.0000000 )
                  ( -1.0000000  0.0000000  0.0000000 )
                  (  0.0000000  0.0000000 -1.0000000 )


      isym = 33     inv. 180 deg rotation - cart. axis [1,0,1]   

 cryst.   s(33) = (     0          0         -1      )
                  (     0          1          0      )
                  (    -1          0          0      )

 cart.    s(33) = (  0.0000000  0.0000000 -1.0000000 )
                  (  0.0000000  1.0000000  0.0000000 )
                  ( -1.0000000  0.0000000  0.0000000 )


      isym = 34     inv. 180 deg rotation - cart. axis [-1,0,1]  

 cryst.   s(34) = (     0          0          1      )
                  (     0          1          0      )
                  (     1          0          0      )

 cart.    s(34) = (  0.0000000  0.0000000  1.0000000 )
                  (  0.0000000  1.0000000  0.0000000 )
                  (  1.0000000  0.0000000  0.0000000 )


      isym = 35     inv.  90 deg rotation - cart. axis [0,1,0]   

 cryst.   s(35) = (     0          0          1      )
                  (     0         -1          0      )
                  (    -1          0          0      )

 cart.    s(35) = (  0.0000000  0.0000000 -1.0000000 )
                  (  0.0000000 -1.0000000  0.0000000 )
                  (  1.0000000  0.0000000  0.0000000 )


      isym = 36     inv.  90 deg rotation - cart. axis [0,-1,0]  

 cryst.   s(36) = (     0          0         -1      )
                  (     0         -1          0      )
                  (     1          0          0      )

 cart.    s(36) = (  0.0000000  0.0000000  1.0000000 )
                  (  0.0000000 -1.0000000  0.0000000 )
                  ( -1.0000000  0.0000000  0.0000000 )


      isym = 37     inv. 180 deg rotation - cart. axis [0,1,1]   

 cryst.   s(37) = (     1          0          0      )
                  (     0          0         -1      )
                  (     0         -1          0      )

 cart.    s(37) = (  1.0000000  0.0000000  0.0000000 )
                  (  0.0000000  0.0000000 -1.0000000 )
                  (  0.0000000 -1.0000000  0.0000000 )


      isym = 38     inv. 180 deg rotation - cart. axis [0,1,-1]  

 cryst.   s(38) = (     1          0          0      )
                  (     0          0          1      )
                  (     0          1          0      )

 cart.    s(38) = (  1.0000000  0.0000000  0.0000000 )
                  (  0.0000000  0.0000000  1.0000000 )
                  (  0.0000000  1.0000000  0.0000000 )


      isym = 39     inv.  90 deg rotation - cart. axis [-1,0,0]  

 cryst.   s(39) = (    -1          0          0      )
                  (     0          0          1      )
                  (     0         -1          0      )

 cart.    s(39) = ( -1.0000000  0.0000000  0.0000000 )
                  (  0.0000000  0.0000000 -1.0000000 )
                  (  0.0000000  1.0000000  0.0000000 )


      isym = 40     inv.  90 deg rotation - cart. axis [1,0,0]   

 cryst.   s(40) = (    -1          0          0      )
                  (     0          0         -1      )
                  (     0          1          0      )

 cart.    s(40) = ( -1.0000000  0.0000000  0.0000000 )
                  (  0.0000000  0.0000000  1.0000000 )
                  (  0.0000000 -1.0000000  0.0000000 )


      isym = 41     inv. 120 deg rotation - cart. axis [-1,-1,-1]

 cryst.   s(41) = (     0          0         -1      )
                  (    -1          0          0      )
                  (     0         -1          0      )

 cart.    s(41) = (  0.0000000 -1.0000000  0.0000000 )
                  (  0.0000000  0.0000000 -1.0000000 )
                  ( -1.0000000  0.0000000  0.0000000 )


      isym = 42     inv. 120 deg rotation - cart. axis [-1,1,1]  

 cryst.   s(42) = (     0          0          1      )
                  (     1          0          0      )
                  (     0         -1          0      )

 cart.    s(42) = (  0.0000000  1.0000000  0.0000000 )
                  (  0.0000000  0.0000000 -1.0000000 )
                  (  1.0000000  0.0000000  0.0000000 )


      isym = 43     inv. 120 deg rotation - cart. axis [1,1,-1]  

 cryst.   s(43) = (     0          0          1      )
                  (    -1          0          0      )
                  (     0          1          0      )

 cart.    s(43) = (  0.0000000 -1.0000000  0.0000000 )
                  (  0.0000000  0.0000000  1.0000000 )
                  (  1.0000000  0.0000000  0.0000000 )


      isym = 44     inv. 120 deg rotation - cart. axis [1,-1,1]  

 cryst.   s(44) = (     0          0         -1      )
                  (     1          0          0      )
                  (     0          1          0      )

 cart.    s(44) = (  0.0000000  1.0000000  0.0000000 )
                  (  0.0000000  0.0000000  1.0000000 )
                  ( -1.0000000  0.0000000  0.0000000 )


      isym = 45     inv. 120 deg rotation - cart. axis [1,1,1]   

 cryst.   s(45) = (     0         -1          0      )
                  (     0          0         -1      )
                  (    -1          0          0      )

 cart.    s(45) = (  0.0000000  0.0000000 -1.0000000 )
                  ( -1.0000000  0.0000000  0.0000000 )
                  (  0.0000000 -1.0000000  0.0000000 )


      isym = 46     inv. 120 deg rotation - cart. axis [-1,1,-1] 

 cryst.   s(46) = (     0          1          0      )
                  (     0          0          1      )
                  (    -1          0          0      )

 cart.    s(46) = (  0.0000000  0.0000000 -1.0000000 )
                  (  1.0000000  0.0000000  0.0000000 )
                  (  0.0000000  1.0000000  0.0000000 )


      isym = 47     inv. 120 deg rotation - cart. axis [1,-1,-1] 

 cryst.   s(47) = (     0          1          0      )
                  (     0          0         -1      )
                  (     1          0          0      )

 cart.    s(47) = (  0.0000000  0.0000000  1.0000000 )
                  (  1.0000000  0.0000000  0.0000000 )
                  (  0.0000000 -1.0000000  0.0000000 )


      isym = 48     inv. 120 deg rotation - cart. axis [-1,-1,1] 

 cryst.   s(48) = (     0         -1          0      )
                  (     0          0          1      )
                  (     1          0          0      )

 cart.    s(48) = (  0.0000000  0.0000000  1.0000000 )
                  ( -1.0000000  0.0000000  0.0000000 )
                  (  0.0000000  1.0000000  0.0000000 )


   Cartesian axes

     site n.     atom                  positions (alat units)
         1           Ir  tau(   1) = (   0.5000000   0.5000000   0.5000000  )

   Crystallographic axes

     site n.     atom                  positions (cryst. coord.)
         1           Ir  tau(   1) = (  0.5000000  0.5000000  0.5000000  )

     number of k points=     1
                       cart. coord. in units 2pi/alat
        k(    1) = (   0.0000000   0.0000000   0.0000000), wk =   1.0000000

                       cryst. coord.
        k(    1) = (   0.0000000   0.0000000   0.0000000), wk =   1.0000000

     Dense  grid:  8283293 G-vectors     FFT dimensions: ( 320, 320, 320)

     Dynamical RAM for                 wfc:       5.92 MB

     Dynamical RAM for     wfc (w. buffer):      17.77 MB

     Dynamical RAM for           str. fact:       3.95 MB

     Dynamical RAM for           local pot:       0.00 MB

     Dynamical RAM for          nlocal pot:       7.41 MB

     Dynamical RAM for                qrad:       5.07 MB

     Dynamical RAM for          rho,v,vnew:      70.57 MB

     Dynamical RAM for               rhoin:      23.52 MB

     Dynamical RAM for            rho*nmix:     126.39 MB

     Dynamical RAM for           G-vectors:      16.79 MB

     Dynamical RAM for          h,s,v(r/c):       0.00 MB

     Dynamical RAM for          <psi|beta>:       0.00 MB

     Dynamical RAM for                 psi:      23.70 MB

     Dynamical RAM for                hpsi:      23.70 MB

     Dynamical RAM for      wfcinit/wfcrot:      15.81 MB

     Estimated static dynamical RAM per process >     326.25 MB

     Estimated max dynamical RAM per process >     373.65 MB

     Estimated total dynamical RAM >      11.68 GB
     Generating pointlists ...
     new r_m :   0.4125 (alat units)  9.3541 (a.u.) for type    1

     Initial potential from superposition of free atoms

     starting charge   14.48040, renormalised to   17.00000

     negative rho (up, down):  2.806E-03 0.000E+00
     Starting wfcs are   16 randomized atomic wfcs

     total cpu time spent up to now is       11.3 secs

     Self-consistent Calculation

     iteration #  1     ecut=   480.00 Ry     beta= 0.70
     Davidson diagonalization with overlap
     ethr =  1.00E-02,  avg # of iterations = 12.5

     negative rho (up, down):  1.254E-07 4.886E-03

     total cpu time spent up to now is       29.3 secs

     total energy              =    -198.57871407 Ry
     Harris-Foulkes estimate   =    -211.23326534 Ry
     estimated scf accuracy    <      16.14267746 Ry

     total magnetization       =     3.00 Bohr mag/cell
     absolute magnetization    =     6.23 Bohr mag/cell

     iteration #  2     ecut=   480.00 Ry     beta= 0.70
     Davidson diagonalization with overlap
     ethr =  1.00E-02,  avg # of iterations =  7.5

     negative rho (up, down):  2.589E-09 4.704E-03

     total cpu time spent up to now is       43.9 secs

     total energy              =    -209.53115532 Ry
     Harris-Foulkes estimate   =    -215.11067248 Ry
     estimated scf accuracy    <       9.64231604 Ry

     total magnetization       =     3.00 Bohr mag/cell
     absolute magnetization    =     3.01 Bohr mag/cell

     iteration #  3     ecut=   480.00 Ry     beta= 0.70
     Davidson diagonalization with overlap
     ethr =  1.00E-02,  avg # of iterations =  3.0

     negative rho (up, down):  1.901E-09 4.718E-03

     total cpu time spent up to now is       53.8 secs

     total energy              =    -209.46696550 Ry
     Harris-Foulkes estimate   =    -210.11259099 Ry
     estimated scf accuracy    <       1.86361409 Ry

     total magnetization       =     3.00 Bohr mag/cell
     absolute magnetization    =     3.00 Bohr mag/cell

     iteration #  4     ecut=   480.00 Ry     beta= 0.70
     Davidson diagonalization with overlap
     ethr =  1.00E-02,  avg # of iterations =  1.0

     negative rho (up, down):  1.490E-07 5.921E-03

     total cpu time spent up to now is       62.2 secs

     total energy              =    -208.80597725 Ry
     Harris-Foulkes estimate   =    -209.50431793 Ry
     estimated scf accuracy    <       0.91672135 Ry

     total magnetization       =     3.00 Bohr mag/cell
     absolute magnetization    =     3.00 Bohr mag/cell

     iteration #  5     ecut=   480.00 Ry     beta= 0.70
     Davidson diagonalization with overlap
     ethr =  5.39E-03,  avg # of iterations =  3.5

     negative rho (up, down):  7.770E-08 5.304E-03

     total cpu time spent up to now is       72.8 secs

     total energy              =    -209.11982633 Ry
     Harris-Foulkes estimate   =    -209.28052450 Ry
     estimated scf accuracy    <       0.62567289 Ry

     total magnetization       =     3.00 Bohr mag/cell
     absolute magnetization    =     3.05 Bohr mag/cell

     iteration #  6     ecut=   480.00 Ry     beta= 0.70
     Davidson diagonalization with overlap
     ethr =  3.68E-03,  avg # of iterations =  1.0

     negative rho (up, down):  6.772E-08 4.778E-03

     total cpu time spent up to now is       81.2 secs

     total energy              =    -209.05964772 Ry
     Harris-Foulkes estimate   =    -209.14374418 Ry
     estimated scf accuracy    <       0.29716751 Ry

     total magnetization       =     3.00 Bohr mag/cell
     absolute magnetization    =     3.04 Bohr mag/cell

     iteration #  7     ecut=   480.00 Ry     beta= 0.70
     Davidson diagonalization with overlap
     ethr =  1.75E-03,  avg # of iterations =  3.0

     negative rho (up, down):  8.314E-03 1.126E-01

     total cpu time spent up to now is       90.5 secs

     total energy              =    -209.14087551 Ry
     Harris-Foulkes estimate   =    -209.12752050 Ry
     estimated scf accuracy    <       0.04088964 Ry

     total magnetization       =     3.00 Bohr mag/cell
     absolute magnetization    =     3.00 Bohr mag/cell

     iteration #  8     ecut=   480.00 Ry     beta= 0.70
     Davidson diagonalization with overlap
     ethr =  2.41E-04,  avg # of iterations =  4.0

     negative rho (up, down):  6.852E-03 1.230E-01

     total cpu time spent up to now is      101.7 secs

     total energy              =    -209.10819287 Ry
     Harris-Foulkes estimate   =    -209.15530264 Ry
     estimated scf accuracy    <       0.10879250 Ry

     total magnetization       =     3.00 Bohr mag/cell
     absolute magnetization    =     3.00 Bohr mag/cell

     iteration #  9     ecut=   480.00 Ry     beta= 0.70
     Davidson diagonalization with overlap
     ethr =  2.41E-04,  avg # of iterations =  2.0

     negative rho (up, down):  4.623E-03 1.307E-01

     total cpu time spent up to now is      110.7 secs

     total energy              =    -209.12179221 Ry
     Harris-Foulkes estimate   =    -209.12175020 Ry
     estimated scf accuracy    <       0.01513336 Ry

     total magnetization       =     3.00 Bohr mag/cell
     absolute magnetization    =     3.00 Bohr mag/cell

     iteration # 10     ecut=   480.00 Ry     beta= 0.70
     Davidson diagonalization with overlap
     ethr =  8.90E-05,  avg # of iterations =  1.0

     negative rho (up, down):  9.288E-12 4.096E-03

     total cpu time spent up to now is      119.1 secs

     total energy              =    -209.12265797 Ry
     Harris-Foulkes estimate   =    -209.12203287 Ry
     estimated scf accuracy    <       0.01437933 Ry

     total magnetization       =     3.00 Bohr mag/cell
     absolute magnetization    =     3.00 Bohr mag/cell

     iteration # 11     ecut=   480.00 Ry     beta= 0.70
     Davidson diagonalization with overlap
     ethr =  8.46E-05,  avg # of iterations =  1.0

     negative rho (up, down):  6.058E-12 1.894E-03

     total cpu time spent up to now is      127.5 secs

     total energy              =    -209.12473943 Ry
     Harris-Foulkes estimate   =    -209.12343966 Ry
     estimated scf accuracy    <       0.01314628 Ry

     total magnetization       =     3.00 Bohr mag/cell
     absolute magnetization    =     3.00 Bohr mag/cell

     iteration # 12     ecut=   480.00 Ry     beta= 0.70
     Davidson diagonalization with overlap
     ethr =  7.73E-05,  avg # of iterations =  1.0

     negative rho (up, down):  1.367E-12 6.210E-04

     total cpu time spent up to now is      135.8 secs

     total energy              =    -209.12522423 Ry
     Harris-Foulkes estimate   =    -209.12499807 Ry
     estimated scf accuracy    <       0.01411045 Ry

     total magnetization       =     3.00 Bohr mag/cell
     absolute magnetization    =     3.00 Bohr mag/cell

     iteration # 13     ecut=   480.00 Ry     beta= 0.70
     Davidson diagonalization with overlap
     ethr =  7.73E-05,  avg # of iterations =  1.0

     negative rho (up, down):  3.020E-12 7.444E-04

     total cpu time spent up to now is      144.2 secs

     total energy              =    -209.12227157 Ry
     Harris-Foulkes estimate   =    -209.12541425 Ry
     estimated scf accuracy    <       0.01319086 Ry

     total magnetization       =     3.00 Bohr mag/cell
     absolute magnetization    =     3.00 Bohr mag/cell

     iteration # 14     ecut=   480.00 Ry     beta= 0.70
     Davidson diagonalization with overlap
     ethr =  7.73E-05,  avg # of iterations =  1.0

     negative rho (up, down):  5.103E-12 1.280E-03

     total cpu time spent up to now is      152.6 secs

     total energy              =    -209.12271856 Ry
     Harris-Foulkes estimate   =    -209.12300069 Ry
     estimated scf accuracy    <       0.00227718 Ry

     total magnetization       =     3.00 Bohr mag/cell
     absolute magnetization    =     3.00 Bohr mag/cell

     iteration # 15     ecut=   480.00 Ry     beta= 0.70
     Davidson diagonalization with overlap
     ethr =  1.34E-05,  avg # of iterations =  9.0

     negative rho (up, down):  2.417E-04 2.153E-01

     total cpu time spent up to now is      164.3 secs

     total energy              =    -209.12357500 Ry
     Harris-Foulkes estimate   =    -209.12344640 Ry
     estimated scf accuracy    <       0.00276638 Ry

     total magnetization       =     3.00 Bohr mag/cell
     absolute magnetization    =     3.00 Bohr mag/cell

     iteration # 16     ecut=   480.00 Ry     beta= 0.70
     Davidson diagonalization with overlap
     ethr =  1.34E-05,  avg # of iterations =  2.5

     negative rho (up, down):  3.617E-05 1.859E-01

     total cpu time spent up to now is      173.0 secs

     total energy              =    -209.12378965 Ry
     Harris-Foulkes estimate   =    -209.12374708 Ry
     estimated scf accuracy    <       0.00017864 Ry

     total magnetization       =     3.00 Bohr mag/cell
     absolute magnetization    =     3.00 Bohr mag/cell

     iteration # 17     ecut=   480.00 Ry     beta= 0.70
     Davidson diagonalization with overlap
     ethr =  1.05E-06,  avg # of iterations = 11.5

     negative rho (up, down):  3.412E-05 1.737E-01

     total cpu time spent up to now is      186.4 secs

     total energy              =    -209.12362710 Ry
     Harris-Foulkes estimate   =    -209.12394258 Ry
     estimated scf accuracy    <       0.00128757 Ry

     total magnetization       =     3.00 Bohr mag/cell
     absolute magnetization    =     3.01 Bohr mag/cell

     iteration # 18     ecut=   480.00 Ry     beta= 0.70
     Davidson diagonalization with overlap
     ethr =  1.05E-06,  avg # of iterations =  2.5

     negative rho (up, down):  2.014E-11 1.151E-05

     total cpu time spent up to now is      196.1 secs

     total energy              =    -209.12397019 Ry
     Harris-Foulkes estimate   =    -209.12398662 Ry
     estimated scf accuracy    <       0.00076911 Ry

     total magnetization       =     3.00 Bohr mag/cell
     absolute magnetization    =     3.00 Bohr mag/cell

     iteration # 19     ecut=   480.00 Ry     beta= 0.70
     Davidson diagonalization with overlap
     ethr =  1.05E-06,  avg # of iterations =  1.0

     negative rho (up, down):  3.053E-05 1.698E-01

     total cpu time spent up to now is      204.4 secs

     total energy              =    -209.12407686 Ry
     Harris-Foulkes estimate   =    -209.12397478 Ry
     estimated scf accuracy    <       0.00057229 Ry

     total magnetization       =     3.00 Bohr mag/cell
     absolute magnetization    =     3.00 Bohr mag/cell

     iteration # 20     ecut=   480.00 Ry     beta= 0.70
     Davidson diagonalization with overlap
     ethr =  1.05E-06,  avg # of iterations =  1.0

     negative rho (up, down):  5.672E-05 1.855E-01

     total cpu time spent up to now is      212.8 secs

     total energy              =    -209.12411502 Ry
     Harris-Foulkes estimate   =    -209.12409510 Ry
     estimated scf accuracy    <       0.00126081 Ry

     total magnetization       =     3.00 Bohr mag/cell
     absolute magnetization    =     3.00 Bohr mag/cell

     iteration # 21     ecut=   480.00 Ry     beta= 0.70
     Davidson diagonalization with overlap
     ethr =  1.05E-06,  avg # of iterations =  1.0

     negative rho (up, down):  4.849E-05 1.837E-01

     total cpu time spent up to now is      221.1 secs

     total energy              =    -209.12407692 Ry
     Harris-Foulkes estimate   =    -209.12411799 Ry
     estimated scf accuracy    <       0.00132180 Ry

     total magnetization       =     3.00 Bohr mag/cell
     absolute magnetization    =     3.00 Bohr mag/cell

     iteration # 22     ecut=   480.00 Ry     beta= 0.70
     Davidson diagonalization with overlap
     ethr =  1.05E-06,  avg # of iterations =  1.0

     negative rho (up, down):  1.218E-04 2.043E-01

     total cpu time spent up to now is      229.5 secs

     total energy              =    -209.12408065 Ry
     Harris-Foulkes estimate   =    -209.12407983 Ry
     estimated scf accuracy    <       0.00109449 Ry

     total magnetization       =     3.00 Bohr mag/cell
     absolute magnetization    =     3.00 Bohr mag/cell

     iteration # 23     ecut=   480.00 Ry     beta= 0.70
     Davidson diagonalization with overlap
     ethr =  1.05E-06,  avg # of iterations =  1.0

     negative rho (up, down):  1.436E-04 2.073E-01

     total cpu time spent up to now is      237.8 secs

     total energy              =    -209.12401674 Ry
     Harris-Foulkes estimate   =    -209.12408304 Ry
     estimated scf accuracy    <       0.00110317 Ry

     total magnetization       =     3.00 Bohr mag/cell
     absolute magnetization    =     3.00 Bohr mag/cell

     iteration # 24     ecut=   480.00 Ry     beta= 0.70
     Davidson diagonalization with overlap
     ethr =  1.05E-06,  avg # of iterations =  1.0

     negative rho (up, down):  1.276E-04 2.040E-01

     total cpu time spent up to now is      246.1 secs

     total energy              =    -209.12408229 Ry
     Harris-Foulkes estimate   =    -209.12402061 Ry
     estimated scf accuracy    <       0.00097404 Ry

     total magnetization       =     3.00 Bohr mag/cell
     absolute magnetization    =     3.00 Bohr mag/cell

     iteration # 25     ecut=   480.00 Ry     beta= 0.70
     Davidson diagonalization with overlap
     ethr =  1.05E-06,  avg # of iterations =  1.0

     negative rho (up, down):  1.798E-05 1.528E-01

     total cpu time spent up to now is      254.5 secs

     total energy              =    -209.12415007 Ry
     Harris-Foulkes estimate   =    -209.12408538 Ry
     estimated scf accuracy    <       0.00129576 Ry

     total magnetization       =     3.00 Bohr mag/cell
     absolute magnetization    =     3.00 Bohr mag/cell

     iteration # 26     ecut=   480.00 Ry     beta= 0.70
     Davidson diagonalization with overlap
     ethr =  1.05E-06,  avg # of iterations =  1.0

     negative rho (up, down):  6.160E-06 1.221E-01

     total cpu time spent up to now is      262.8 secs

     total energy              =    -209.12352839 Ry
     Harris-Foulkes estimate   =    -209.12415416 Ry
     estimated scf accuracy    <       0.00160255 Ry

     total magnetization       =     3.00 Bohr mag/cell
     absolute magnetization    =     3.00 Bohr mag/cell

     iteration # 27     ecut=   480.00 Ry     beta= 0.70
     Davidson diagonalization with overlap
     ethr =  1.05E-06,  avg # of iterations =  3.0

     negative rho (up, down):  2.379E-06 8.415E-02

     total cpu time spent up to now is      273.1 secs

     total energy              =    -209.12372205 Ry
     Harris-Foulkes estimate   =    -209.12405090 Ry
     estimated scf accuracy    <       0.00153205 Ry

     total magnetization       =     3.00 Bohr mag/cell
     absolute magnetization    =     3.01 Bohr mag/cell

     iteration # 28     ecut=   480.00 Ry     beta= 0.70
     Davidson diagonalization with overlap
     ethr =  1.05E-06,  avg # of iterations =  3.0

     negative rho (up, down):  6.106E-14 4.996E-05

     total cpu time spent up to now is      282.8 secs

     total energy              =    -209.12398115 Ry
     Harris-Foulkes estimate   =    -209.12400305 Ry
     estimated scf accuracy    <       0.00035240 Ry

     total magnetization       =     3.00 Bohr mag/cell
     absolute magnetization    =     3.00 Bohr mag/cell

     iteration # 29     ecut=   480.00 Ry     beta= 0.70
     Davidson diagonalization with overlap
     ethr =  1.05E-06,  avg # of iterations =  1.0

     negative rho (up, down):  2.874E-15 1.984E-06

     total cpu time spent up to now is      291.1 secs

     total energy              =    -209.12398510 Ry
     Harris-Foulkes estimate   =    -209.12398901 Ry
     estimated scf accuracy    <       0.00042454 Ry

     total magnetization       =     3.00 Bohr mag/cell
     absolute magnetization    =     3.00 Bohr mag/cell

     iteration # 30     ecut=   480.00 Ry     beta= 0.70
     Davidson diagonalization with overlap
     ethr =  1.05E-06,  avg # of iterations =  1.0

     negative rho (up, down):  1.883E-05 1.508E-01

     total cpu time spent up to now is      299.5 secs

     total energy              =    -209.12394684 Ry
     Harris-Foulkes estimate   =    -209.12398960 Ry
     estimated scf accuracy    <       0.00029798 Ry

     total magnetization       =     3.00 Bohr mag/cell
     absolute magnetization    =     3.00 Bohr mag/cell

     iteration # 31     ecut=   480.00 Ry     beta= 0.70
     Davidson diagonalization with overlap
     ethr =  1.05E-06,  avg # of iterations =  1.5

     negative rho (up, down):  1.179E-06 6.269E-02

     total cpu time spent up to now is      308.3 secs

     total energy              =    -209.12397168 Ry
     Harris-Foulkes estimate   =    -209.12398741 Ry
     estimated scf accuracy    <       0.00004591 Ry

     total magnetization       =     3.00 Bohr mag/cell
     absolute magnetization    =     3.01 Bohr mag/cell

     iteration # 32     ecut=   480.00 Ry     beta= 0.70
     Davidson diagonalization with overlap
     ethr =  2.70E-07,  avg # of iterations =  2.0

     total cpu time spent up to now is      317.5 secs

     total energy              =    -209.12400650 Ry
     Harris-Foulkes estimate   =    -209.12400694 Ry
     estimated scf accuracy    <       0.00005384 Ry

     total magnetization       =     3.00 Bohr mag/cell
     absolute magnetization    =     3.01 Bohr mag/cell

     iteration # 33     ecut=   480.00 Ry     beta= 0.70
     Davidson diagonalization with overlap
     ethr =  2.70E-07,  avg # of iterations =  2.5

     total cpu time spent up to now is      326.6 secs

     total energy              =    -209.12399150 Ry
     Harris-Foulkes estimate   =    -209.12401654 Ry
     estimated scf accuracy    <       0.00004894 Ry

     total magnetization       =     3.00 Bohr mag/cell
     absolute magnetization    =     3.01 Bohr mag/cell

     iteration # 34     ecut=   480.00 Ry     beta= 0.70
     Davidson diagonalization with overlap
     ethr =  2.70E-07,  avg # of iterations =  3.0

     negative rho (up, down):  5.548E-08 1.050E-02

     total cpu time spent up to now is      336.8 secs

     total energy              =    -209.12402313 Ry
     Harris-Foulkes estimate   =    -209.12402837 Ry
     estimated scf accuracy    <       0.00002068 Ry

     total magnetization       =     3.00 Bohr mag/cell
     absolute magnetization    =     3.01 Bohr mag/cell

     iteration # 35     ecut=   480.00 Ry     beta= 0.70
     Davidson diagonalization with overlap
     ethr =  1.22E-07,  avg # of iterations =  3.0

     total cpu time spent up to now is      346.8 secs

     total energy              =    -209.12402221 Ry
     Harris-Foulkes estimate   =    -209.12403076 Ry
     estimated scf accuracy    <       0.00000154 Ry

     total magnetization       =     3.00 Bohr mag/cell
     absolute magnetization    =     3.01 Bohr mag/cell

     iteration # 36     ecut=   480.00 Ry     beta= 0.70
     Davidson diagonalization with overlap
     ethr =  9.07E-09,  avg # of iterations =  5.0
 
     Magnetic moment per site:
     atom:    1    charge:   16.9998    magn:    3.0000    constr:    0.0000

     total cpu time spent up to now is      357.9 secs

     End of self-consistent calculation

 ------ SPIN UP ------------


          k = 0.0000 0.0000 0.0000 (****** PWs)   bands (ev):

   -96.1672 -53.5447 -53.5420 -53.3959  -6.8698  -6.8692  -6.3068  -6.0432
    -6.0414  -5.5874  -1.0663  -1.0656

     occupation numbers 
     1.0000   1.0000   1.0000   1.0000   1.0000   1.0000   1.0000   1.0000
     1.0000   1.0000   0.0000   0.0000

 ------ SPIN DOWN ----------


          k = 0.0000 0.0000 0.0000 (****** PWs)   bands (ev):

   -94.9118 -52.0447 -52.0430 -51.8410  -4.9864  -4.9862  -4.8079  -4.6400
    -4.0962  -4.0947  -0.4148  -0.2936

     occupation numbers 
     1.0000   1.0000   1.0000   1.0000   1.0000   1.0000   1.0000   0.0000
     0.0000   0.0000   0.0000   0.0000

     highest occupied, lowest unoccupied level (ev):    -4.8079   -4.6400

!    total energy              =    -209.12403113 Ry
     Harris-Foulkes estimate   =    -209.12403129 Ry
     estimated scf accuracy    <       0.00000077 Ry

     The total energy is the sum of the following terms:

     one-electron contribution =    -290.00717408 Ry
     hartree contribution      =     138.15289338 Ry
     xc contribution           =     -21.11023514 Ry
     ewald contribution        =     -36.15951528 Ry

     total magnetization       =     3.00 Bohr mag/cell
     absolute magnetization    =     3.01 Bohr mag/cell

     convergence has been achieved in  36 iterations

     Writing output data file pwscf.save/
 
     init_run     :     10.77s CPU     11.21s WALL (       1 calls)
     electrons    :    341.93s CPU    347.56s WALL (       1 calls)

     Called by init_run:
     wfcinit      :      2.17s CPU      2.27s WALL (       1 calls)
     wfcinit:atom :      0.02s CPU      0.05s WALL (       2 calls)
     wfcinit:wfcr :      2.08s CPU      2.13s WALL (       2 calls)
     potinit      :      2.60s CPU      2.76s WALL (       1 calls)
     hinit0       :      0.24s CPU      0.34s WALL (       1 calls)

     Called by electrons:
     c_bands      :    167.82s CPU    169.93s WALL (      36 calls)
     sum_band     :     54.64s CPU     54.76s WALL (      36 calls)
     v_of_rho     :     85.82s CPU     88.35s WALL (      37 calls)
     v_h          :      6.51s CPU      6.59s WALL (      37 calls)
     v_xc         :     79.31s CPU     81.77s WALL (      37 calls)
     mix_rho      :     32.84s CPU     33.13s WALL (      36 calls)

     Called by c_bands:
     init_us_2    :      1.85s CPU      1.85s WALL (     146 calls)
     regterg      :    164.03s CPU    166.10s WALL (      72 calls)

     Called by sum_band:

     Called by *egterg:
     h_psi        :    150.07s CPU    150.36s WALL (     276 calls)
     g_psi        :      0.52s CPU      0.52s WALL (     202 calls)
     rdiaghg      :      0.28s CPU      0.29s WALL (     274 calls)
     regterg:over :      3.38s CPU      3.38s WALL (     202 calls)
     regterg:upda :      6.80s CPU      6.85s WALL (     202 calls)
     regterg:last :      2.13s CPU      2.13s WALL (      80 calls)
     rdiaghg:chol :      0.04s CPU      0.04s WALL (     274 calls)
     rdiaghg:inve :      0.01s CPU      0.01s WALL (     274 calls)
     rdiaghg:para :      0.03s CPU      0.03s WALL (     548 calls)

     Called by h_psi:
     h_psi:pot    :    149.02s CPU    149.30s WALL (     276 calls)
     h_psi:calbec :      0.93s CPU      0.94s WALL (     276 calls)
     vloc_psi     :    146.63s CPU    146.90s WALL (     276 calls)
     add_vuspsi   :      1.45s CPU      1.46s WALL (     276 calls)

     General routines
     calbec       :      0.93s CPU      0.94s WALL (     276 calls)
     fft          :     75.15s CPU     75.74s WALL (     551 calls)
     ffts         :      7.97s CPU      7.99s WALL (      72 calls)
     fftw         :    142.79s CPU    143.11s WALL (    2846 calls)
 
     Parallel routines
     fft_scatt_xy :     40.77s CPU     40.82s WALL (    3469 calls)
     fft_scatt_yz :     80.94s CPU     81.59s WALL (    3469 calls)
 
     PWSCF        :   5m53.34s CPU   6m 0.82s WALL

 
   This run was terminated on:  13:57:13  17Jan2022            

=------------------------------------------------------------------------------=
   JOB DONE.
=------------------------------------------------------------------------------=
