
 Primary working directories    : /global/cscratch1/sd/gwang18
 Secondary working directories  : /global/cscratch1/sd/gwang18
 Wavefunction directory         : /global/homes/g/gwang18/wfu/
 Main file repository           : /global/cscratch1/sd/gwang18/

 SHA1      : 19cd028119e0e09f93f0674bd8af7968d9b3eff6
 NAME      : 2015.1.36
 ARCHNAME  : linux/x86_64
 FC        : /opt/cray/pe/craype/2.5.14/bin/ftn
 BLASLIB   : -L/opt/intel/compilers_and_libraries_2018.1.163/linux/mkl/lib/intel64 -Wl,-_start-group -lmkl_intel_ilp64 -lmkl_intel_thread -lmkl_core -Wl,-_end-group -liomp5
 id        : lbl

 Nodes     nprocs
 nid00026    15
 Number of processes for MPI-2 version of Molpro:   nprocs(total)=   16   nprocs(compute)=   15   nprocs(helper)=    1

 Using customized tuning parameters: mindgm=7; mindgv=16; mindgc=1; mindgr=1; noblas=0; minvec=7
 default implementation of scratch files=sf  

 ***,Calculation for Ag atom, singlet and triplet
 memory,512,m
 GTHRESH,THROVL=1.0D-9
 geometry={
 1
 I
 I  0.0 0.0 0.0
 }
 
 basis={
 Including file /global/u2/g/gwang18/projects/cc-so-ecp/i/arep/atom/ae/dkh/basis/test-state/aug-cc-pwCVQZ.basis
 }
 
 set,dkroll=1,dkho=10,dkhp=4
 
 Including file /global/u2/g/gwang18/projects/cc-so-ecp/i/arep/atom/ae/dkh/basis/test-state/states.proc
 
 do i=1,2
 if (i.eq.1) then
     Is25p5
 else if (i.eq.2) then
     IVs25p2
 endif
     scf(i)=energy
     _CC_NORM_MAX=2.0
     {rccsd(t),maxit=100;core}
     ccsd(i)=energy
 enddo
 
 table,scf,ccsd
 type,csv
 save

 Variables initialized (889), CPU time= 0.01 sec
 Commands  initialized (702), CPU time= 0.01 sec, 572 directives.
 Default parameters read. Elapsed time= 0.15 sec

 Checking input...
 Passed
1


                                         ***  PROGRAM SYSTEM MOLPRO  ***
                                       Copyright, TTI GmbH Stuttgart, 2015
                                    Version 2015.1 linked Dec 29 2018 15:55:43


 **********************************************************************************************************************************
 LABEL *   Calculation for Ag atom, singlet and triplet                                  
  64 bit mpp version                                                                     DATE: 06-Mar-21          TIME: 09:31:50  
 **********************************************************************************************************************************

 SHA1:             19cd028119e0e09f93f0674bd8af7968d9b3eff6
 **********************************************************************************************************************************

 THRESHOLDS:

 ZERO    =  1.00D-12  ONEINT  =  1.00D-12  TWOINT  =  1.00D-11  PREFAC  =  1.00D-14  LOCALI  =  1.00D-09  EORDER  =  1.00D-04
 ENERGY  =  0.00D+00  ETEST   =  0.00D+00  EDENS   =  0.00D+00  THRDEDEF=  1.00D-06  GRADIENT=  1.00D-02  STEP    =  1.00D-03
 ORBITAL =  1.00D-05  CIVEC   =  1.00D-05  COEFF   =  1.00D-04  PRINTCI =  5.00D-02  PUNCHCI =  9.90D+01  OPTGRAD =  3.00D-04
 OPTENERG=  1.00D-06  OPTSTEP =  3.00D-04  THRGRAD =  1.00D-10  COMPRESS=  1.00D-11  VARMIN  =  1.00D-07  VARMAX  =  1.00D-03
 THRDOUB =  0.00D+00  THRDIV  =  1.00D-05  THRRED  =  1.00D-07  THRPSP  =  1.00D+00  THRDC   =  1.00D-10  THRCS   =  1.00D-10
 THRNRM  =  1.00D-08  THREQ   =  0.00D+00  THRDE   =  1.00D+00  THRREF  =  1.00D-05  SPARFAC =  1.00D+00  THRDLP  =  1.00D-07
 THRDIA  =  1.00D-10  THRDLS  =  1.00D-07  THRGPS  =  0.00D+00  THRKEX  =  0.00D+00  THRDIS  =  2.00D-01  THRVAR  =  1.00D-10
 THRLOC  =  1.00D-06  THRGAP  =  1.00D-06  THRLOCT = -1.00D+00  THRGAPT = -1.00D+00  THRORB  =  1.00D-06  THRMLTP =  0.00D+00
 THRCPQCI=  1.00D-10  KEXTA   =  0.00D+00  THRCOARS=  0.00D+00  SYMTOL  =  1.00D-06  GRADTOL =  1.00D-06  THROVL  =  1.00D-09
 THRORTH =  1.00D-08  GRID    =  1.00D-06  GRIDMAX =  1.00D-03  DTMAX   =  0.00D+00  THROCCDE=  1.00D-01  THROCCDE=  1.00D-01



Geometry recognized as XYZ


 Variable memory set to  512000000 words,  buffer space   230000 words

 SETTING BASIS          =    USERDEF
 SETTING DKROLL         =         1.00000000                                  
 SETTING DKHO           =        10.00000000                                  
 SETTING DKHP           =         4.00000000                                  

 DO I                   =         1.00000000   

 Running procedure=IS25P5


 Recomputing integrals since basis changed


 Using spherical harmonics



 PROGRAM * SEWARD (Integral evaluation for generally contracted gaussian basis sets)     Author: Roland Lindh, 1990

 Geometry written to block  1 of record 700

 Orientation using atomic masses  
 Molecule type: Atom
 Symmetry elements: X,Y,Z
 Rotational constants:       0.0000000      0.0000000      0.0000000 GHz  (calculated with average atomic masses)

 Point group  D2h 



 ATOMIC COORDINATES

 NR  ATOM    CHARGE       X              Y              Z

   1  I      53.00    0.000000000    0.000000000    0.000000000

 NUCLEAR CHARGE:                   53
 NUMBER OF PRIMITIVE AOS:         358
 NUMBER OF SYMMETRY AOS:          288
 NUMBER OF CONTRACTIONS:          288   (  79Ag  +  41B3u +  41B2u +  26B1g +  41B1u +  26B2g +  26B3g +   8Au  )
 NUMBER OF CORE ORBITALS:          23   (   8Ag  +   3B3u +   3B2u +   2B1g +   3B1u +   2B2g +   2B3g +   0Au  )
 NUMBER OF VALENCE ORBITALS:        4   (   1Ag  +   1B3u +   1B2u +   0B1g +   1B1u +   0B2g +   0B3g +   0Au  )


 NUCLEAR REPULSION ENERGY    0.00000000

 One-electron integrals computed with SEWARD

 10nd-order Douglas-Kroll-Hess method activated. McWeeny DKH parametrization is used.

 Computing Douglas-Kroll / X2C integrals

 AO integral compression algorithm  1   Integral accuracy      1.0D-11

     472.383 MB (compressed) written to integral file ( 29.7%)

     Node minimum: 9.175 MB, node maximum: 64.750 MB


 NUMBER OF SORTED TWO-ELECTRON INTEGRALS:    7512510.     BUFFER LENGTH:  32768
 NUMBER OF SEGMENTS:   1  SEGMENT LENGTH:    7512510      RECORD LENGTH: 524288

 Memory used in sort:       8.07 MW

 SORT1 READ   199097776. AND WROTE     3888638. INTEGRALS IN     12 RECORDS. CPU TIME:     5.26 SEC, REAL TIME:     5.47 SEC
 SORT2 READ    57200475. AND WROTE   112618036. INTEGRALS IN   3705 RECORDS. CPU TIME:     0.37 SEC, REAL TIME:     1.48 SEC

 Node minimum:     7424621.  Node maximum:     7578411. integrals

 OPERATOR DM      FOR CENTER  0  COORDINATES:    0.000000    0.000000    0.000000

 EXTRA SYMMETRY OF AOS IN SYMMETRY 1:   1 1 1 1 1 1 1 1 1 1   1 1 1 1 1 1 1 1 1 1   1 1 1 1 1 1 1 1 1 1   1 2 3 2 3 2 3 2 3 2
                                        3 2 3 2 3 2 3 2 3 2   3 2 3 2 3 2 3 2 3 2   3 2 3 2 3 2 3 4 5 6   4 5 6 4 5 6 4 5 6
 EXTRA SYMMETRY OF AOS IN SYMMETRY 2:   1 1 1 1 1 1 1 1 1 1   1 1 1 1 1 1 1 1 1 1   1 1 1 1 1 1 2 3 2 3   2 3 2 3 2 3 2 3 4 5
                                        6
 EXTRA SYMMETRY OF AOS IN SYMMETRY 3:   1 1 1 1 1 1 1 1 1 1   1 1 1 1 1 1 1 1 1 1   1 1 1 1 1 1 2 3 2 3   2 3 2 3 2 3 2 3 4 5
                                        6
 EXTRA SYMMETRY OF AOS IN SYMMETRY 4:   1 1 1 1 1 1 1 1 1 1   1 1 1 1 1 1 1 1 2 3   2 3 2 3 2 3
 EXTRA SYMMETRY OF AOS IN SYMMETRY 5:   1 1 1 1 1 1 1 1 1 1   1 1 1 1 1 1 1 1 1 1   1 1 1 1 1 1 2 3 2 3   2 3 2 3 2 3 2 3 4 5
                                        6
 EXTRA SYMMETRY OF AOS IN SYMMETRY 6:   1 1 1 1 1 1 1 1 1 1   1 1 1 1 1 1 1 1 2 3   2 3 2 3 2 3
 EXTRA SYMMETRY OF AOS IN SYMMETRY 7:   1 1 1 1 1 1 1 1 1 1   1 1 1 1 1 1 1 1 2 3   2 3 2 3 2 3
 EXTRA SYMMETRY OF AOS IN SYMMETRY 8:   1 1 1 1 1 1 2 3

 Eigenvalues of metric

         1 0.119E-04 0.611E-04 0.147E-03 0.242E-03 0.405E-03 0.488E-03 0.488E-03 0.728E-03
         2 0.446E-06 0.111E-04 0.204E-03 0.806E-03 0.229E-02 0.442E-02 0.911E-02 0.171E-01
         3 0.446E-06 0.111E-04 0.204E-03 0.806E-03 0.229E-02 0.442E-02 0.911E-02 0.171E-01
         4 0.488E-03 0.183E-02 0.499E-02 0.120E-01 0.257E-01 0.505E-01 0.923E-01 0.158E+00
         5 0.446E-06 0.111E-04 0.204E-03 0.806E-03 0.229E-02 0.442E-02 0.911E-02 0.171E-01
         6 0.488E-03 0.183E-02 0.499E-02 0.120E-01 0.257E-01 0.505E-01 0.923E-01 0.158E+00
         7 0.488E-03 0.183E-02 0.499E-02 0.120E-01 0.257E-01 0.505E-01 0.923E-01 0.158E+00
         8 0.493E-01 0.133E+00 0.396E+00 0.943E+00 0.100E+01 0.100E+01 0.185E+01 0.263E+01


 **********************************************************************************************************************************
 DATASETS  * FILE   NREC   LENGTH (MB)   RECORD NAMES
              1      22       20.89       500      610      700      900      950      970     1000      129      960     1700   
                                          VAR    BASINP    GEOM    SYMINP    ZMAT    AOBASIS   BASIS     P2S    ABASIS    OPER   
                                         1101     1401     1411     1412     1650     1100     1400     1410     1200     1210   
                                          SR      EKINR    POTR     PVPR    MOLCAS      S      EKIN      POT      H0       H01  
                                         1080     1600   
                                         AOSYM     SMH  

 PROGRAMS   *        TOTAL       INT
 CPU TIMES  *        44.31     44.04
 REAL TIME  *        49.04 SEC
 DISK USED  *         1.17 GB      
 GA USED    *         0.00 MB       (max)       0.00 MB       (current)
 **********************************************************************************************************************************


 PROGRAM * RHF-SCF (OPEN SHELL)       Authors: W. Meyer, H.-J. Werner


 NUMBER OF ELECTRONS:      27+   26-    SPACE SYMMETRY=5    SPIN SYMMETRY: Doublet 
 CONVERGENCE THRESHOLDS:    1.00E-05 (Density)    1.06E-07 (Energy)
 MAX. NUMBER OF ITERATIONS:       60
 INTERPOLATION TYPE:            DIIS
 INTERPOLATION STEPS:              2 (START)      1 (STEP)
 LEVEL SHIFTS:                 -0.60 (CLOSED) -0.30 (OPEN) 

 Number of closed-shell orbitals:   26 (   9   4   4   2   3   2   2   0 )
 Number of open-shell orbitals:      1 (   0   0   0   0   1   0   0   0 )


 Orbital guess generated from atomic densities. Full valence occupancy:    9   4   4   2   4   2   2   0


 Molecular orbital dump at record        4202.2

 ITERATION    DDIFF          GRAD             ENERGY        2-EL.EN.            DIPOLE MOMENTS         DIIS   ORB.
    1      0.000D+00      0.000D+00     -7110.29916435   5117.410400    0.00000    0.00000    0.00000    0    start
    2      0.000D+00      0.278D-01     -7112.60230820   5304.640382    0.00000    0.00000    0.00000    1    diag,B
    3      0.285D+00      0.181D-01     -7112.76294992   5278.833466    0.00000    0.00000    0.00000    2    diag,B
    4      0.146D-01      0.500D-02     -7112.83705274   5275.302701    0.00000    0.00000    0.00000    3    diag,B
    5      0.120D-01      0.259D-02     -7112.86552797   5276.613962    0.00000    0.00000    0.00000    4    diag,B
    6      0.661D-02      0.117D-02     -7112.87173585   5277.668639    0.00000    0.00000    0.00000    5    diag,B
    7      0.289D-02      0.509D-03     -7112.87293516   5278.648529    0.00000    0.00000    0.00000    6    fixocc
    8      0.162D-02      0.148D-03     -7112.87306531   5279.035432    0.00000    0.00000    0.00000    7    diag,B
    9      0.630D-03      0.375D-04     -7112.87307344   5279.107679    0.00000    0.00000    0.00000    8    diag,B
   10      0.108D-03      0.114D-04     -7112.87307411   5279.108163    0.00000    0.00000    0.00000    9    orth
   11      0.116D-03      0.242D-05     -7112.87307415   5279.109278    0.00000    0.00000    0.00000    9    diag,B
   12      0.250D-04      0.503D-06     -7112.87307415   5279.109056    0.00000    0.00000    0.00000    9    diag,B
   13      0.431D-05      0.115D-06     -7112.87307415   5279.109163    0.00000    0.00000    0.00000    0    orth

 Final alpha occupancy:   9   4   4   2   4   2   2   0
 Final beta  occupancy:   9   4   4   2   3   2   2   0

 !RHF STATE 1.5 Energy              -7112.873074149884
 Nuclear energy                         0.00000000
 One-electron energy                -9752.42765541
 Two-electron energy                 2639.55458126
 Virial quotient                       -0.84967831
 !RHF STATE 1.5 Dipole moment           0.00000000     0.00000000     0.00000000
 Dipole moment /Debye                   0.00000000     0.00000000     0.00000000

 ELECTRON ORBITALS
 =================


   Orb  Occ    Energy  Couls-En    Coefficients

                                   1 1s      1 1s      1 1s      1 1s      1 1s      1 1s      1 1s      1 1s      1 1s      1 1s   
                                   1 1s      1 1s      1 1s      1 1s      1 1s      1 1s      1 1s      1 1s      1 1s      1 1s   
                                   1 1s      1 1s      1 1s      1 1s      1 1s      1 1s      1 1s      1 1s      1 1s      1 1s   
                                   1 1s      1 3d0     1 3d2+    1 3d0     1 3d2+    1 3d0     1 3d2+    1 3d0     1 3d2+    1 3d0  
                                   1 3d2+    1 3d0     1 3d2+    1 3d0     1 3d2+    1 3d0     1 3d2+    1 3d0     1 3d2+    1 3d0  
                                   1 3d2+    1 3d0     1 3d2+    1 3d0     1 3d2+    1 3d0     1 3d2+    1 3d0     1 3d2+    1 3d0  
                                   1 3d2+    1 3d0     1 3d2+    1 3d0     1 3d2+    1 3d0     1 3d2+    1 5g0     1 5g4+    1 5g2+ 
                                   1 5g0     1 5g4+    1 5g2+    1 5g0     1 5g4+    1 5g2+    1 5g0     1 5g4+    1 5g2+ 

   1.1   2 -1224.9794-2686.1180  0.000038  0.000102  0.000255  0.000513  0.000945  0.001620  0.002743  0.004640  0.008051  0.014345
                                 0.026403  0.049716  0.093777  0.168199  0.260898  0.297736  0.196469  0.053011  0.004184 -0.000104
                                 0.000304 -0.000320  0.000158 -0.000094  0.000053 -0.000026  0.000019 -0.000013  0.000005 -0.000002
                                 0.000000  0.000000  0.000000  0.000000 -0.000000  0.000000  0.000000  0.000000 -0.000000 -0.000000
                                -0.000000 -0.000000  0.000000  0.000000 -0.000000  0.000000  0.000000  0.000000 -0.000000  0.000000
                                 0.000000 -0.000000 -0.000000 -0.000000  0.000000 -0.000000 -0.000000  0.000000  0.000000  0.000000
                                -0.000000  0.000000  0.000000  0.000000 -0.000000  0.000000  0.000000 -0.000000 -0.000000 -0.000000
                                -0.000000 -0.000000 -0.000000 -0.000000  0.000000 -0.000000  0.000000 -0.000000  0.000000

   2.1   2  -192.9236 -559.1819 -0.000013 -0.000035 -0.000089 -0.000178 -0.000329 -0.000565 -0.000959 -0.001629 -0.002844 -0.005112
                                -0.009545 -0.018389 -0.036080 -0.069382 -0.122220 -0.172451 -0.137594  0.082624  0.400052  0.446651
                                 0.206923  0.036339  0.002091  0.000200 -0.000267  0.000001 -0.000036  0.000028 -0.000007  0.000003
                                -0.000001  0.000000 -0.000000 -0.000000  0.000000 -0.000000 -0.000000 -0.000000  0.000000  0.000000
                                -0.000000  0.000001  0.000000  0.000006 -0.000000  0.000005 -0.000000 -0.000001 -0.000000  0.000001
                                -0.000000  0.000001 -0.000000  0.000001 -0.000000  0.000000 -0.000000 -0.000000 -0.000000 -0.000000
                                -0.000000 -0.000000 -0.000000 -0.000000  0.000000 -0.000000 -0.000000  0.000000 -0.000000  0.000000
                                 0.000000 -0.000000 -0.000000  0.000000  0.000000  0.000000 -0.000000 -0.000000 -0.000000

   3.1   2   -40.5098 -193.9519  0.000006  0.000016  0.000040  0.000080  0.000147  0.000253  0.000429  0.000730  0.001275  0.002297
                                 0.004295  0.008308  0.016387  0.031877  0.057238  0.083865  0.069897 -0.053596 -0.309161 -0.454487
                                -0.212177  0.372311  0.699750  0.296720  0.023947  0.001938 -0.000241  0.000217 -0.000134  0.000033
                                -0.000008  0.000000  0.000000  0.000000 -0.000000  0.000000 -0.000000  0.000001 -0.000000  0.000002
                                -0.000000  0.000007 -0.000000  0.000011 -0.000000  0.000029 -0.000000  0.000035 -0.000000  0.000098
                                -0.000000  0.000109 -0.000000 -0.000002 -0.000000  0.000004 -0.000000  0.000008 -0.000000  0.000009
                                -0.000000  0.000004 -0.000000  0.000001  0.000000  0.000000 -0.000000 -0.000000 -0.000000 -0.000000
                                -0.000000 -0.000000 -0.000000 -0.000000 -0.000000  0.000000 -0.000000  0.000000 -0.000000

   4.1   2   -23.9313 -167.0045 -0.000000 -0.000000 -0.000000 -0.000000 -0.000000 -0.000000 -0.000000 -0.000000 -0.000000 -0.000001
                                -0.000001 -0.000003 -0.000005 -0.000010 -0.000017 -0.000026 -0.000021  0.000014  0.000108  0.000144
                                 0.000114 -0.000303 -0.000210  0.000068 -0.000029  0.000034  0.000014  0.000020  0.000008  0.000002
                                -0.000000  0.000017 -0.000000  0.000128 -0.000000  0.000765 -0.000000  0.003529 -0.000000  0.013182
                                -0.000000  0.039558 -0.000000  0.098171 -0.000000  0.192906 -0.000000  0.286779 -0.000000  0.312528
                                -0.000000  0.208356 -0.000000  0.069316 -0.000000  0.008292 -0.000000  0.000428 -0.000000 -0.000061
                                 0.000000  0.000007  0.000000 -0.000013  0.000000  0.000002 -0.000000  0.000060  0.000000 -0.000000
                                -0.000011  0.000000  0.000000  0.000008  0.000000 -0.000000 -0.000004  0.000000 -0.000000

   5.1   2   -23.9255 -167.0029 -0.000000  0.000000 -0.000000 -0.000000 -0.000000 -0.000000 -0.000000 -0.000000 -0.000000 -0.000000
                                -0.000000 -0.000000 -0.000000 -0.000000 -0.000000 -0.000000 -0.000000  0.000000  0.000000  0.000000
                                 0.000000 -0.000000 -0.000000  0.000000 -0.000000 -0.000000  0.000000  0.000000  0.000000  0.000000
                                 0.000000  0.000000  0.000017  0.000000  0.000128  0.000000  0.000765  0.000000  0.003529  0.000000
                                 0.013184  0.000000  0.039561  0.000000  0.098182  0.000000  0.192924  0.000000  0.286820  0.000000
                                 0.312531  0.000000  0.208284  0.000000  0.069319  0.000000  0.008276  0.000000  0.000412 -0.000000
                                -0.000074  0.000000  0.000000 -0.000000 -0.000015  0.000000  0.000002  0.000000 -0.000000  0.000039
                                -0.000000  0.000000 -0.000007  0.000000 -0.000000  0.000005 -0.000000  0.000000 -0.000003

   6.1   2    -7.7578  -80.8542 -0.000003 -0.000007 -0.000018 -0.000036 -0.000066 -0.000114 -0.000194 -0.000329 -0.000576 -0.001037
                                -0.001940 -0.003755 -0.007416 -0.014456 -0.026078 -0.038485 -0.032470  0.026156  0.156966  0.245855
                                 0.120901 -0.261615 -0.774297 -0.311202  0.711844  0.694813  0.103901 -0.018089  0.004851 -0.001057
                                 0.000213 -0.000000  0.000000 -0.000000  0.000000 -0.000000  0.000000 -0.000002  0.000000 -0.000008
                                 0.000000 -0.000028  0.000000 -0.000061  0.000000 -0.000138  0.000000 -0.000167  0.000000 -0.000224
                                 0.000000 -0.000058  0.000000  0.000115 -0.000000  0.000564 -0.000000  0.001348 -0.000000  0.000135
                                -0.000000 -0.000088 -0.000000 -0.000025  0.000000 -0.000002 -0.000000 -0.000001  0.000000 -0.000000
                                 0.000000 -0.000000 -0.000000  0.000001  0.000000  0.000000 -0.000000 -0.000000 -0.000000

   7.1   2    -2.3110  -61.8263  0.000000  0.000000  0.000000  0.000000  0.000000  0.000000  0.000001  0.000001  0.000003  0.000005
                                 0.000008  0.000016  0.000032  0.000064  0.000113  0.000171  0.000135 -0.000097 -0.000744 -0.001004
                                -0.000771  0.001601  0.003578  0.002046 -0.006202 -0.005768  0.007520  0.001321 -0.001514 -0.000723
                                 0.000017 -0.000007  0.000000 -0.000052  0.000000 -0.000315  0.000000 -0.001457  0.000000 -0.005468
                                 0.000000 -0.016544  0.000000 -0.041605  0.000000 -0.082444  0.000000 -0.119293  0.000000 -0.118706
                                 0.000000 -0.000061 -0.000000  0.226339 -0.000000  0.385238 -0.000000  0.345052 -0.000000  0.163560
                                -0.000000  0.033509 -0.000000  0.002129 -0.000000  0.000076  0.000000  0.000379 -0.000000 -0.000000
                                 0.001615  0.000000  0.000000  0.000813 -0.000000  0.000000 -0.000204  0.000000  0.000000

   8.1   2    -2.2946  -61.8383  0.000000 -0.000000  0.000000 -0.000000  0.000000 -0.000000  0.000000 -0.000000  0.000000 -0.000000
                                 0.000000 -0.000000  0.000000 -0.000000  0.000000 -0.000000  0.000000 -0.000000  0.000000 -0.000000
                                 0.000000 -0.000000  0.000000 -0.000000  0.000000 -0.000000  0.000000 -0.000000 -0.000000 -0.000000
                                -0.000000 -0.000000 -0.000007 -0.000000 -0.000053 -0.000000 -0.000315 -0.000000 -0.001459 -0.000000
                                -0.005474 -0.000000 -0.016563 -0.000000 -0.041652 -0.000000 -0.082540 -0.000000 -0.119428 -0.000000
                                -0.118857 -0.000000  0.000102  0.000000  0.226790  0.000000  0.386149  0.000000  0.344015  0.000000
                                 0.162204  0.000000  0.034825  0.000000  0.002868  0.000000  0.000118  0.000000 -0.000000  0.000246
                                 0.000000 -0.000000  0.001045  0.000000 -0.000000  0.000522 -0.000000  0.000000 -0.000130

   9.1   2    -0.8764  -30.8715  0.000001  0.000002  0.000006  0.000012  0.000023  0.000039  0.000067  0.000114  0.000199  0.000359
                                 0.000671  0.001298  0.002566  0.005003  0.009037  0.013348  0.011302 -0.009206 -0.055537 -0.088187
                                -0.044207  0.099407  0.324079  0.119182 -0.385628 -0.586038 -0.094225  0.596823  0.610472  0.146737
                                 0.000567  0.000000  0.000000  0.000000 -0.000000  0.000000 -0.000000  0.000001 -0.000000  0.000003
                                -0.000000  0.000008 -0.000000  0.000022 -0.000000  0.000037 -0.000000  0.000062 -0.000000  0.000033
                                -0.000000  0.000043 -0.000000 -0.000157  0.000000  0.000383  0.000000 -0.000940  0.000000 -0.000165
                                -0.000000 -0.000973  0.000000 -0.005512 -0.000000 -0.001446  0.000000  0.000001 -0.000000  0.000000
                                 0.000003  0.000000  0.000000  0.000010 -0.000000  0.000000 -0.000030  0.000000  0.000000

  10.1   0     0.0539   -9.2024 -0.000000 -0.000001 -0.000001 -0.000003 -0.000005 -0.000009 -0.000014 -0.000025 -0.000041 -0.000082
                                -0.000136 -0.000301 -0.000511 -0.001184 -0.001716 -0.003474 -0.000981 -0.001658  0.020806 -0.000261
                                 0.047509 -0.085102  0.019605 -0.144692  0.259391 -0.124752  0.726940 -1.281883  1.174686 -2.018532
                                 2.044845  0.000000 -0.000000  0.000000 -0.000000  0.000000  0.000000  0.000004 -0.000000  0.000002
                                 0.000000  0.000046 -0.000000  0.000013  0.000000  0.000260 -0.000000 -0.000088  0.000000  0.000733
                                -0.000000 -0.001003  0.000000  0.001298 -0.000000 -0.003554  0.000000  0.004532 -0.000000 -0.008601
                                 0.000000  0.009563 -0.000000 -0.011822  0.000000  0.063503 -0.000000 -0.000004 -0.000000 -0.000000
                                 0.000019  0.000000 -0.000000 -0.000152 -0.000000 -0.000000  0.000809  0.000000 -0.000000

  11.1   0     0.1528  -11.1760 -0.000000 -0.000000 -0.000000 -0.000000 -0.000000 -0.000000 -0.000000 -0.000000 -0.000001 -0.000001
                                -0.000005 -0.000003 -0.000022 -0.000007 -0.000093  0.000040 -0.000338  0.000741 -0.001365  0.004153
                                -0.006946  0.011480 -0.019151  0.021964 -0.030675  0.056478 -0.136170  0.201178 -0.278153  0.343265
                                -0.198268  0.000000  0.000000  0.000006  0.000000  0.000022  0.000000  0.000170  0.000000  0.000389
                                 0.000000  0.001931  0.000000  0.002880  0.000000  0.010195  0.000000  0.005863  0.000000  0.021453
                                 0.000000 -0.019759 -0.000000  0.007712 -0.000000 -0.093583 -0.000000  0.053199 -0.000000 -0.145231
                                -0.000000  0.304055  0.000000 -0.274015 -0.000000  1.106923  0.000000 -0.000092  0.000000 -0.000000
                                 0.000495 -0.000000 -0.000000 -0.000725  0.000000 -0.000000  0.013290 -0.000000  0.000000

                                   1 2px     1 2px     1 2px     1 2px     1 2px     1 2px     1 2px     1 2px     1 2px     1 2px  
                                   1 2px     1 2px     1 2px     1 2px     1 2px     1 2px     1 2px     1 2px     1 2px     1 2px  
                                   1 2px     1 2px     1 2px     1 2px     1 2px     1 2px     1 4f1+    1 4f3+    1 4f1+    1 4f3+ 
                                   1 4f1+    1 4f3+    1 4f1+    1 4f3+    1 4f1+    1 4f3+    1 4f1+    1 4f3+    1 6h1+    1 6h3+ 
                                   1 6h5+ 

   1.2   2  -173.0125 -528.6489  0.000008  0.000025  0.000082  0.000248  0.000747  0.002248  0.006757  0.019688  0.053245  0.125509
                                 0.238069  0.329436  0.279029  0.117209  0.019058  0.000155 -0.002059 -0.001377  0.000053 -0.000026
                                 0.000009 -0.000003  0.000001 -0.000000  0.002123  0.001742  0.000002  0.000000 -0.000001 -0.000000
                                 0.000001  0.000000 -0.000001 -0.000000  0.000000  0.000000 -0.000000 -0.000000  0.000000 -0.000000
                                -0.000000

   2.2   2   -33.8846 -182.2354 -0.000004 -0.000012 -0.000039 -0.000117 -0.000352 -0.001064 -0.003216 -0.009478 -0.026111 -0.063689
                                -0.126366 -0.184583 -0.129480  0.118127  0.422133  0.451877  0.196130  0.049120 -0.001574  0.000726
                                -0.000281  0.000106 -0.000043  0.000012 -0.045109 -0.046715  0.000097 -0.000000 -0.000036  0.000000
                                 0.000032 -0.000000 -0.000013  0.000000  0.000009 -0.000000 -0.000004  0.000000 -0.000000 -0.000000
                                -0.000000

   3.2   2    -5.5810  -74.0391  0.000002  0.000005  0.000017  0.000051  0.000154  0.000467  0.001409  0.004170  0.011509  0.028331
                                 0.056583  0.084166  0.054343 -0.078369 -0.279006 -0.317990  0.128301  0.573777  0.434553  0.085886
                                 0.000972  0.001496 -0.000429  0.000118 -0.005139 -0.011252  0.000161  0.000000  0.000422  0.000000
                                 0.001002 -0.000000  0.000077  0.000000 -0.000077 -0.000000  0.000007  0.000000  0.000000 -0.000000
                                -0.000000

   4.2   2    -0.3915  -25.1274 -0.000000 -0.000001 -0.000005 -0.000015 -0.000045 -0.000136 -0.000411 -0.001217 -0.003363 -0.008286
                                -0.016585 -0.024706 -0.015783  0.024533  0.086900  0.104336 -0.037733 -0.201287 -0.219172  0.118306
                                 0.462369  0.463300  0.150194  0.001981 -0.015761 -0.033825  0.000320 -0.000000  0.000551 -0.000000
                                 0.000629 -0.000000  0.003788  0.000000  0.005662  0.000000  0.002583 -0.000000  0.000014  0.000000
                                -0.000000

   5.2   0     0.0609   -6.8917  0.000000  0.000000  0.000001  0.000003  0.000007  0.000024  0.000065  0.000224  0.000516  0.001573
                                 0.002360  0.005405 -0.000417  0.003945 -0.039311  0.109164  0.741596  1.266346 -0.185744  0.172845
                                -0.355072  0.367861 -1.008556  1.556434 -0.561798 -1.368719 -0.000155  0.000000 -0.000102  0.000000
                                -0.000555 -0.000000 -0.000653  0.000000 -0.005313 -0.000000  0.005977 -0.000000 -0.000011 -0.000000
                                 0.000000

   6.2   0     0.2675  -11.0265  0.000000  0.000001  0.000002  0.000007  0.000022  0.000059  0.000210  0.000508  0.001771  0.003298
                                 0.009377  0.007317  0.018307 -0.040219  0.045697 -0.498575 -2.591329 -4.300446  0.915590 -0.785857
                                 0.778841 -2.242219  3.119406 -1.306008  2.009354  4.916686 -0.000468 -0.000000 -0.000122 -0.000000
                                -0.001968  0.000000 -0.000431 -0.000000 -0.019825  0.000000  0.033742  0.000000 -0.000027  0.000000
                                -0.000000

                                   1 2py     1 2py     1 2py     1 2py     1 2py     1 2py     1 2py     1 2py     1 2py     1 2py  
                                   1 2py     1 2py     1 2py     1 2py     1 2py     1 2py     1 2py     1 2py     1 2py     1 2py  
                                   1 2py     1 2py     1 2py     1 2py     1 2py     1 2py     1 4f1-    1 4f3-    1 4f1-    1 4f3- 
                                   1 4f1-    1 4f3-    1 4f1-    1 4f3-    1 4f1-    1 4f3-    1 4f1-    1 4f3-    1 6h1-    1 6h3- 
                                   1 6h5- 

   1.3   2  -173.0125 -528.6489  0.000008  0.000025  0.000082  0.000248  0.000747  0.002248  0.006757  0.019688  0.053245  0.125509
                                 0.238069  0.329436  0.279029  0.117209  0.019058  0.000155 -0.002059 -0.001377  0.000053 -0.000026
                                 0.000009 -0.000003  0.000001 -0.000000  0.002123  0.001742  0.000002 -0.000000 -0.000001  0.000000
                                 0.000001 -0.000000 -0.000001  0.000000  0.000000 -0.000000 -0.000000  0.000000  0.000000  0.000000
                                -0.000000

   2.3   2   -33.8846 -182.2354 -0.000004 -0.000012 -0.000039 -0.000117 -0.000352 -0.001064 -0.003216 -0.009478 -0.026111 -0.063689
                                -0.126366 -0.184583 -0.129480  0.118127  0.422133  0.451877  0.196130  0.049120 -0.001574  0.000726
                                -0.000281  0.000106 -0.000043  0.000012 -0.045109 -0.046715  0.000097  0.000000 -0.000036 -0.000000
                                 0.000032  0.000000 -0.000013 -0.000000  0.000009  0.000000 -0.000004 -0.000000 -0.000000 -0.000000
                                -0.000000

   3.3   2    -5.5810  -74.0391  0.000002  0.000005  0.000017  0.000051  0.000154  0.000467  0.001409  0.004170  0.011509  0.028331
                                 0.056583  0.084166  0.054343 -0.078369 -0.279006 -0.317990  0.128301  0.573777  0.434553  0.085886
                                 0.000972  0.001496 -0.000429  0.000118 -0.005139 -0.011252  0.000161 -0.000000  0.000422 -0.000000
                                 0.001002 -0.000000  0.000077 -0.000000 -0.000077  0.000000  0.000007 -0.000000  0.000000 -0.000000
                                -0.000000

   4.3   2    -0.3915  -25.1274 -0.000000 -0.000001 -0.000005 -0.000015 -0.000045 -0.000136 -0.000411 -0.001217 -0.003363 -0.008286
                                -0.016585 -0.024706 -0.015783  0.024533  0.086900  0.104336 -0.037733 -0.201287 -0.219172  0.118306
                                 0.462369  0.463300  0.150194  0.001981 -0.015761 -0.033825  0.000320  0.000000  0.000551  0.000000
                                 0.000629  0.000000  0.003788 -0.000000  0.005662 -0.000000  0.002583  0.000000  0.000014  0.000000
                                -0.000000

   5.3   0     0.0609   -6.8917  0.000000  0.000000  0.000001  0.000003  0.000007  0.000024  0.000065  0.000224  0.000516  0.001573
                                 0.002360  0.005405 -0.000417  0.003945 -0.039311  0.109164  0.741596  1.266346 -0.185744  0.172845
                                -0.355072  0.367861 -1.008556  1.556434 -0.561798 -1.368719 -0.000155 -0.000000 -0.000102 -0.000000
                                -0.000555  0.000000 -0.000653 -0.000000 -0.005313  0.000000  0.005977  0.000000 -0.000011  0.000000
                                 0.000000

   6.3   0     0.2675  -11.0265  0.000000  0.000001  0.000002  0.000007  0.000022  0.000059  0.000210  0.000508  0.001771  0.003298
                                 0.009377  0.007317  0.018307 -0.040219  0.045697 -0.498575 -2.591329 -4.300446  0.915590 -0.785857
                                 0.778841 -2.242219  3.119406 -1.306008  2.009354  4.916686 -0.000468  0.000000 -0.000122  0.000000
                                -0.001968 -0.000000 -0.000431  0.000000 -0.019825  0.000000  0.033742 -0.000000 -0.000027 -0.000000
                                 0.000000

                                   1 3d2-    1 3d2-    1 3d2-    1 3d2-    1 3d2-    1 3d2-    1 3d2-    1 3d2-    1 3d2-    1 3d2- 
                                   1 3d2-    1 3d2-    1 3d2-    1 3d2-    1 3d2-    1 3d2-    1 3d2-    1 3d2-    1 5g2-    1 5g4- 
                                   1 5g2-    1 5g4-    1 5g2-    1 5g4-    1 5g2-    1 5g4- 

   1.4   2   -23.9255 -167.0029  0.000017  0.000128  0.000765  0.003529  0.013184  0.039561  0.098182  0.192924  0.286820  0.312531
                                 0.208284  0.069319  0.008276  0.000412 -0.000074  0.000000 -0.000015  0.000002  0.000039 -0.000000
                                -0.000007  0.000000  0.000005 -0.000000 -0.000003  0.000000

   2.4   2    -2.2946  -61.8383 -0.000007 -0.000053 -0.000315 -0.001459 -0.005474 -0.016563 -0.041652 -0.082540 -0.119428 -0.118857
                                 0.000102  0.226790  0.386149  0.344015  0.162204  0.034825  0.002868  0.000118  0.000246 -0.000000
                                 0.001045 -0.000000  0.000522 -0.000000 -0.000130  0.000000

   3.4   0     0.1668  -10.7967  0.000000  0.000006  0.000018  0.000160  0.000325  0.001817  0.002378  0.009686  0.004165  0.021489
                                -0.021684  0.013634 -0.095388  0.066662 -0.160182  0.318572 -0.348904  1.158765 -0.000060  0.000000
                                 0.000297 -0.000000 -0.000713  0.000000  0.007888 -0.000000

   4.4   0     0.4449  -15.8753 -0.000002 -0.000008 -0.000089 -0.000225 -0.001526 -0.002561 -0.011875 -0.011260 -0.040540  0.003129
                                -0.048661  0.143999 -0.054571  0.336045 -0.426301  0.515564 -1.797632  1.112912  0.000069 -0.000000
                                -0.000358  0.000000 -0.001671  0.000000 -0.014795  0.000000

                                   1 2pz     1 2pz     1 2pz     1 2pz     1 2pz     1 2pz     1 2pz     1 2pz     1 2pz     1 2pz  
                                   1 2pz     1 2pz     1 2pz     1 2pz     1 2pz     1 2pz     1 2pz     1 2pz     1 2pz     1 2pz  
                                   1 2pz     1 2pz     1 2pz     1 2pz     1 2pz     1 2pz     1 4f0     1 4f2+    1 4f0     1 4f2+ 
                                   1 4f0     1 4f2+    1 4f0     1 4f2+    1 4f0     1 4f2+    1 4f0     1 4f2+    1 6h2+    1 6h4+ 
                                   1 6h0  

   1.5   2  -173.0135 -528.6488  0.000008  0.000025  0.000082  0.000248  0.000747  0.002248  0.006757  0.019687  0.053243  0.125505
                                 0.238061  0.329429  0.279041  0.117216  0.019061  0.000156 -0.002059 -0.001377  0.000053 -0.000026
                                 0.000009 -0.000003  0.000001 -0.000000  0.002124  0.001743  0.000003 -0.000000 -0.000002  0.000000
                                 0.000001 -0.000000 -0.000001 -0.000000  0.000000 -0.000000 -0.000000 -0.000000 -0.000000 -0.000000
                                 0.000000

   2.5   2   -33.8887 -182.2311 -0.000004 -0.000012 -0.000039 -0.000117 -0.000352 -0.001064 -0.003216 -0.009476 -0.026107 -0.063677
                                -0.126341 -0.184546 -0.129473  0.118055  0.421947  0.451965  0.196183  0.049150 -0.001562  0.000727
                                -0.000287  0.000101 -0.000044  0.000012 -0.045038 -0.046717  0.000119 -0.000000 -0.000044  0.000000
                                 0.000039 -0.000000 -0.000016  0.000000  0.000011 -0.000000 -0.000005  0.000000  0.000000 -0.000000
                                -0.000000

   3.5   2    -5.5900  -73.9602  0.000002  0.000005  0.000017  0.000051  0.000154  0.000465  0.001406  0.004160  0.011482  0.028263
                                 0.056449  0.083956  0.054241 -0.078176 -0.278044 -0.317686  0.124391  0.564776  0.436746  0.088039
                                 0.001073  0.001694 -0.000408  0.000124 -0.002983 -0.004864  0.000195 -0.000000  0.000512 -0.000000
                                 0.001222 -0.000000  0.000103  0.000000 -0.000090  0.000000  0.000011  0.000000  0.000000 -0.000000
                                 0.000000

   4.5   +    -0.4497  -25.5440 -0.000000 -0.000002 -0.000005 -0.000015 -0.000046 -0.000139 -0.000420 -0.001242 -0.003429 -0.008451
                                -0.016908 -0.025202 -0.016071  0.024929  0.088733  0.105165 -0.044709 -0.210009 -0.222827  0.108875
                                 0.492166  0.467680  0.116864 -0.000458 -0.010844 -0.026346  0.000919  0.000000  0.001496  0.000000
                                 0.001828 -0.000000  0.011511  0.000000  0.016561 -0.000000  0.005981  0.000000  0.000000 -0.000000
                                 0.000105

   5.5   0     0.0564   -6.9334  0.000000  0.000000  0.000001  0.000003  0.000007  0.000024  0.000063  0.000218  0.000503  0.001524
                                 0.002309  0.005217 -0.000308  0.003581 -0.037449  0.102183  0.698265  1.192828 -0.173523  0.163373
                                -0.341912  0.339695 -0.944193  1.529216 -0.528719 -1.288059 -0.000216 -0.000000 -0.000155 -0.000000
                                -0.000754  0.000000 -0.000912 -0.000000 -0.006759  0.000000  0.007925 -0.000000 -0.000000 -0.000000
                                -0.000016

   6.5   0     0.2537  -10.8762  0.000000  0.000001  0.000002  0.000007  0.000021  0.000058  0.000204  0.000496  0.001720  0.003220
                                 0.009096  0.007198  0.017616 -0.038611  0.042901 -0.476971 -2.474488 -4.108397  0.877734 -0.749003
                                 0.725997 -2.163643  3.102469 -1.328300  1.918939  4.698241 -0.000631 -0.000000 -0.000281 -0.000000
                                -0.002477  0.000000 -0.001269 -0.000000 -0.023285  0.000000  0.039533 -0.000000 -0.000000  0.000000
                                -0.000037

                                   1 3d1+    1 3d1+    1 3d1+    1 3d1+    1 3d1+    1 3d1+    1 3d1+    1 3d1+    1 3d1+    1 3d1+ 
                                   1 3d1+    1 3d1+    1 3d1+    1 3d1+    1 3d1+    1 3d1+    1 3d1+    1 3d1+    1 5g1+    1 5g3+ 
                                   1 5g1+    1 5g3+    1 5g1+    1 5g3+    1 5g1+    1 5g3+ 

   1.6   2   -23.9298 -167.0041  0.000017  0.000128  0.000765  0.003529  0.013183  0.039559  0.098174  0.192911  0.286789  0.312528
                                 0.208338  0.069317  0.008288  0.000424 -0.000064  0.000005 -0.000013  0.000002  0.000055 -0.000000
                                -0.000010  0.000000  0.000007 -0.000000 -0.000004  0.000000

   2.6   2    -2.3069  -61.8303 -0.000007 -0.000052 -0.000315 -0.001458 -0.005470 -0.016549 -0.041618 -0.082471 -0.119330 -0.118748
                                -0.000020  0.226460  0.385479  0.344814  0.163192  0.033816  0.002311  0.000087  0.000346 -0.000000
                                 0.001475 -0.000000  0.000739  0.000000 -0.000186 -0.000000

   3.6   0     0.1571  -11.0439  0.000000  0.000006  0.000021  0.000166  0.000365  0.001888  0.002694  0.010001  0.005235  0.021452
                                -0.020452  0.009879 -0.094180  0.058105 -0.150666  0.309211 -0.301591  1.127869 -0.000084 -0.000000
                                 0.000443 -0.000000 -0.000788 -0.000000  0.011824  0.000000

   4.6   0     0.4247  -15.7959 -0.000002 -0.000008 -0.000088 -0.000228 -0.001517 -0.002594 -0.011798 -0.011475 -0.040124  0.002254
                                -0.047138  0.141505 -0.050170  0.328881 -0.411911  0.487857 -1.778520  1.136144  0.000088  0.000000
                                -0.000504 -0.000000 -0.002879 -0.000000 -0.020594  0.000000

                                   1 3d1-    1 3d1-    1 3d1-    1 3d1-    1 3d1-    1 3d1-    1 3d1-    1 3d1-    1 3d1-    1 3d1- 
                                   1 3d1-    1 3d1-    1 3d1-    1 3d1-    1 3d1-    1 3d1-    1 3d1-    1 3d1-    1 5g1-    1 5g3- 
                                   1 5g1-    1 5g3-    1 5g1-    1 5g3-    1 5g1-    1 5g3- 

   1.7   2   -23.9298 -167.0041  0.000017  0.000128  0.000765  0.003529  0.013183  0.039559  0.098174  0.192911  0.286789  0.312528
                                 0.208338  0.069317  0.008288  0.000424 -0.000064  0.000005 -0.000013  0.000002  0.000055  0.000000
                                -0.000010 -0.000000  0.000007  0.000000 -0.000004 -0.000000

   2.7   2    -2.3069  -61.8303 -0.000007 -0.000052 -0.000315 -0.001458 -0.005470 -0.016549 -0.041618 -0.082471 -0.119330 -0.118748
                                -0.000020  0.226460  0.385479  0.344814  0.163192  0.033816  0.002311  0.000087  0.000346 -0.000000
                                 0.001475  0.000000  0.000739 -0.000000 -0.000186  0.000000

   3.7   0     0.1571  -11.0439  0.000000  0.000006  0.000021  0.000166  0.000365  0.001888  0.002694  0.010001  0.005235  0.021452
                                -0.020452  0.009879 -0.094180  0.058105 -0.150666  0.309211 -0.301591  1.127869 -0.000084  0.000000
                                 0.000443 -0.000000 -0.000788  0.000000  0.011824 -0.000000

   4.7   0     0.4247  -15.7959 -0.000002 -0.000008 -0.000088 -0.000228 -0.001517 -0.002594 -0.011798 -0.011475 -0.040124  0.002254
                                -0.047138  0.141505 -0.050170  0.328881 -0.411911  0.487857 -1.778520  1.136144  0.000088 -0.000000
                                -0.000504  0.000000 -0.002879  0.000000 -0.020594 -0.000000

                                   1 4f2-    1 4f2-    1 4f2-    1 4f2-    1 4f2-    1 4f2-    1 6h4-    1 6h2- 

   1.8   0     0.4571  -11.9336  0.004900  0.028445 -0.021150  0.195814 -0.469739  1.289188 -0.000000  0.000389

   2.8   0     0.9757  -22.1299 -0.068082 -0.058353 -0.243121  0.000157 -1.407056  0.994500  0.000000 -0.001705

 HOMO      4.2    -0.391505 =     -10.6534eV
 LUMO     10.1     0.053856 =       1.4655eV
 LUMO-HOMO         0.445361 =      12.1189eV


 **********************************************************************************************************************************
 DATASETS  * FILE   NREC   LENGTH (MB)   RECORD NAMES
              1      22       20.89       500      610      700      900      950      970     1000      129      960     1700   
                                          VAR    BASINP    GEOM    SYMINP    ZMAT    AOBASIS   BASIS     P2S    ABASIS    OPER   
                                         1101     1401     1411     1412     1650     1100     1400     1410     1200     1210   
                                          SR      EKINR    POTR     PVPR    MOLCAS      S      EKIN      POT      H0       H01  
                                         1080     1600   
                                         AOSYM     SMH  

              2       5        5.76       200      700     1000      520     4202   
                                        OPTIONS   GEOM     BASIS   MCVARS     RHF  

 PROGRAMS   *        TOTAL       RHF       INT
 CPU TIMES  *        45.13      0.82     44.04
 REAL TIME  *        50.16 SEC
 DISK USED  *         1.60 GB      
 SF USED    *         0.05 MB      
 GA USED    *         0.00 MB       (max)       0.00 MB       (current)
 **********************************************************************************************************************************


 PROGRAM * POP (Mulliken population analysis)

 
 Density matrix read from record         4202.2  Type=RHF/CHARGE (state 1.5)
 
 Population analysis by basis function type

 Unique atom        s        p        d        f        g    Total    Charge
   1  I       9.99991 22.99855 20.00005  0.00145  0.00003 53.00000  + 0.00000


 **********************************************************************************************************************************
 DATASETS  * FILE   NREC   LENGTH (MB)   RECORD NAMES
              1      22       20.89       500      610      700      900      950      970     1000      129      960     1700   
                                          VAR    BASINP    GEOM    SYMINP    ZMAT    AOBASIS   BASIS     P2S    ABASIS    OPER   
                                         1101     1401     1411     1412     1650     1100     1400     1410     1200     1210   
                                          SR      EKINR    POTR     PVPR    MOLCAS      S      EKIN      POT      H0       H01  
                                         1080     1600   
                                         AOSYM     SMH  

              2       5        5.76       200      700     1000      520     4202   
                                        OPTIONS   GEOM     BASIS   MCVARS     RHF  

 PROGRAMS   *        TOTAL       POP       RHF       INT
 CPU TIMES  *        45.13      0.00      0.82     44.04
 REAL TIME  *        50.19 SEC
 DISK USED  *         1.60 GB      
 SF USED    *         0.05 MB      
 GA USED    *         0.00 MB       (max)       0.00 MB       (current)
 **********************************************************************************************************************************


 PROGRAM * MULTI (Direct Multiconfiguration SCF)       Authors: P.J. Knowles, H.-J. Werner (1984)     S.T. Elbert (1988)


 Number of closed-shell orbitals:  24 (   9   3   3   2   3   2   2   0 )
 Number of active  orbitals:        3 (   0   1   1   0   1   0   0   0 )
 Number of external orbitals:     261 (  70  37  37  24  37  24  24   8 )

 State symmetry 1

 Number of electrons:     5    Spin symmetry=Doublet   Space symmetry=2
 Number of states:        1
 Number of CSFs:          1   (1 determinants, 3 intermediate states)

 State symmetry 2

 Number of electrons:     5    Spin symmetry=Doublet   Space symmetry=3
 Number of states:        1
 Number of CSFs:          1   (1 determinants, 3 intermediate states)

 State symmetry 3

 Number of electrons:     5    Spin symmetry=Doublet   Space symmetry=5
 Number of states:        1
 Number of CSFs:          1   (1 determinants, 3 intermediate states)

 Molecular orbitals read from record     4202.2  Type=RHF/CANONICAL (state 1.5)
 *** IN SYMMETRY 1 ORBITAL  2 SYMMETRY CONTAMINATION OF 0.108D-04 HAS BEEN REMOVED
 *** IN SYMMETRY 1 ORBITAL  3 SYMMETRY CONTAMINATION OF 0.118D-03 HAS BEEN REMOVED
 *** IN SYMMETRY 1 ORBITAL  4 SYMMETRY CONTAMINATION OF 0.100D-02 HAS BEEN REMOVED
 *** IN SYMMETRY 1 ORBITAL  5 SYMMETRY CONTAMINATION OF 0.435D-04 HAS BEEN REMOVED
 *** IN SYMMETRY 1 ORBITAL  6 SYMMETRY CONTAMINATION OF 0.833D-03 HAS BEEN REMOVED
 *** IN SYMMETRY 1 ORBITAL  7 SYMMETRY CONTAMINATION OF 0.231D-01 HAS BEEN REMOVED
 *** IN SYMMETRY 1 ORBITAL  8 SYMMETRY CONTAMINATION OF 0.126D-02 HAS BEEN REMOVED
 *** IN SYMMETRY 1 ORBITAL  9 SYMMETRY CONTAMINATION OF 0.306D-02 HAS BEEN REMOVED

 EXTRA SYMMETRY OF MOS IN SYMMETRY 1:   1 1 1 2 3 1 2 3 1 1   2 3 1 2 3 4 6 1 5 2   3 4 6 5 2 3 1 4 6 5   2 3 1 4 6 5 2 3 1 2
                                        3 1 2 3 1 2 3 1 2 3   2 3 1 2 3 1 2 3 1 1   2 3 1 2 3 1 2 3 1 1   1 1 1 1 1 1 1 1 1
 *** IN SYMMETRY 2 ORBITAL  2 SYMMETRY CONTAMINATION OF 0.102D-03 HAS BEEN REMOVED
 *** IN SYMMETRY 2 ORBITAL  3 SYMMETRY CONTAMINATION OF 0.808D-03 HAS BEEN REMOVED
 *** IN SYMMETRY 2 ORBITAL  4 SYMMETRY CONTAMINATION OF 0.676D-02 HAS BEEN REMOVED
 EXTRA SYMMETRY OF MOS IN SYMMETRY 2:   1 1 1 1 1 1 2 3 1 2   3 2 3 1 2 3 1 4 5 6   2 3 1 2 3 1 1 1 1 1   1 1 1 1 1 1 1 1 1 1
                                        1
 *** IN SYMMETRY 3 ORBITAL  2 SYMMETRY CONTAMINATION OF 0.102D-03 HAS BEEN REMOVED
 *** IN SYMMETRY 3 ORBITAL  3 SYMMETRY CONTAMINATION OF 0.808D-03 HAS BEEN REMOVED
 *** IN SYMMETRY 3 ORBITAL  4 SYMMETRY CONTAMINATION OF 0.676D-02 HAS BEEN REMOVED
 EXTRA SYMMETRY OF MOS IN SYMMETRY 3:   1 1 1 1 1 1 2 3 1 2   3 2 3 1 2 3 1 4 5 6   2 3 1 2 3 1 1 1 1 1   1 1 1 1 1 1 1 1 1 1
                                        1
 *** IN SYMMETRY 4 ORBITAL  1 SYMMETRY CONTAMINATION OF 0.434D-04 HAS BEEN REMOVED
 *** IN SYMMETRY 4 ORBITAL  2 SYMMETRY CONTAMINATION OF 0.126D-02 HAS BEEN REMOVED
 EXTRA SYMMETRY OF MOS IN SYMMETRY 4:   1 1 1 1 2 3 1 2 3 1   2 3 1 2 3 1 1 1 1 1   1 1 1 1 1 1
 *** IN SYMMETRY 5 ORBITAL  2 SYMMETRY CONTAMINATION OF 0.125D-03 HAS BEEN REMOVED
 *** IN SYMMETRY 5 ORBITAL  3 SYMMETRY CONTAMINATION OF 0.996D-03 HAS BEEN REMOVED
 *** IN SYMMETRY 5 ORBITAL  4 SYMMETRY CONTAMINATION OF 0.189D-01 HAS BEEN REMOVED
 EXTRA SYMMETRY OF MOS IN SYMMETRY 5:   1 1 1 1 1 1 2 3 1 2   3 2 3 1 2 3 1 6 4 5   2 3 1 2 3 1 1 1 1 1   1 1 1 1 1 1 1 1 1 1
                                        1
 *** IN SYMMETRY 6 ORBITAL  1 SYMMETRY CONTAMINATION OF 0.614D-04 HAS BEEN REMOVED
 *** IN SYMMETRY 6 ORBITAL  2 SYMMETRY CONTAMINATION OF 0.178D-02 HAS BEEN REMOVED
 EXTRA SYMMETRY OF MOS IN SYMMETRY 6:   1 1 1 1 2 3 1 2 3 1   2 3 1 2 3 1 1 1 1 1   1 1 1 1 1 1
 *** IN SYMMETRY 7 ORBITAL  1 SYMMETRY CONTAMINATION OF 0.614D-04 HAS BEEN REMOVED
 *** IN SYMMETRY 7 ORBITAL  2 SYMMETRY CONTAMINATION OF 0.178D-02 HAS BEEN REMOVED
 EXTRA SYMMETRY OF MOS IN SYMMETRY 7:   1 1 1 1 2 3 1 2 3 1   2 3 1 2 3 1 1 1 1 1   1 1 1 1 1 1
 EXTRA SYMMETRY OF MOS IN SYMMETRY 8:   1 1 1 1 3 2 1 1

 Wavefunction dump at record             5202.2

 Convergence thresholds  0.10E-01 (gradient)  0.11E-05 (energy)  0.10E-02 (step length)

 Weight factors for state symmetry  1:    0.33333
 Weight factors for state symmetry  2:    0.33333
 Weight factors for state symmetry  3:    0.33333

 Number of orbital rotations:     1227   (     9 Core/Active   1107 Core/Virtual   0 Active/Active    111 Active/Virtual)
 Total number of variables:       1230


 ITER. MIC  NCI  NEG     ENERGY(VAR)     ENERGY(PROJ)   ENERGY CHANGE     GRAD(0)  GRAD(ORB)   GRAD(CI)     STEP       TIME

   1   18   21    0   -7112.87018555   -7112.87074128   -0.00055573    0.04163620 0.00000000 0.00000000  0.25D-01      1.82
   2   15   15    0   -7112.87074141   -7112.87074141   -0.00000000    0.00006590 0.00000000 0.00000000  0.40D-04      3.20

 ** WVFN ****  CONVERGENCE REACHED, FINAL GRADIENT:  0.65D-09



 Results for state 1.2
 =====================

 !MCSCF STATE 1.2 Energy            -7112.870741408996
 Nuclear energy                         0.00000000
 Kinetic energy                      8371.25176128
 One electron energy                -9752.41968269
 Two electron energy                 2639.54894128
 Virial ratio                           1.84967827

 !MCSCF STATE 1.2 Dipole moment         0.00000000     0.00000000     0.00000000
 Dipole moment /Debye                   0.00000000     0.00000000     0.00000000



 Results for state 1.3
 =====================

 !MCSCF STATE 1.3 Energy            -7112.870741408996
 Nuclear energy                         0.00000000
 Kinetic energy                      8371.25176128
 One electron energy                -9752.41968269
 Two electron energy                 2639.54894128
 Virial ratio                           1.84967827

 !MCSCF STATE 1.3 Dipole moment         0.00000000     0.00000000     0.00000000
 Dipole moment /Debye                   0.00000000     0.00000000     0.00000000



 Results for state 1.5
 =====================

 !MCSCF STATE 1.5 Energy            -7112.870741408981
 Nuclear energy                         0.00000000
 Kinetic energy                      8371.25176128
 One electron energy                -9752.41968269
 Two electron energy                 2639.54894128
 Virial ratio                           1.84967827

 !MCSCF STATE 1.5 Dipole moment         0.00000000     0.00000000     0.00000000
 Dipole moment /Debye                   0.00000000     0.00000000     0.00000000

 State-averaged charge density matrix saved on record  5202.2 (density set 1)


 NATURAL ORBITALS (state averaged)
 =================================

   Orb     Occ        Energy       Coefficients

                                   1 1s      1 1s      1 1s      1 1s      1 1s      1 1s      1 1s      1 1s      1 1s      1 1s   
                                   1 1s      1 1s      1 1s      1 1s      1 1s      1 1s      1 1s      1 1s      1 1s      1 1s   
                                   1 1s      1 1s      1 1s      1 1s      1 1s      1 1s      1 1s      1 1s      1 1s      1 1s   
                                   1 1s      1 3d0     1 3d2+    1 3d0     1 3d2+    1 3d0     1 3d2+    1 3d0     1 3d2+    1 3d0  
                                   1 3d2+    1 3d0     1 3d2+    1 3d0     1 3d2+    1 3d0     1 3d2+    1 3d0     1 3d2+    1 3d0  
                                   1 3d2+    1 3d0     1 3d2+    1 3d0     1 3d2+    1 3d0     1 3d2+    1 3d0     1 3d2+    1 3d0  
                                   1 3d2+    1 3d0     1 3d2+    1 3d0     1 3d2+    1 3d0     1 3d2+    1 5g0     1 5g4+    1 5g2+ 
                                   1 5g0     1 5g4+    1 5g2+    1 5g0     1 5g4+    1 5g2+    1 5g0     1 5g4+    1 5g2+ 

   1.1  2.00000 -1224.979574     0.000038  0.000102  0.000255  0.000513  0.000945  0.001620  0.002743  0.004640  0.008051  0.014345
                                 0.026403  0.049716  0.093777  0.168199  0.260898  0.297736  0.196469  0.053011  0.004184 -0.000104
                                 0.000304 -0.000320  0.000158 -0.000094  0.000053 -0.000026  0.000019 -0.000013  0.000005 -0.000002
                                 0.000000 -0.000000 -0.000000 -0.000000 -0.000000 -0.000000 -0.000000 -0.000000 -0.000000 -0.000000
                                -0.000000 -0.000000 -0.000000 -0.000000 -0.000000 -0.000000 -0.000000 -0.000000 -0.000000 -0.000000
                                -0.000000 -0.000000 -0.000000 -0.000000 -0.000000 -0.000000 -0.000000 -0.000000 -0.000000 -0.000000
                                -0.000000 -0.000000 -0.000000 -0.000000 -0.000000 -0.000000 -0.000000  0.000000  0.000000  0.000000
                                 0.000000  0.000000  0.000000  0.000000  0.000000  0.000000  0.000000  0.000000  0.000000

   2.1  2.00000  -192.923826    -0.000013 -0.000035 -0.000089 -0.000178 -0.000329 -0.000565 -0.000959 -0.001629 -0.002844 -0.005112
                                -0.009545 -0.018389 -0.036080 -0.069382 -0.122220 -0.172451 -0.137593  0.082624  0.400052  0.446651
                                 0.206923  0.036339  0.002091  0.000200 -0.000267  0.000001 -0.000036  0.000028 -0.000007  0.000003
                                -0.000001 -0.000000 -0.000000 -0.000000 -0.000000 -0.000000 -0.000000 -0.000000 -0.000000 -0.000000
                                -0.000000 -0.000000 -0.000000 -0.000000 -0.000000 -0.000000 -0.000000 -0.000000 -0.000000 -0.000000
                                -0.000000 -0.000000 -0.000000  0.000000 -0.000000  0.000000 -0.000000  0.000000 -0.000000  0.000000
                                -0.000000  0.000000 -0.000000  0.000000 -0.000000  0.000000 -0.000000  0.000000  0.000000  0.000000
                                 0.000000  0.000000  0.000000  0.000000  0.000000  0.000000  0.000000  0.000000  0.000000

   3.1  2.00000   -40.510010     0.000006  0.000016  0.000040  0.000080  0.000147  0.000253  0.000429  0.000730  0.001275  0.002297
                                 0.004295  0.008308  0.016387  0.031877  0.057238  0.083865  0.069897 -0.053596 -0.309161 -0.454487
                                -0.212177  0.372311  0.699750  0.296720  0.023947  0.001938 -0.000241  0.000217 -0.000134  0.000033
                                -0.000008 -0.000000 -0.000000 -0.000000 -0.000000 -0.000000 -0.000000 -0.000000 -0.000000 -0.000000
                                -0.000000 -0.000000 -0.000000 -0.000000 -0.000000 -0.000000 -0.000000 -0.000000 -0.000000 -0.000000
                                -0.000000 -0.000000 -0.000000 -0.000000 -0.000000 -0.000000 -0.000000 -0.000000 -0.000000  0.000000
                                 0.000000 -0.000000 -0.000000  0.000000  0.000000 -0.000000 -0.000000  0.000000  0.000000  0.000000
                                 0.000000  0.000000  0.000000  0.000000  0.000000  0.000000  0.000000  0.000000  0.000000

   4.1  2.00000   -23.928576     0.000000  0.000000  0.000000  0.000000  0.000000  0.000000  0.000000  0.000000  0.000000  0.000000
                                 0.000000  0.000000  0.000000  0.000000  0.000000  0.000000  0.000000 -0.000000 -0.000000 -0.000000
                                -0.000000 -0.000000  0.000000  0.000000 -0.000000  0.000000  0.000000 -0.000000 -0.000000 -0.000000
                                -0.000000  0.000000  0.000017  0.000001  0.000128  0.000003  0.000765  0.000016  0.003529  0.000060
                                 0.013183  0.000181  0.039559  0.000448  0.098175  0.000880  0.192913  0.001309  0.286797  0.001426
                                 0.312526  0.000951  0.208318  0.000316  0.069317  0.000038  0.008284  0.000002  0.000420 -0.000000
                                -0.000068  0.000000  0.000004 -0.000000 -0.000014  0.000000  0.000002  0.000000  0.000000  0.000000
                                 0.000000  0.000000  0.000000  0.000000  0.000000  0.000000  0.000000  0.000000  0.000000

   5.1  2.00000   -23.928576     0.000000  0.000000  0.000000  0.000000  0.000000  0.000000  0.000000  0.000000  0.000000  0.000000
                                 0.000000  0.000000  0.000000  0.000000  0.000000  0.000000  0.000000 -0.000000 -0.000000 -0.000000
                                -0.000000  0.000000  0.000000  0.000000 -0.000000 -0.000000 -0.000000  0.000000  0.000000  0.000000
                                -0.000000  0.000017 -0.000000  0.000128 -0.000001  0.000765 -0.000003  0.003529 -0.000016  0.013183
                                -0.000060  0.039559 -0.000181  0.098175 -0.000448  0.192913 -0.000880  0.286797 -0.001309  0.312526
                                -0.001426  0.208318 -0.000951  0.069317 -0.000316  0.008284 -0.000038  0.000420 -0.000002 -0.000068
                                 0.000000  0.000004 -0.000000 -0.000014  0.000000  0.000002 -0.000000  0.000000  0.000000  0.000000
                                 0.000000  0.000000  0.000000  0.000000  0.000000  0.000000  0.000000  0.000000  0.000000

   6.1  2.00000    -7.757962    -0.000003 -0.000007 -0.000018 -0.000036 -0.000066 -0.000114 -0.000194 -0.000329 -0.000576 -0.001037
                                -0.001940 -0.003755 -0.007417 -0.014456 -0.026078 -0.038486 -0.032470  0.026156  0.156966  0.245856
                                 0.120902 -0.261617 -0.774299 -0.311203  0.711845  0.694823  0.103888 -0.018084  0.004852 -0.001057
                                 0.000213  0.000000  0.000000  0.000000  0.000000  0.000000  0.000000  0.000000  0.000000  0.000000
                                 0.000000  0.000000  0.000000  0.000000  0.000000  0.000000  0.000000  0.000000  0.000000  0.000000
                                 0.000000  0.000000  0.000000  0.000000  0.000000  0.000000  0.000000  0.000000  0.000000 -0.000000
                                -0.000000  0.000000  0.000000 -0.000000 -0.000000  0.000000  0.000000  0.000000  0.000000  0.000000
                                 0.000000  0.000000  0.000000  0.000000  0.000000  0.000000  0.000000  0.000000  0.000000

   7.1  2.00000    -2.302999    -0.000000 -0.000000 -0.000000 -0.000000 -0.000000 -0.000000 -0.000000 -0.000000 -0.000000 -0.000000
                                -0.000000 -0.000000 -0.000000 -0.000000 -0.000000 -0.000000 -0.000000  0.000000  0.000000 -0.000000
                                -0.000000  0.000000  0.000000  0.000000  0.000000  0.000000  0.000000  0.000000  0.000000  0.000000
                                 0.000000  0.000000 -0.000007  0.000000 -0.000053  0.000000 -0.000315  0.000000 -0.001458  0.000000
                                -0.005471  0.000001 -0.016554  0.000002 -0.041629  0.000004 -0.082494  0.000006 -0.119363  0.000006
                                -0.118785 -0.000000  0.000021 -0.000011  0.226570 -0.000019  0.385704 -0.000017  0.344552 -0.000008
                                 0.162857 -0.000002  0.034152 -0.000000  0.002501 -0.000000  0.000097  0.000000  0.000000  0.000000
                                 0.000000  0.000000  0.000000  0.000000  0.000000  0.000000  0.000000  0.000000  0.000000

   8.1  2.00000    -2.302999    -0.000000 -0.000000 -0.000000 -0.000000 -0.000000 -0.000000 -0.000000 -0.000000 -0.000000 -0.000000
                                -0.000000 -0.000000 -0.000000 -0.000000 -0.000000 -0.000000 -0.000000  0.000000  0.000000  0.000000
                                 0.000000 -0.000000 -0.000000 -0.000000  0.000000  0.000000  0.000000 -0.000000  0.000000 -0.000000
                                 0.000000 -0.000007 -0.000000 -0.000053 -0.000000 -0.000315 -0.000000 -0.001458 -0.000000 -0.005471
                                -0.000000 -0.016554 -0.000001 -0.041629 -0.000002 -0.082494 -0.000004 -0.119363 -0.000006 -0.118785
                                -0.000006  0.000021  0.000000  0.226570  0.000011  0.385704  0.000019  0.344552  0.000017  0.162857
                                 0.000008  0.034152  0.000002  0.002501  0.000000  0.000097  0.000000  0.000000  0.000000  0.000000
                                 0.000000  0.000000  0.000000  0.000000  0.000000  0.000000  0.000000  0.000000  0.000000

   9.1  2.00000    -0.876516     0.000001  0.000002  0.000006  0.000012  0.000023  0.000039  0.000067  0.000114  0.000199  0.000359
                                 0.000671  0.001299  0.002567  0.005003  0.009037  0.013349  0.011303 -0.009207 -0.055539 -0.088193
                                -0.044205  0.099406  0.324103  0.119175 -0.385628 -0.586108 -0.094085  0.596734  0.610429  0.146831
                                 0.000549 -0.000000  0.000000 -0.000000  0.000000 -0.000000  0.000000 -0.000000  0.000000 -0.000000
                                 0.000000 -0.000000  0.000000 -0.000000  0.000000 -0.000000  0.000000 -0.000000  0.000000 -0.000000
                                 0.000000 -0.000000  0.000000 -0.000000  0.000000 -0.000000 -0.000000 -0.000000 -0.000000 -0.000000
                                -0.000000 -0.000000 -0.000000 -0.000000 -0.000000 -0.000000 -0.000000  0.000000  0.000000  0.000000
                                 0.000000  0.000000  0.000000  0.000000  0.000000  0.000000  0.000000  0.000000  0.000000

                                   1 2px     1 2px     1 2px     1 2px     1 2px     1 2px     1 2px     1 2px     1 2px     1 2px  
                                   1 2px     1 2px     1 2px     1 2px     1 2px     1 2px     1 2px     1 2px     1 2px     1 2px  
                                   1 2px     1 2px     1 2px     1 2px     1 2px     1 2px     1 4f1+    1 4f3+    1 4f1+    1 4f3+ 
                                   1 4f1+    1 4f3+    1 4f1+    1 4f3+    1 4f1+    1 4f3+    1 4f1+    1 4f3+    1 6h1+    1 6h3+ 
                                   1 6h5+ 

   1.2  2.00000  -173.013067     0.000008  0.000025  0.000082  0.000248  0.000747  0.002248  0.006757  0.019688  0.053245  0.125508
                                 0.238067  0.329433  0.279033  0.117212  0.019059  0.000156 -0.002059 -0.001377  0.000053 -0.000026
                                 0.000009 -0.000003  0.000002 -0.000000  0.002124  0.001742  0.000000  0.000000  0.000000  0.000000
                                 0.000000  0.000000  0.000000  0.000000  0.000000  0.000000  0.000000  0.000000  0.000000  0.000000
                                 0.000000

   2.2  2.00000   -33.886154    -0.000004 -0.000012 -0.000039 -0.000117 -0.000352 -0.001064 -0.003216 -0.009477 -0.026110 -0.063685
                                -0.126357 -0.184570 -0.129477  0.118102  0.422068  0.451904  0.196149  0.049137 -0.001564  0.000723
                                -0.000296  0.000091 -0.000047  0.000012 -0.045085 -0.046716  0.000000  0.000000  0.000000  0.000000
                                 0.000000  0.000000  0.000000  0.000000  0.000000  0.000000  0.000000  0.000000  0.000000  0.000000
                                 0.000000

   3.2  2.00000    -5.584149     0.000002  0.000005  0.000017  0.000051  0.000154  0.000466  0.001408  0.004165  0.011495  0.028297
                                 0.056516  0.084063  0.054288 -0.078272 -0.278571 -0.317750  0.126954  0.570525  0.434998  0.086753
                                 0.001622  0.002176 -0.000229  0.000122 -0.004447 -0.009185  0.000000  0.000000  0.000000  0.000000
                                 0.000000  0.000000  0.000000  0.000000  0.000000  0.000000  0.000000  0.000000  0.000000  0.000000
                                 0.000000

   4.2  1.66667    -0.343763    -0.000000 -0.000002 -0.000005 -0.000015 -0.000045 -0.000137 -0.000415 -0.001229 -0.003396 -0.008365
                                -0.016743 -0.024942 -0.015931  0.024742  0.087706  0.105066 -0.039033 -0.203478 -0.220633  0.116510
                                 0.467661  0.464727  0.143824  0.001316 -0.015000 -0.032832  0.000000  0.000000  0.000000  0.000000
                                 0.000000  0.000000  0.000000  0.000000  0.000000  0.000000  0.000000  0.000000  0.000000  0.000000
                                 0.000000

                                   1 2py     1 2py     1 2py     1 2py     1 2py     1 2py     1 2py     1 2py     1 2py     1 2py  
                                   1 2py     1 2py     1 2py     1 2py     1 2py     1 2py     1 2py     1 2py     1 2py     1 2py  
                                   1 2py     1 2py     1 2py     1 2py     1 2py     1 2py     1 4f1-    1 4f3-    1 4f1-    1 4f3- 
                                   1 4f1-    1 4f3-    1 4f1-    1 4f3-    1 4f1-    1 4f3-    1 4f1-    1 4f3-    1 6h1-    1 6h3- 
                                   1 6h5- 

   1.3  2.00000  -173.013067     0.000008  0.000025  0.000082  0.000248  0.000747  0.002248  0.006757  0.019688  0.053245  0.125508
                                 0.238067  0.329433  0.279033  0.117212  0.019059  0.000156 -0.002059 -0.001377  0.000053 -0.000026
                                 0.000009 -0.000003  0.000002 -0.000000  0.002124  0.001742  0.000000  0.000000  0.000000  0.000000
                                 0.000000  0.000000  0.000000  0.000000  0.000000  0.000000  0.000000  0.000000  0.000000  0.000000
                                 0.000000

   2.3  2.00000   -33.886154    -0.000004 -0.000012 -0.000039 -0.000117 -0.000352 -0.001064 -0.003216 -0.009477 -0.026110 -0.063685
                                -0.126357 -0.184570 -0.129477  0.118102  0.422068  0.451904  0.196149  0.049137 -0.001564  0.000723
                                -0.000296  0.000091 -0.000047  0.000012 -0.045085 -0.046716  0.000000  0.000000  0.000000  0.000000
                                 0.000000  0.000000  0.000000  0.000000  0.000000  0.000000  0.000000  0.000000  0.000000  0.000000
                                 0.000000

   3.3  2.00000    -5.584149     0.000002  0.000005  0.000017  0.000051  0.000154  0.000466  0.001408  0.004165  0.011495  0.028297
                                 0.056516  0.084063  0.054288 -0.078272 -0.278571 -0.317750  0.126954  0.570525  0.434998  0.086753
                                 0.001622  0.002176 -0.000229  0.000122 -0.004447 -0.009185  0.000000  0.000000  0.000000  0.000000
                                 0.000000  0.000000  0.000000  0.000000  0.000000  0.000000  0.000000  0.000000  0.000000  0.000000
                                 0.000000

   4.3  1.66667    -0.343763    -0.000000 -0.000002 -0.000005 -0.000015 -0.000045 -0.000137 -0.000415 -0.001229 -0.003396 -0.008365
                                -0.016743 -0.024942 -0.015931  0.024742  0.087706  0.105066 -0.039033 -0.203478 -0.220633  0.116510
                                 0.467661  0.464727  0.143824  0.001316 -0.015000 -0.032832  0.000000  0.000000  0.000000  0.000000
                                 0.000000  0.000000  0.000000  0.000000  0.000000  0.000000  0.000000  0.000000  0.000000  0.000000
                                 0.000000

                                   1 3d2-    1 3d2-    1 3d2-    1 3d2-    1 3d2-    1 3d2-    1 3d2-    1 3d2-    1 3d2-    1 3d2- 
                                   1 3d2-    1 3d2-    1 3d2-    1 3d2-    1 3d2-    1 3d2-    1 3d2-    1 3d2-    1 5g2-    1 5g4- 
                                   1 5g2-    1 5g4-    1 5g2-    1 5g4-    1 5g2-    1 5g4- 

   1.4  2.00000   -23.928576     0.000017  0.000128  0.000765  0.003529  0.013183  0.039560  0.098176  0.192915  0.286800  0.312529
                                 0.208320  0.069318  0.008284  0.000420 -0.000068  0.000004 -0.000014  0.000002  0.000000  0.000000
                                 0.000000  0.000000  0.000000  0.000000  0.000000  0.000000

   2.4  2.00000    -2.302999    -0.000007 -0.000053 -0.000315 -0.001458 -0.005471 -0.016554 -0.041629 -0.082494 -0.119363 -0.118785
                                 0.000021  0.226570  0.385704  0.344552  0.162857  0.034152  0.002501  0.000097  0.000000  0.000000
                                 0.000000  0.000000  0.000000  0.000000  0.000000  0.000000

                                   1 2pz     1 2pz     1 2pz     1 2pz     1 2pz     1 2pz     1 2pz     1 2pz     1 2pz     1 2pz  
                                   1 2pz     1 2pz     1 2pz     1 2pz     1 2pz     1 2pz     1 2pz     1 2pz     1 2pz     1 2pz  
                                   1 2pz     1 2pz     1 2pz     1 2pz     1 2pz     1 2pz     1 4f0     1 4f2+    1 4f0     1 4f2+ 
                                   1 4f0     1 4f2+    1 4f0     1 4f2+    1 4f0     1 4f2+    1 4f0     1 4f2+    1 6h2+    1 6h4+ 
                                   1 6h0  

   1.5  2.00000  -173.013067     0.000008  0.000025  0.000082  0.000248  0.000747  0.002248  0.006757  0.019688  0.053245  0.125508
                                 0.238067  0.329433  0.279033  0.117212  0.019059  0.000156 -0.002059 -0.001377  0.000053 -0.000026
                                 0.000009 -0.000003  0.000002 -0.000000  0.002124  0.001742  0.000000  0.000000  0.000000  0.000000
                                 0.000000  0.000000  0.000000  0.000000  0.000000  0.000000  0.000000  0.000000  0.000000  0.000000
                                 0.000000

   2.5  2.00000   -33.886154    -0.000004 -0.000012 -0.000039 -0.000117 -0.000352 -0.001064 -0.003216 -0.009477 -0.026110 -0.063685
                                -0.126357 -0.184570 -0.129477  0.118102  0.422068  0.451904  0.196149  0.049137 -0.001564  0.000723
                                -0.000296  0.000091 -0.000047  0.000012 -0.045085 -0.046716  0.000000  0.000000  0.000000  0.000000
                                 0.000000  0.000000  0.000000  0.000000  0.000000  0.000000  0.000000  0.000000  0.000000  0.000000
                                 0.000000

   3.5  2.00000    -5.584149     0.000002  0.000005  0.000017  0.000051  0.000154  0.000466  0.001408  0.004165  0.011495  0.028297
                                 0.056516  0.084063  0.054288 -0.078272 -0.278571 -0.317750  0.126955  0.570525  0.434998  0.086753
                                 0.001622  0.002176 -0.000229  0.000122 -0.004447 -0.009185  0.000000  0.000000  0.000000  0.000000
                                 0.000000  0.000000  0.000000  0.000000  0.000000  0.000000  0.000000  0.000000  0.000000  0.000000
                                 0.000000

   4.5  1.66667    -0.343763    -0.000000 -0.000002 -0.000005 -0.000015 -0.000045 -0.000137 -0.000415 -0.001229 -0.003396 -0.008365
                                -0.016743 -0.024942 -0.015931  0.024742  0.087706  0.105066 -0.039033 -0.203478 -0.220633  0.116510
                                 0.467661  0.464727  0.143824  0.001316 -0.015000 -0.032832  0.000000  0.000000  0.000000  0.000000
                                 0.000000  0.000000  0.000000  0.000000  0.000000  0.000000  0.000000  0.000000  0.000000  0.000000
                                 0.000000

                                   1 3d1+    1 3d1+    1 3d1+    1 3d1+    1 3d1+    1 3d1+    1 3d1+    1 3d1+    1 3d1+    1 3d1+ 
                                   1 3d1+    1 3d1+    1 3d1+    1 3d1+    1 3d1+    1 3d1+    1 3d1+    1 3d1+    1 5g1+    1 5g3+ 
                                   1 5g1+    1 5g3+    1 5g1+    1 5g3+    1 5g1+    1 5g3+ 

   1.6  2.00000   -23.928576     0.000017  0.000128  0.000765  0.003529  0.013183  0.039560  0.098176  0.192915  0.286800  0.312529
                                 0.208320  0.069318  0.008284  0.000420 -0.000068  0.000004 -0.000014  0.000002  0.000000  0.000000
                                 0.000000  0.000000  0.000000  0.000000  0.000000  0.000000

   2.6  2.00000    -2.302999    -0.000007 -0.000053 -0.000315 -0.001458 -0.005471 -0.016554 -0.041629 -0.082494 -0.119363 -0.118785
                                 0.000021  0.226570  0.385704  0.344552  0.162857  0.034152  0.002501  0.000097  0.000000  0.000000
                                 0.000000  0.000000  0.000000  0.000000  0.000000  0.000000

                                   1 3d1-    1 3d1-    1 3d1-    1 3d1-    1 3d1-    1 3d1-    1 3d1-    1 3d1-    1 3d1-    1 3d1- 
                                   1 3d1-    1 3d1-    1 3d1-    1 3d1-    1 3d1-    1 3d1-    1 3d1-    1 3d1-    1 5g1-    1 5g3- 
                                   1 5g1-    1 5g3-    1 5g1-    1 5g3-    1 5g1-    1 5g3- 

   1.7  2.00000   -23.928576     0.000017  0.000128  0.000765  0.003529  0.013183  0.039560  0.098176  0.192915  0.286800  0.312529
                                 0.208320  0.069318  0.008284  0.000420 -0.000068  0.000004 -0.000014  0.000002  0.000000  0.000000
                                 0.000000  0.000000  0.000000  0.000000  0.000000  0.000000

   2.7  2.00000    -2.302999    -0.000007 -0.000053 -0.000315 -0.001458 -0.005471 -0.016554 -0.041629 -0.082494 -0.119363 -0.118785
                                 0.000021  0.226570  0.385704  0.344552  0.162857  0.034152  0.002501  0.000097  0.000000  0.000000
                                 0.000000  0.000000  0.000000  0.000000  0.000000  0.000000
 
 *** IN SYMMETRY 1 ORBITAL  4 SYMMETRY CONTAMINATION OF 0.454D-02 HAS BEEN REMOVED
 *** IN SYMMETRY 1 ORBITAL  5 SYMMETRY CONTAMINATION OF 0.454D-02 HAS BEEN REMOVED
 *** IN SYMMETRY 1 ORBITAL  7 SYMMETRY CONTAMINATION OF 0.480D-04 HAS BEEN REMOVED
 *** IN SYMMETRY 1 ORBITAL  8 SYMMETRY CONTAMINATION OF 0.480D-04 HAS BEEN REMOVED

 EXTRA SYMMETRY OF MOS IN SYMMETRY 1:   1 1 1 3 2 1 3 2 1 1   3 2 1 3 2 5 4 6 1 2   3 6 4 5 2 3 1 6 5 4   2 3 1 6 5 4 2 3 1 2
                                        3 1 2 3 1 2 3 1 2 3   2 3 1 2 3 1 2 3 1 1   2 3 1 2 3 1 2 3 1 1   1 1 1 1 1 1 1 1 1
 EXTRA SYMMETRY OF MOS IN SYMMETRY 2:   1 1 1 1 1 1 2 3 1 3   2 3 2 1 3 2 1 4 5 6   2 3 1 2 3 1 1 1 1 1   1 1 1 1 1 1 1 1 1 1
                                        1
 EXTRA SYMMETRY OF MOS IN SYMMETRY 3:   1 1 1 1 1 1 2 3 1 3   2 3 2 1 3 2 1 4 5 6   2 3 1 2 3 1 1 1 1 1   1 1 1 1 1 1 1 1 1 1
                                        1
 EXTRA SYMMETRY OF MOS IN SYMMETRY 5:   1 1 1 1 1 1 2 3 1 2   3 2 3 1 3 2 1 4 5 6   3 2 1 3 2 1 1 1 1 1   1 1 1 1 1 1 1 1 1 1
                                        1
 EXTRA SYMMETRY OF MOS IN SYMMETRY 6:   1 1 1 1 2 3 1 2 3 1   3 2 1 2 3 1 1 1 1 1   1 1 1 1 1 1
 EXTRA SYMMETRY OF MOS IN SYMMETRY 7:   1 1 1 1 2 3 1 2 3 1   3 2 1 2 3 1 1 1 1 1   1 1 1 1 1 1

 Natural orbital dump (state averaged) at molpro section  5202.2    (Orbital set 2)


 CI vector for state symmetry 1
 ==============================

 a 2 2           1.0000000

 TOTAL ENERGIES                     -7112.87074141

 CI vector for state symmetry 2
 ==============================

 2 a 2           1.0000000

 TOTAL ENERGIES                     -7112.87074141

 CI vector for state symmetry 3
 ==============================

 2 2 a           1.0000000

 TOTAL ENERGIES                     -7112.87074141



 **********************************************************************************************************************************
 DATASETS  * FILE   NREC   LENGTH (MB)   RECORD NAMES
              1      23       70.75       500      610      700      900      950      970     1000      129      960     1700   
                                          VAR    BASINP    GEOM    SYMINP    ZMAT    AOBASIS   BASIS     P2S    ABASIS    OPER   
                                         1101     1401     1411     1412     1650     1100     1400     1410     1200     1210   
                                          SR      EKINR    POTR     PVPR    MOLCAS      S      EKIN      POT      H0       H01  
                                         1080     1600     1380   
                                         AOSYM     SMH     JKOP   

              2       6        8.75       200      700     1000      520     4202     5202   
                                        OPTIONS   GEOM     BASIS   MCVARS     RHF     MCSCF   

 PROGRAMS   *        TOTAL     MULTI       POP       RHF       INT
 CPU TIMES  *        54.43      9.29      0.00      0.82     44.04
 REAL TIME  *        62.96 SEC
 DISK USED  *         1.60 GB      
 SF USED    *       201.37 MB      
 GA USED    *         0.00 MB       (max)       0.00 MB       (current)
 **********************************************************************************************************************************


 PROGRAM * RHF-SCF (OPEN SHELL)       Authors: W. Meyer, H.-J. Werner


 NUMBER OF ELECTRONS:      27+   26-    SPACE SYMMETRY=5    SPIN SYMMETRY: Doublet 
 CONVERGENCE THRESHOLDS:    1.00E-05 (Density)    1.06E-07 (Energy)
 MAX. NUMBER OF ITERATIONS:        0
 INTERPOLATION TYPE:            DIIS
 INTERPOLATION STEPS:              2 (START)      1 (STEP)
 LEVEL SHIFTS:                 -0.60 (CLOSED) -0.30 (OPEN) 

 Number of closed-shell orbitals:   26 (   9   4   4   2   3   2   2   0 )
 Number of open-shell orbitals:      1 (   0   0   0   0   1   0   0   0 )


 Molecular orbitals read from record     5202.2  Type=MCSCF/NATURAL (state averaged)

 Molecular orbital dump at record        2101.2

 ITERATION    DDIFF          GRAD             ENERGY        2-EL.EN.            DIPOLE MOMENTS         DIIS   ORB.
    1      0.000D+00      0.000D+00     -7112.87074141   5279.097883    0.00000    0.00000    0.00000    0    start

 Final alpha occupancy:   9   4   4   2   4   2   2   0
 Final beta  occupancy:   9   4   4   2   3   2   2   0

 !RHF STATE 1.5 Energy              -7112.870741408992
 Nuclear energy                         0.00000000
 One-electron energy                -9752.41968269
 Two-electron energy                 2639.54894128
 Virial quotient                       -0.84967827
 !RHF STATE 1.5 Dipole moment           0.00000000     0.00000000     0.00000000
 Dipole moment /Debye                   0.00000000     0.00000000     0.00000000

 Orbital energies:

         1.1          2.1          3.1          4.1          5.1          6.1          7.1          8.1          9.1         10.1
  -1224.979574  -192.923826   -40.510010   -23.928576   -23.928576    -7.757962    -2.302999    -2.302999    -0.876516     0.055641

        11.1
      0.164818

[...]
                                -0.000289  0.000103 -0.000042  0.000012 -0.044998 -0.046679  0.000000  0.000000  0.000000  0.000000
                                 0.000000  0.000000  0.000000  0.000000  0.000000  0.000000  0.000000  0.000000  0.000000  0.000000
                                 0.000000

   3.5  2.00000    -6.760133     0.000002  0.000005  0.000017  0.000051  0.000154  0.000466  0.001408  0.004166  0.011499  0.028304
                                 0.056534  0.084075  0.054323 -0.078345 -0.278498 -0.318583  0.122920  0.560742  0.437884  0.086387
                                -0.000102  0.001492 -0.000471  0.000127 -0.001289  0.000651  0.000000  0.000000  0.000000  0.000000
                                 0.000000  0.000000  0.000000  0.000000  0.000000  0.000000  0.000000  0.000000  0.000000  0.000000
                                 0.000000

   4.5  0.66667    -1.163242    -0.000001 -0.000002 -0.000006 -0.000018 -0.000054 -0.000165 -0.000497 -0.001473 -0.004064 -0.010032
                                -0.020033 -0.029957 -0.018899  0.029265  0.106778  0.119259 -0.087206 -0.299697 -0.266663  0.151941
                                 0.720902  0.314111 -0.013495  0.004544  0.012699  0.022865  0.000000  0.000000  0.000000  0.000000
                                 0.000000  0.000000  0.000000  0.000000  0.000000  0.000000  0.000000  0.000000  0.000000  0.000000
                                 0.000000

                                   1 3d1+    1 3d1+    1 3d1+    1 3d1+    1 3d1+    1 3d1+    1 3d1+    1 3d1+    1 3d1+    1 3d1+ 
                                   1 3d1+    1 3d1+    1 3d1+    1 3d1+    1 3d1+    1 3d1+    1 3d1+    1 3d1+    1 5g1+    1 5g3+ 
                                   1 5g1+    1 5g3+    1 5g1+    1 5g3+    1 5g1+    1 5g3+ 

   1.6  2.00000   -25.119946     0.000017  0.000128  0.000765  0.003529  0.013185  0.039567  0.098191  0.192943  0.286829  0.312543
                                 0.208306  0.069217  0.008255  0.000427 -0.000057  0.000014 -0.000010  0.000003  0.000000  0.000000
                                 0.000000  0.000000  0.000000  0.000000  0.000000  0.000000

   2.6  2.00000    -3.477465    -0.000007 -0.000053 -0.000316 -0.001465 -0.005498 -0.016633 -0.041836 -0.082884 -0.119960 -0.119264
                                 0.000075  0.228240  0.387056  0.347359  0.161740  0.025035  0.000105  0.000065  0.000000  0.000000
                                 0.000000  0.000000  0.000000  0.000000  0.000000  0.000000

                                   1 3d1-    1 3d1-    1 3d1-    1 3d1-    1 3d1-    1 3d1-    1 3d1-    1 3d1-    1 3d1-    1 3d1- 
                                   1 3d1-    1 3d1-    1 3d1-    1 3d1-    1 3d1-    1 3d1-    1 3d1-    1 3d1-    1 5g1-    1 5g3- 
                                   1 5g1-    1 5g3-    1 5g1-    1 5g3-    1 5g1-    1 5g3- 

   1.7  2.00000   -25.119946     0.000017  0.000128  0.000765  0.003529  0.013185  0.039567  0.098191  0.192943  0.286829  0.312543
                                 0.208306  0.069217  0.008255  0.000427 -0.000057  0.000014 -0.000010  0.000003  0.000000  0.000000
                                 0.000000  0.000000  0.000000  0.000000  0.000000  0.000000

   2.7  2.00000    -3.477465    -0.000007 -0.000053 -0.000316 -0.001465 -0.005498 -0.016633 -0.041836 -0.082884 -0.119960 -0.119264
                                 0.000075  0.228240  0.387056  0.347359  0.161740  0.025035  0.000105  0.000065  0.000000  0.000000
                                 0.000000  0.000000  0.000000  0.000000  0.000000  0.000000

 Total charge:   3.000000000000
 
 *** IN SYMMETRY 1 ORBITAL  4 SYMMETRY CONTAMINATION OF 0.539D-04 HAS BEEN REMOVED
 *** IN SYMMETRY 1 ORBITAL  5 SYMMETRY CONTAMINATION OF 0.539D-04 HAS BEEN REMOVED
 *** IN SYMMETRY 1 ORBITAL  7 SYMMETRY CONTAMINATION OF 0.388D-04 HAS BEEN REMOVED
 *** IN SYMMETRY 1 ORBITAL  8 SYMMETRY CONTAMINATION OF 0.388D-04 HAS BEEN REMOVED

 EXTRA SYMMETRY OF MOS IN SYMMETRY 1:   1 1 1 2 3 1 2 3 1 1   3 2 1 2 3 1 5 6 4 2   3 5 6 4 2 3 1 6 4 5   2 3 1 6 4 5 2 3 1 2
                                        3 1 2 3 1 2 3 1 2 3   2 3 1 2 3 1 2 3 1 1   2 3 1 2 3 1 3 2 1 1   1 1 1 1 1 1 1 1 1
 EXTRA SYMMETRY OF MOS IN SYMMETRY 2:   1 1 1 1 1 2 3 1 3 2   1 3 2 1 3 2 1 4 5 6   2 3 1 2 3 1 1 1 1 1   1 1 1 1 1 1 1 1 1 1
                                        1
 EXTRA SYMMETRY OF MOS IN SYMMETRY 3:   1 1 1 1 1 2 3 1 3 2   1 3 2 1 3 2 1 4 5 6   2 3 1 2 3 1 1 1 1 1   1 1 1 1 1 1 1 1 1 1
                                        1
 EXTRA SYMMETRY OF MOS IN SYMMETRY 5:   1 1 1 1 1 2 3 1 2 3   1 2 3 1 3 2 1 6 4 5   3 2 1 2 3 1 1 1 1 1   1 1 1 1 1 1 1 1 1 1
                                        1
 EXTRA SYMMETRY OF MOS IN SYMMETRY 6:   1 1 1 1 2 3 1 2 3 1   3 2 1 2 3 1 1 1 1 1   1 1 1 1 1 1
 EXTRA SYMMETRY OF MOS IN SYMMETRY 7:   1 1 1 1 3 2 1 2 3 1   3 2 1 2 3 1 1 1 1 1   1 1 1 1 1 1

 Natural orbital dump (state averaged) at molpro section  5202.2    (Orbital set 2)


 CI vector for state symmetry 1
 ==============================

 a a 0           1.0000000

 TOTAL ENERGIES                     -7110.77515766

 CI vector for state symmetry 2
 ==============================

 a 0 a           1.0000000

 TOTAL ENERGIES                     -7110.77515766

 CI vector for state symmetry 3
 ==============================

 0 a a           1.0000000

 TOTAL ENERGIES                     -7110.77515766



 **********************************************************************************************************************************
 DATASETS  * FILE   NREC   LENGTH (MB)   RECORD NAMES
              1      23       70.75       500      610      700      900      950      970     1000      129      960     1700   
                                          VAR    BASINP    GEOM    SYMINP    ZMAT    AOBASIS   BASIS     P2S    ABASIS    OPER   
                                         1101     1401     1411     1412     1650     1100     1400     1410     1200     1210   
                                          SR      EKINR    POTR     PVPR    MOLCAS      S      EKIN      POT      H0       H01  
                                         1080     1600     1380   
                                         AOSYM     SMH     JKOP   

              2       7       11.85       200      700     1000      520     4202     5202     2101   
                                        OPTIONS   GEOM     BASIS   MCVARS     RHF     MCSCF     RHF  

 PROGRAMS   *        TOTAL     MULTI       POP       RHF  RCCSD(T)       RHF     MULTI       POP       RHF       INT
 CPU TIMES  *       371.97      7.25      0.00      1.41    308.24      0.33      9.29      0.00      0.82     44.04
 REAL TIME  *       480.29 SEC
 DISK USED  *        20.07 GB      
 SF USED    *         2.51 GB      
 GA USED    *         0.00 MB       (max)       0.00 MB       (current)
 **********************************************************************************************************************************


 PROGRAM * RHF-SCF (OPEN SHELL)       Authors: W. Meyer, H.-J. Werner


 NUMBER OF ELECTRONS:      26+   24-    SPACE SYMMETRY=4    SPIN SYMMETRY: Triplet 
 CONVERGENCE THRESHOLDS:    1.00E-05 (Density)    1.00E-07 (Energy)
 MAX. NUMBER OF ITERATIONS:        0
 INTERPOLATION TYPE:            DIIS
 INTERPOLATION STEPS:              2 (START)      1 (STEP)
 LEVEL SHIFTS:                 -0.60 (CLOSED) -0.30 (OPEN) 

 Number of closed-shell orbitals:   24 (   9   3   3   2   3   2   2   0 )
 Number of open-shell orbitals:      2 (   0   1   1   0   0   0   0   0 )


 Molecular orbitals read from record     5202.2  Type=MCSCF/NATURAL (state averaged)

 Molecular orbital dump at record        2121.2

 ITERATION    DDIFF          GRAD             ENERGY        2-EL.EN.            DIPOLE MOMENTS         DIIS   ORB.
    1      0.000D+00      0.000D+00     -7110.77515766   5159.910522    0.00000    0.00000    0.00000    0    start

 Final alpha occupancy:   9   4   4   2   3   2   2   0
 Final beta  occupancy:   9   3   3   2   3   2   2   0

 !RHF STATE 1.4 Energy              -7110.775157658692
 Nuclear energy                         0.00000000
 One-electron energy                -9690.73041841
 Two-electron energy                 2579.95526075
 Virial quotient                       -0.84963406
 !RHF STATE 1.4 Dipole moment           0.00000000     0.00000000     0.00000000
 Dipole moment /Debye                   0.00000000     0.00000000     0.00000000

 Orbital energies:

         1.1          2.1          3.1          4.1          5.1          6.1          7.1          8.1          9.1         10.1
  -1226.185281  -194.120750   -41.701324   -25.119946   -25.119946    -8.938625    -3.477465    -3.477465    -1.880558    -0.530681

        11.1
     -0.528667

         1.2          2.2          3.2          4.2          5.2          6.2
   -174.209741   -35.075399    -6.760133    -1.163242    -0.425096    -0.268940

         1.3          2.3          3.3          4.3          5.3          6.3
   -174.209741   -35.075399    -6.760133    -1.163242    -0.425096    -0.268940

         1.4          2.4          3.4          4.4
    -25.119946    -3.477465    -0.528667    -0.242276

         1.5          2.5          3.5          4.5          5.5
   -174.209741   -35.075399    -6.760133    -1.163242    -0.425096

         1.6          2.6          3.6          4.6
    -25.119946    -3.477465    -0.528667    -0.242276

         1.7          2.7          3.7          4.7
    -25.119946    -3.477465    -0.528667    -0.242276

         1.8          2.8
     -0.268940     0.049464

 HOMO      4.2    -1.163242 =     -31.6534eV
 LUMO      4.5    -1.163242 =     -31.6534eV
 LUMO-HOMO        -0.000000 =      -0.0000eV


 **********************************************************************************************************************************
 DATASETS  * FILE   NREC   LENGTH (MB)   RECORD NAMES
              1      23       70.75       500      610      700      900      950      970     1000      129      960     1700   
                                          VAR    BASINP    GEOM    SYMINP    ZMAT    AOBASIS   BASIS     P2S    ABASIS    OPER   
                                         1101     1401     1411     1412     1650     1100     1400     1410     1200     1210   
                                          SR      EKINR    POTR     PVPR    MOLCAS      S      EKIN      POT      H0       H01  
                                         1080     1600     1380   
                                         AOSYM     SMH     JKOP   

              2       8       14.89       200      700     1000      520     4202     5202     2101     2121   
                                        OPTIONS   GEOM     BASIS   MCVARS     RHF     MCSCF     RHF      RHF  

 PROGRAMS   *        TOTAL       RHF     MULTI       POP       RHF  RCCSD(T)       RHF     MULTI       POP       RHF       INT
 CPU TIMES  *       372.31      0.33      7.25      0.00      1.41    308.24      0.33      9.29      0.00      0.82     44.04
 REAL TIME  *       480.77 SEC
 DISK USED  *        20.07 GB      
 SF USED    *         2.51 GB      
 GA USED    *         0.00 MB       (max)       0.00 MB       (current)
 **********************************************************************************************************************************
 SETTING SCF(2)         =     -7110.77515766  AU                              
 SETTING _CC_NORM_MAX   =         2.00000000                                  


 PROGRAM * CCSD (Restricted open-shell coupled cluster)     Authors: C. Hampel, H.-J. Werner, 1991, M. Deegan, P.J. Knowles, 1992


 Convergence thresholds:  THRVAR = 1.00D-08  THRDEN = 1.00D-06

 CCSD(T)     terms to be evaluated (factor= 1.000)


 Number of closed-shell orbitals:  24 (   9   3   3   2   3   2   2   0 )
 Number of active  orbitals:        2 (   0   1   1   0   0   0   0   0 )
 Number of external orbitals:     262 (  70  37  37  24  38  24  24   8 )

 Memory could be reduced to 123.32 Mwords without degradation in triples

 Number of N-1 electron functions:              50
 Number of N-2 electron functions:            1225
 Number of singly external CSFs:              2308
 Number of doubly external CSFs:           8362964
 Total number of CSFs:                     8365272

 Molecular orbitals read from record     2121.2  Type=RHF/CANONICAL (state 1.4)

 Integral transformation finished. Total CPU:   2.44 sec, npass=  1  Memory used:  22.82 MW

 Starting RMP2 calculation

 Wavefunction is spin-projected

 ITER.      SQ.NORM     CORR.ENERGY   TOTAL ENERGY   ENERGY CHANGE        DEN1      VAR(S)    VAR(P)  DIIS     TIME
   1      1.11015562    -1.83930642 -7112.61446408    -1.83930642    -0.00070362  0.91D-05  0.20D-03  1  1     5.76
   2      1.11065499    -1.84003680 -7112.61519446    -0.00073038    -0.00000243  0.30D-07  0.11D-05  2  2     9.05
   3      1.11068927    -1.84006448 -7112.61522214    -0.00002768    -0.00000000  0.15D-10  0.75D-09  3  3    12.09
   4      1.11068956    -1.84006449 -7112.61522214    -0.00000001    -0.00000000  0.11D-12  0.11D-11  4  4    15.13

 Norm of t1 vector:      0.03941195      S-energy:    -0.00390358      T1 diagnostic:  0.00116200
 Norm of t2 vector:      0.33035778      P-energy:    -1.83616091
                                         Alpha-Beta:  -1.21538360
                                         Alpha-Alpha: -0.32396407
                                         Beta-Beta:   -0.29681325

 Spin contamination <S**2-Sz**2-Sz>     0.00000000
  Reference energy                  -7110.775157658702
  RHF-RMP2 correlation energy          -1.840064485594
 !RHF-RMP2 energy                   -7112.615222144297
 (NB above energy spin projected)

 Starting RCCSD calculation

 ITER.      SQ.NORM     CORR.ENERGY   TOTAL ENERGY   ENERGY CHANGE        DEN1      VAR(S)    VAR(P)  DIIS     TIME
   1      1.09376115    -1.73218582 -7112.50734348    -1.73218582    -0.02209914  0.94D-03  0.18D-02  0  0    25.22
   2      1.09916251    -1.75345116 -7112.52860882    -0.02126534    -0.00068605  0.17D-04  0.12D-03  1  1    37.58
   3      1.09951540    -1.75175802 -7112.52691568     0.00169314    -0.00004509  0.66D-05  0.13D-04  2  2    50.92
   4      1.10006972    -1.75225900 -7112.52741666    -0.00050098    -0.00000179  0.10D-06  0.71D-06  3  3    62.29
   5      1.10014220    -1.75227565 -7112.52743331    -0.00001665    -0.00000019  0.11D-07  0.79D-07  4  4    73.80
   6      1.10016927    -1.75228118 -7112.52743884    -0.00000553    -0.00000001  0.52D-09  0.18D-08  5  5    85.47
   7      1.10017160    -1.75228200 -7112.52743966    -0.00000082    -0.00000000  0.31D-10  0.48D-10  6  6    96.96

 Norm of t1 vector:      0.05405412      S-energy:    -0.00395504      T1 diagnostic:  0.00377300
                                                                       D1 diagnostic:  0.01993927
 Norm of t2 vector:      0.31184893      P-energy:    -1.74832696
                                         Alpha-Beta:  -1.18217352
                                         Alpha-Alpha: -0.29532100
                                         Beta-Beta:   -0.27083245

 Doubles amplitudes (print threshold =  0.500E-01):

         I         J         SYM. A    SYM. B    A         B      T(IJ, AB) [Alpha-Beta]

         9         9         5         5         1         1     -0.07131121

 Spin contamination <S**2-Sz**2-Sz>     0.00000000

 Memory could be reduced to 122.05 Mwords without degradation in triples
 

  Correlated core orbitals:             1.1       2.1       3.1       4.1       5.1       6.1       7.1       8.1       1.2       2.2
                                        3.2       1.3       2.3       3.3       1.4       2.4       1.5       2.5       3.5       1.6
                                        2.6       1.7       2.7
  Orbital energies:                 -1226.1883 -194.1226  -41.7051  -25.1262  -25.1191   -8.9499   -3.4972   -3.4772 -174.2140  -35.0802
                                       -6.7712 -174.2140  -35.0802   -6.7712  -25.1191   -3.4772 -174.2116  -35.0816   -6.7760  -25.1244
                                       -3.4922  -25.1244   -3.4922
 
  RCCSD core-core energy               -1.522701521843
  RCCSD core-valence energy            -0.169870149618
  RCCSD valence correlation energy     -0.059710331515
 

 RESULTS
 =======

  Reference energy                  -7110.775157658702
  RCCSD singles energy                 -0.003955038863
  RCCSD pair energy                    -1.748326964112
  RCCSD correlation energy             -1.752282002976
  Triples (T) contribution             -0.023986662251
  Total correlation energy             -1.776268665227
 
  RHF-RCCSD energy                  -7112.527439661678
  RHF-RCCSD[T] energy               -7112.551629214666
  RHF-RCCSD-T energy                -7112.551342982162
 !RHF-RCCSD(T) energy               -7112.551426323929

 Program statistics:

 Available memory in ccsd:               511994232
 Min. memory needed in ccsd:              23136291
 Max. memory used in ccsd:                33918651
 Max. memory used in cckext:              27646979 ( 7 integral passes)
 Max. memory used in cckint:              22815409 ( 1 integral passes)



 **********************************************************************************************************************************
 DATASETS  * FILE   NREC   LENGTH (MB)   RECORD NAMES
              1      23       70.75       500      610      700      900      950      970     1000      129      960     1700   
                                          VAR    BASINP    GEOM    SYMINP    ZMAT    AOBASIS   BASIS     P2S    ABASIS    OPER   
                                         1101     1401     1411     1412     1650     1100     1400     1410     1200     1210   
                                          SR      EKINR    POTR     PVPR    MOLCAS      S      EKIN      POT      H0       H01  
                                         1080     1600     1380   
                                         AOSYM     SMH     JKOP   

              2       8       14.89       200      700     1000      520     4202     5202     2101     2121   
                                        OPTIONS   GEOM     BASIS   MCVARS     RHF     MCSCF     RHF      RHF  

 PROGRAMS   *        TOTAL  RCCSD(T)       RHF     MULTI       POP       RHF  RCCSD(T)       RHF     MULTI       POP       RHF
 CPU TIMES  *       653.23    280.86      0.33      7.25      0.00      1.41    308.24      0.33      9.29      0.00      0.82
 REAL TIME  *       826.80 SEC
 DISK USED  *        20.07 GB      
 SF USED    *         2.51 GB      
 GA USED    *         0.00 MB       (max)       0.00 MB       (current)
 **********************************************************************************************************************************
 SETTING CCSD(2)        =     -7112.55142632  AU                              
 Output type csv         
                                                                                                                                                                                                                                                                

         SCF,CCSD
   -7112.870741,   -7114.752161
   -7110.775158,   -7112.551426
                                                  

 RCCSD(T)/USERDEF energy=  -7112.551426323929

        RCCSD(T)        RHF-SCF         MULTI           RHF-SCF         RCCSD(T)        RHF-SCF         MULTI           RHF-SCF 
  -7112.55142632  -7110.77515766  -7110.77515766  -7110.77609700  -7114.75216071  -7112.87074141  -7112.87074141  -7112.87307415
 **********************************************************************************************************************************
 Molpro calculation terminated
 Variable memory released
