/global/cscratch1/sd/bkincaid/cutoffs/W/250-610/runs/scf_440

     Program PWSCF v.6.4.1 starts on 17Jan2022 at 19:50: 2 

     This program is part of the open-source Quantum ESPRESSO suite
     for quantum simulation of materials; please cite
         "P. Giannozzi et al., J. Phys.:Condens. Matter 21 395502 (2009);
         "P. Giannozzi et al., J. Phys.:Condens. Matter 29 465901 (2017);
          URL http://www.quantum-espresso.org", 
     in publications or presentations arising from this work. More details at
     http://www.quantum-espresso.org/quote

     Parallel version (MPI & OpenMP), running on      32 processor cores
     Number of MPI processes:                32
     Threads/MPI process:                     1

     MPI processes distributed on     1 nodes
     R & G space division:  proc/nbgrp/npool/nimage =      32
     Reading input from scf_440.in

     Current dimensions of program PWSCF are:
     Max number of different atomic species (ntypx) = 10
     Max number of k-points (npk) =  40000
     Max angular momentum in pseudopotentials (lmaxx) =  3

     IMPORTANT: XC functional enforced from input :
     Exchange-correlation      = PBE ( 1  4  3  4 0 0)
     Any further DFT definition will be discarded
     Please, verify this is what you really want


     gamma-point specific algorithms are used

     Subspace diagonalization in iterative solution of the eigenvalue problem:
     one sub-group per band group will be used
     scalapack distributed-memory algorithm (size of sub-group:  4*  4 procs)

     Message from routine setup:
     DEPRECATED: symmetry with ibrav=0, use correct ibrav instead
 
     Parallelization info
     --------------------
     sticks:   dense  smooth     PW     G-vecs:    dense   smooth      PW
     Min        2250    2250    561               454390   454390   56794
     Max        2252    2252    564               454400   454400   56800
     Sum       72033   72033  18009             14540575 14540575 1817535
 


     bravais-lattice index     =            0
     lattice parameter (alat)  =      22.6767  a.u.
     unit-cell volume          =   11661.1222 (a.u.)^3
     number of atoms/cell      =            1
     number of atomic types    =            1
     number of electrons       =        14.00 (up:   9.00, down:   5.00)
     number of Kohn-Sham states=           12
     kinetic-energy cutoff     =     440.0000  Ry
     charge density cutoff     =    1760.0000  Ry
     convergence threshold     =      1.0E-06
     mixing beta               =       0.7000
     number of iterations used =            8  plain     mixing
     Exchange-correlation      = PBE ( 1  4  3  4 0 0)

     celldm(1)=  22.676714  celldm(2)=   0.000000  celldm(3)=   0.000000
     celldm(4)=   0.000000  celldm(5)=   0.000000  celldm(6)=   0.000000

     crystal axes: (cart. coord. in units of alat)
               a(1) = (   1.000000   0.000000   0.000000 )  
               a(2) = (   0.000000   1.000000   0.000000 )  
               a(3) = (   0.000000   0.000000   1.000000 )  

     reciprocal axes: (cart. coord. in units 2 pi/alat)
               b(1) = (  1.000000  0.000000  0.000000 )  
               b(2) = (  0.000000  1.000000  0.000000 )  
               b(3) = (  0.000000  0.000000  1.000000 )  


     PseudoPot. # 1 for W  read from file:
     ./W.upf
     MD5 check sum: 4ed05a8c0c5f577ff01fd4795b4ecf91
     Pseudo is Norm-conserving, Zval = 14.0
     Generated by new atomic code, or converted to UPF format
     Using radial grid of 1187 points,  3 beta functions with: 
                l(1) =   0
                l(2) =   2
                l(3) =   3

     atomic species   valence    mass     pseudopotential
        W             14.00   183.85000     W ( 1.00)

     Starting magnetic structure 
     atomic species   magnetization
        W            0.500

     48 Sym. Ops., with inversion, found


                                    s                        frac. trans.

      isym =  1     identity                                     

 cryst.   s( 1) = (     1          0          0      )
                  (     0          1          0      )
                  (     0          0          1      )

 cart.    s( 1) = (  1.0000000  0.0000000  0.0000000 )
                  (  0.0000000  1.0000000  0.0000000 )
                  (  0.0000000  0.0000000  1.0000000 )


      isym =  2     180 deg rotation - cart. axis [0,0,1]        

 cryst.   s( 2) = (    -1          0          0      )
                  (     0         -1          0      )
                  (     0          0          1      )

 cart.    s( 2) = ( -1.0000000  0.0000000  0.0000000 )
                  (  0.0000000 -1.0000000  0.0000000 )
                  (  0.0000000  0.0000000  1.0000000 )


      isym =  3     180 deg rotation - cart. axis [0,1,0]        

 cryst.   s( 3) = (    -1          0          0      )
                  (     0          1          0      )
                  (     0          0         -1      )

 cart.    s( 3) = ( -1.0000000  0.0000000  0.0000000 )
                  (  0.0000000  1.0000000  0.0000000 )
                  (  0.0000000  0.0000000 -1.0000000 )


      isym =  4     180 deg rotation - cart. axis [1,0,0]        

 cryst.   s( 4) = (     1          0          0      )
                  (     0         -1          0      )
                  (     0          0         -1      )

 cart.    s( 4) = (  1.0000000  0.0000000  0.0000000 )
                  (  0.0000000 -1.0000000  0.0000000 )
                  (  0.0000000  0.0000000 -1.0000000 )


      isym =  5     180 deg rotation - cart. axis [1,1,0]        

 cryst.   s( 5) = (     0          1          0      )
                  (     1          0          0      )
                  (     0          0         -1      )

 cart.    s( 5) = (  0.0000000  1.0000000  0.0000000 )
                  (  1.0000000  0.0000000  0.0000000 )
                  (  0.0000000  0.0000000 -1.0000000 )


      isym =  6     180 deg rotation - cart. axis [1,-1,0]       

 cryst.   s( 6) = (     0         -1          0      )
                  (    -1          0          0      )
                  (     0          0         -1      )

 cart.    s( 6) = (  0.0000000 -1.0000000  0.0000000 )
                  ( -1.0000000  0.0000000  0.0000000 )
                  (  0.0000000  0.0000000 -1.0000000 )


      isym =  7      90 deg rotation - cart. axis [0,0,-1]       

 cryst.   s( 7) = (     0         -1          0      )
                  (     1          0          0      )
                  (     0          0          1      )

 cart.    s( 7) = (  0.0000000  1.0000000  0.0000000 )
                  ( -1.0000000  0.0000000  0.0000000 )
                  (  0.0000000  0.0000000  1.0000000 )


      isym =  8      90 deg rotation - cart. axis [0,0,1]        

 cryst.   s( 8) = (     0          1          0      )
                  (    -1          0          0      )
                  (     0          0          1      )

 cart.    s( 8) = (  0.0000000 -1.0000000  0.0000000 )
                  (  1.0000000  0.0000000  0.0000000 )
                  (  0.0000000  0.0000000  1.0000000 )


      isym =  9     180 deg rotation - cart. axis [1,0,1]        

 cryst.   s( 9) = (     0          0          1      )
                  (     0         -1          0      )
                  (     1          0          0      )

 cart.    s( 9) = (  0.0000000  0.0000000  1.0000000 )
                  (  0.0000000 -1.0000000  0.0000000 )
                  (  1.0000000  0.0000000  0.0000000 )


      isym = 10     180 deg rotation - cart. axis [-1,0,1]       

 cryst.   s(10) = (     0          0         -1      )
                  (     0         -1          0      )
                  (    -1          0          0      )

 cart.    s(10) = (  0.0000000  0.0000000 -1.0000000 )
                  (  0.0000000 -1.0000000  0.0000000 )
                  ( -1.0000000  0.0000000  0.0000000 )


      isym = 11      90 deg rotation - cart. axis [0,1,0]        

 cryst.   s(11) = (     0          0         -1      )
                  (     0          1          0      )
                  (     1          0          0      )

 cart.    s(11) = (  0.0000000  0.0000000  1.0000000 )
                  (  0.0000000  1.0000000  0.0000000 )
                  ( -1.0000000  0.0000000  0.0000000 )


      isym = 12      90 deg rotation - cart. axis [0,-1,0]       

 cryst.   s(12) = (     0          0          1      )
                  (     0          1          0      )
                  (    -1          0          0      )

 cart.    s(12) = (  0.0000000  0.0000000 -1.0000000 )
                  (  0.0000000  1.0000000  0.0000000 )
                  (  1.0000000  0.0000000  0.0000000 )


      isym = 13     180 deg rotation - cart. axis [0,1,1]        

 cryst.   s(13) = (    -1          0          0      )
                  (     0          0          1      )
                  (     0          1          0      )

 cart.    s(13) = ( -1.0000000  0.0000000  0.0000000 )
                  (  0.0000000  0.0000000  1.0000000 )
                  (  0.0000000  1.0000000  0.0000000 )


      isym = 14     180 deg rotation - cart. axis [0,1,-1]       

 cryst.   s(14) = (    -1          0          0      )
                  (     0          0         -1      )
                  (     0         -1          0      )

 cart.    s(14) = ( -1.0000000  0.0000000  0.0000000 )
                  (  0.0000000  0.0000000 -1.0000000 )
                  (  0.0000000 -1.0000000  0.0000000 )


      isym = 15      90 deg rotation - cart. axis [-1,0,0]       

 cryst.   s(15) = (     1          0          0      )
                  (     0          0         -1      )
                  (     0          1          0      )

 cart.    s(15) = (  1.0000000  0.0000000  0.0000000 )
                  (  0.0000000  0.0000000  1.0000000 )
                  (  0.0000000 -1.0000000  0.0000000 )


      isym = 16      90 deg rotation - cart. axis [1,0,0]        

 cryst.   s(16) = (     1          0          0      )
                  (     0          0          1      )
                  (     0         -1          0      )

 cart.    s(16) = (  1.0000000  0.0000000  0.0000000 )
                  (  0.0000000  0.0000000 -1.0000000 )
                  (  0.0000000  1.0000000  0.0000000 )


      isym = 17     120 deg rotation - cart. axis [-1,-1,-1]     

 cryst.   s(17) = (     0          0          1      )
                  (     1          0          0      )
                  (     0          1          0      )

 cart.    s(17) = (  0.0000000  1.0000000  0.0000000 )
                  (  0.0000000  0.0000000  1.0000000 )
                  (  1.0000000  0.0000000  0.0000000 )


      isym = 18     120 deg rotation - cart. axis [-1,1,1]       

 cryst.   s(18) = (     0          0         -1      )
                  (    -1          0          0      )
                  (     0          1          0      )

 cart.    s(18) = (  0.0000000 -1.0000000  0.0000000 )
                  (  0.0000000  0.0000000  1.0000000 )
                  ( -1.0000000  0.0000000  0.0000000 )


      isym = 19     120 deg rotation - cart. axis [1,1,-1]       

 cryst.   s(19) = (     0          0         -1      )
                  (     1          0          0      )
                  (     0         -1          0      )

 cart.    s(19) = (  0.0000000  1.0000000  0.0000000 )
                  (  0.0000000  0.0000000 -1.0000000 )
                  ( -1.0000000  0.0000000  0.0000000 )


      isym = 20     120 deg rotation - cart. axis [1,-1,1]       

 cryst.   s(20) = (     0          0          1      )
                  (    -1          0          0      )
                  (     0         -1          0      )

 cart.    s(20) = (  0.0000000 -1.0000000  0.0000000 )
                  (  0.0000000  0.0000000 -1.0000000 )
                  (  1.0000000  0.0000000  0.0000000 )


      isym = 21     120 deg rotation - cart. axis [1,1,1]        

 cryst.   s(21) = (     0          1          0      )
                  (     0          0          1      )
                  (     1          0          0      )

 cart.    s(21) = (  0.0000000  0.0000000  1.0000000 )
                  (  1.0000000  0.0000000  0.0000000 )
                  (  0.0000000  1.0000000  0.0000000 )


      isym = 22     120 deg rotation - cart. axis [-1,1,-1]      

 cryst.   s(22) = (     0         -1          0      )
                  (     0          0         -1      )
                  (     1          0          0      )

 cart.    s(22) = (  0.0000000  0.0000000  1.0000000 )
                  ( -1.0000000  0.0000000  0.0000000 )
                  (  0.0000000 -1.0000000  0.0000000 )


      isym = 23     120 deg rotation - cart. axis [1,-1,-1]      

 cryst.   s(23) = (     0         -1          0      )
                  (     0          0          1      )
                  (    -1          0          0      )

 cart.    s(23) = (  0.0000000  0.0000000 -1.0000000 )
                  ( -1.0000000  0.0000000  0.0000000 )
                  (  0.0000000  1.0000000  0.0000000 )


      isym = 24     120 deg rotation - cart. axis [-1,-1,1]      

 cryst.   s(24) = (     0          1          0      )
                  (     0          0         -1      )
                  (    -1          0          0      )

 cart.    s(24) = (  0.0000000  0.0000000 -1.0000000 )
                  (  1.0000000  0.0000000  0.0000000 )
                  (  0.0000000 -1.0000000  0.0000000 )


      isym = 25     inversion                                    

 cryst.   s(25) = (    -1          0          0      )
                  (     0         -1          0      )
                  (     0          0         -1      )

 cart.    s(25) = ( -1.0000000  0.0000000  0.0000000 )
                  (  0.0000000 -1.0000000  0.0000000 )
                  (  0.0000000  0.0000000 -1.0000000 )


      isym = 26     inv. 180 deg rotation - cart. axis [0,0,1]   

 cryst.   s(26) = (     1          0          0      )
                  (     0          1          0      )
                  (     0          0         -1      )

 cart.    s(26) = (  1.0000000  0.0000000  0.0000000 )
                  (  0.0000000  1.0000000  0.0000000 )
                  (  0.0000000  0.0000000 -1.0000000 )


      isym = 27     inv. 180 deg rotation - cart. axis [0,1,0]   

 cryst.   s(27) = (     1          0          0      )
                  (     0         -1          0      )
                  (     0          0          1      )

 cart.    s(27) = (  1.0000000  0.0000000  0.0000000 )
                  (  0.0000000 -1.0000000  0.0000000 )
                  (  0.0000000  0.0000000  1.0000000 )


      isym = 28     inv. 180 deg rotation - cart. axis [1,0,0]   

 cryst.   s(28) = (    -1          0          0      )
                  (     0          1          0      )
                  (     0          0          1      )

 cart.    s(28) = ( -1.0000000  0.0000000  0.0000000 )
                  (  0.0000000  1.0000000  0.0000000 )
                  (  0.0000000  0.0000000  1.0000000 )


      isym = 29     inv. 180 deg rotation - cart. axis [1,1,0]   

 cryst.   s(29) = (     0         -1          0      )
                  (    -1          0          0      )
                  (     0          0          1      )

 cart.    s(29) = (  0.0000000 -1.0000000  0.0000000 )
                  ( -1.0000000  0.0000000  0.0000000 )
                  (  0.0000000  0.0000000  1.0000000 )


      isym = 30     inv. 180 deg rotation - cart. axis [1,-1,0]  

 cryst.   s(30) = (     0          1          0      )
                  (     1          0          0      )
                  (     0          0          1      )

 cart.    s(30) = (  0.0000000  1.0000000  0.0000000 )
                  (  1.0000000  0.0000000  0.0000000 )
                  (  0.0000000  0.0000000  1.0000000 )


      isym = 31     inv.  90 deg rotation - cart. axis [0,0,-1]  

 cryst.   s(31) = (     0          1          0      )
                  (    -1          0          0      )
                  (     0          0         -1      )

 cart.    s(31) = (  0.0000000 -1.0000000  0.0000000 )
                  (  1.0000000  0.0000000  0.0000000 )
                  (  0.0000000  0.0000000 -1.0000000 )


      isym = 32     inv.  90 deg rotation - cart. axis [0,0,1]   

 cryst.   s(32) = (     0         -1          0      )
                  (     1          0          0      )
                  (     0          0         -1      )

 cart.    s(32) = (  0.0000000  1.0000000  0.0000000 )
                  ( -1.0000000  0.0000000  0.0000000 )
                  (  0.0000000  0.0000000 -1.0000000 )


      isym = 33     inv. 180 deg rotation - cart. axis [1,0,1]   

 cryst.   s(33) = (     0          0         -1      )
                  (     0          1          0      )
                  (    -1          0          0      )

 cart.    s(33) = (  0.0000000  0.0000000 -1.0000000 )
                  (  0.0000000  1.0000000  0.0000000 )
                  ( -1.0000000  0.0000000  0.0000000 )


      isym = 34     inv. 180 deg rotation - cart. axis [-1,0,1]  

 cryst.   s(34) = (     0          0          1      )
                  (     0          1          0      )
                  (     1          0          0      )

 cart.    s(34) = (  0.0000000  0.0000000  1.0000000 )
                  (  0.0000000  1.0000000  0.0000000 )
                  (  1.0000000  0.0000000  0.0000000 )


      isym = 35     inv.  90 deg rotation - cart. axis [0,1,0]   

 cryst.   s(35) = (     0          0          1      )
                  (     0         -1          0      )
                  (    -1          0          0      )

 cart.    s(35) = (  0.0000000  0.0000000 -1.0000000 )
                  (  0.0000000 -1.0000000  0.0000000 )
                  (  1.0000000  0.0000000  0.0000000 )


      isym = 36     inv.  90 deg rotation - cart. axis [0,-1,0]  

 cryst.   s(36) = (     0          0         -1      )
                  (     0         -1          0      )
                  (     1          0          0      )

 cart.    s(36) = (  0.0000000  0.0000000  1.0000000 )
                  (  0.0000000 -1.0000000  0.0000000 )
                  ( -1.0000000  0.0000000  0.0000000 )


      isym = 37     inv. 180 deg rotation - cart. axis [0,1,1]   

 cryst.   s(37) = (     1          0          0      )
                  (     0          0         -1      )
                  (     0         -1          0      )

 cart.    s(37) = (  1.0000000  0.0000000  0.0000000 )
                  (  0.0000000  0.0000000 -1.0000000 )
                  (  0.0000000 -1.0000000  0.0000000 )


      isym = 38     inv. 180 deg rotation - cart. axis [0,1,-1]  

 cryst.   s(38) = (     1          0          0      )
                  (     0          0          1      )
                  (     0          1          0      )

 cart.    s(38) = (  1.0000000  0.0000000  0.0000000 )
                  (  0.0000000  0.0000000  1.0000000 )
                  (  0.0000000  1.0000000  0.0000000 )


      isym = 39     inv.  90 deg rotation - cart. axis [-1,0,0]  

 cryst.   s(39) = (    -1          0          0      )
                  (     0          0          1      )
                  (     0         -1          0      )

 cart.    s(39) = ( -1.0000000  0.0000000  0.0000000 )
                  (  0.0000000  0.0000000 -1.0000000 )
                  (  0.0000000  1.0000000  0.0000000 )


      isym = 40     inv.  90 deg rotation - cart. axis [1,0,0]   

 cryst.   s(40) = (    -1          0          0      )
                  (     0          0         -1      )
                  (     0          1          0      )

 cart.    s(40) = ( -1.0000000  0.0000000  0.0000000 )
                  (  0.0000000  0.0000000  1.0000000 )
                  (  0.0000000 -1.0000000  0.0000000 )


      isym = 41     inv. 120 deg rotation - cart. axis [-1,-1,-1]

 cryst.   s(41) = (     0          0         -1      )
                  (    -1          0          0      )
                  (     0         -1          0      )

 cart.    s(41) = (  0.0000000 -1.0000000  0.0000000 )
                  (  0.0000000  0.0000000 -1.0000000 )
                  ( -1.0000000  0.0000000  0.0000000 )


      isym = 42     inv. 120 deg rotation - cart. axis [-1,1,1]  

 cryst.   s(42) = (     0          0          1      )
                  (     1          0          0      )
                  (     0         -1          0      )

 cart.    s(42) = (  0.0000000  1.0000000  0.0000000 )
                  (  0.0000000  0.0000000 -1.0000000 )
                  (  1.0000000  0.0000000  0.0000000 )


      isym = 43     inv. 120 deg rotation - cart. axis [1,1,-1]  

 cryst.   s(43) = (     0          0          1      )
                  (    -1          0          0      )
                  (     0          1          0      )

 cart.    s(43) = (  0.0000000 -1.0000000  0.0000000 )
                  (  0.0000000  0.0000000  1.0000000 )
                  (  1.0000000  0.0000000  0.0000000 )


      isym = 44     inv. 120 deg rotation - cart. axis [1,-1,1]  

 cryst.   s(44) = (     0          0         -1      )
                  (     1          0          0      )
                  (     0          1          0      )

 cart.    s(44) = (  0.0000000  1.0000000  0.0000000 )
                  (  0.0000000  0.0000000  1.0000000 )
                  ( -1.0000000  0.0000000  0.0000000 )


      isym = 45     inv. 120 deg rotation - cart. axis [1,1,1]   

 cryst.   s(45) = (     0         -1          0      )
                  (     0          0         -1      )
                  (    -1          0          0      )

 cart.    s(45) = (  0.0000000  0.0000000 -1.0000000 )
                  ( -1.0000000  0.0000000  0.0000000 )
                  (  0.0000000 -1.0000000  0.0000000 )


      isym = 46     inv. 120 deg rotation - cart. axis [-1,1,-1] 

 cryst.   s(46) = (     0          1          0      )
                  (     0          0          1      )
                  (    -1          0          0      )

 cart.    s(46) = (  0.0000000  0.0000000 -1.0000000 )
                  (  1.0000000  0.0000000  0.0000000 )
                  (  0.0000000  1.0000000  0.0000000 )


      isym = 47     inv. 120 deg rotation - cart. axis [1,-1,-1] 

 cryst.   s(47) = (     0          1          0      )
                  (     0          0         -1      )
                  (     1          0          0      )

 cart.    s(47) = (  0.0000000  0.0000000  1.0000000 )
                  (  1.0000000  0.0000000  0.0000000 )
                  (  0.0000000 -1.0000000  0.0000000 )


      isym = 48     inv. 120 deg rotation - cart. axis [-1,-1,1] 

 cryst.   s(48) = (     0         -1          0      )
                  (     0          0          1      )
                  (     1          0          0      )

 cart.    s(48) = (  0.0000000  0.0000000  1.0000000 )
                  ( -1.0000000  0.0000000  0.0000000 )
                  (  0.0000000  1.0000000  0.0000000 )


   Cartesian axes

     site n.     atom                  positions (alat units)
         1           W   tau(   1) = (   0.5000000   0.5000000   0.5000000  )

   Crystallographic axes

     site n.     atom                  positions (cryst. coord.)
         1           W   tau(   1) = (  0.5000000  0.5000000  0.5000000  )

     number of k points=     1
                       cart. coord. in units 2pi/alat
        k(    1) = (   0.0000000   0.0000000   0.0000000), wk =   1.0000000

                       cryst. coord.
        k(    1) = (   0.0000000   0.0000000   0.0000000), wk =   1.0000000

     Dense  grid:  7270288 G-vectors     FFT dimensions: ( 320, 320, 320)

     Dynamical RAM for                 wfc:       5.20 MB

     Dynamical RAM for     wfc (w. buffer):      15.60 MB

     Dynamical RAM for           str. fact:       3.47 MB

     Dynamical RAM for           local pot:       0.00 MB

     Dynamical RAM for          nlocal pot:       5.63 MB

     Dynamical RAM for                qrad:       4.85 MB

     Dynamical RAM for          rho,v,vnew:      67.68 MB

     Dynamical RAM for               rhoin:      22.56 MB

     Dynamical RAM for            rho*nmix:     110.94 MB

     Dynamical RAM for           G-vectors:      14.73 MB

     Dynamical RAM for          h,s,v(r/c):       0.00 MB

     Dynamical RAM for          <psi|beta>:       0.00 MB

     Dynamical RAM for                 psi:      20.80 MB

     Dynamical RAM for                hpsi:      20.80 MB

     Dynamical RAM for      wfcinit/wfcrot:      13.87 MB

     Estimated static dynamical RAM per process >     299.27 MB

     Estimated max dynamical RAM per process >     340.87 MB

     Estimated total dynamical RAM >      10.65 GB
     Generating pointlists ...
     new r_m :   0.4125 (alat units)  9.3541 (a.u.) for type    1

     Initial potential from superposition of free atoms

     starting charge   11.30112, renormalised to   14.00000

     negative rho (up, down):  5.751E-03 0.000E+00
     Starting wfcs are   16 randomized atomic wfcs

     total cpu time spent up to now is       10.3 secs

     Self-consistent Calculation

     iteration #  1     ecut=   440.00 Ry     beta= 0.70
     Davidson diagonalization with overlap
     ethr =  1.00E-02,  avg # of iterations = 10.0

     negative rho (up, down):  8.417E-07 2.180E-02

     total cpu time spent up to now is       27.5 secs

     total energy              =    -126.86605372 Ry
     Harris-Foulkes estimate   =    -136.93063931 Ry
     estimated scf accuracy    <      12.94504913 Ry

     total magnetization       =     4.00 Bohr mag/cell
     absolute magnetization    =     4.10 Bohr mag/cell

     iteration #  2     ecut=   440.00 Ry     beta= 0.70
     Davidson diagonalization with overlap
     ethr =  1.00E-02,  avg # of iterations =  7.5

     negative rho (up, down):  4.871E-07 2.129E-02

     total cpu time spent up to now is       41.9 secs

     total energy              =    -134.78345141 Ry
     Harris-Foulkes estimate   =    -139.09598295 Ry
     estimated scf accuracy    <       7.42367754 Ry

     total magnetization       =     4.00 Bohr mag/cell
     absolute magnetization    =     4.00 Bohr mag/cell

     iteration #  3     ecut=   440.00 Ry     beta= 0.70
     Davidson diagonalization with overlap
     ethr =  1.00E-02,  avg # of iterations =  2.5

     negative rho (up, down):  4.364E-07 2.131E-02

     total cpu time spent up to now is       50.7 secs

     total energy              =    -134.99397103 Ry
     Harris-Foulkes estimate   =    -135.20539319 Ry
     estimated scf accuracy    <       1.49825627 Ry

     total magnetization       =     4.00 Bohr mag/cell
     absolute magnetization    =     4.04 Bohr mag/cell

     iteration #  4     ecut=   440.00 Ry     beta= 0.70
     Davidson diagonalization with overlap
     ethr =  1.00E-02,  avg # of iterations =  1.0

     negative rho (up, down):  4.427E-07 2.260E-02

     total cpu time spent up to now is       58.6 secs

     total energy              =    -135.24360960 Ry
     Harris-Foulkes estimate   =    -135.00989488 Ry
     estimated scf accuracy    <       0.94193590 Ry

     total magnetization       =     4.00 Bohr mag/cell
     absolute magnetization    =     4.31 Bohr mag/cell

     iteration #  5     ecut=   440.00 Ry     beta= 0.70
     Davidson diagonalization with overlap
     ethr =  6.73E-03,  avg # of iterations =  1.0

     negative rho (up, down):  3.945E-07 2.611E-02

     total cpu time spent up to now is       66.6 secs

     total energy              =    -135.11925228 Ry
     Harris-Foulkes estimate   =    -135.26356887 Ry
     estimated scf accuracy    <       1.39852425 Ry

     total magnetization       =     4.00 Bohr mag/cell
     absolute magnetization    =     4.26 Bohr mag/cell

     iteration #  6     ecut=   440.00 Ry     beta= 0.70
     Davidson diagonalization with overlap
     ethr =  6.73E-03,  avg # of iterations =  1.0

     negative rho (up, down):  5.313E-07 5.976E-02

     total cpu time spent up to now is       74.6 secs

     total energy              =    -134.22415605 Ry
     Harris-Foulkes estimate   =    -135.13140929 Ry
     estimated scf accuracy    <       1.19822747 Ry

     total magnetization       =     4.00 Bohr mag/cell
     absolute magnetization    =     4.37 Bohr mag/cell

     iteration #  7     ecut=   440.00 Ry     beta= 0.70
     Davidson diagonalization with overlap
     ethr =  6.73E-03,  avg # of iterations =  1.5

     negative rho (up, down):  5.459E-07 6.206E-02

     total cpu time spent up to now is       82.7 secs

     total energy              =    -134.34675053 Ry
     Harris-Foulkes estimate   =    -134.30687239 Ry
     estimated scf accuracy    <       0.65677924 Ry

     total magnetization       =     4.00 Bohr mag/cell
     absolute magnetization    =     4.52 Bohr mag/cell

     iteration #  8     ecut=   440.00 Ry     beta= 0.70
     Davidson diagonalization with overlap
     ethr =  4.69E-03,  avg # of iterations =  1.0

     negative rho (up, down):  5.549E-07 5.903E-02

     total cpu time spent up to now is       90.8 secs

     total energy              =    -134.40541252 Ry
     Harris-Foulkes estimate   =    -134.35527605 Ry
     estimated scf accuracy    <       0.49922186 Ry

     total magnetization       =     4.00 Bohr mag/cell
     absolute magnetization    =     4.53 Bohr mag/cell

     iteration #  9     ecut=   440.00 Ry     beta= 0.70
     Davidson diagonalization with overlap
     ethr =  3.57E-03,  avg # of iterations =  1.0

     negative rho (up, down):  4.950E-07 5.472E-02

     total cpu time spent up to now is       98.9 secs

     total energy              =    -134.41118788 Ry
     Harris-Foulkes estimate   =    -134.41864182 Ry
     estimated scf accuracy    <       0.27909575 Ry

     total magnetization       =     4.00 Bohr mag/cell
     absolute magnetization    =     4.48 Bohr mag/cell

     iteration # 10     ecut=   440.00 Ry     beta= 0.70
     Davidson diagonalization with overlap
     ethr =  1.99E-03,  avg # of iterations =  1.0

     negative rho (up, down):  1.628E-06 9.636E-02

     total cpu time spent up to now is      106.9 secs

     total energy              =    -134.59523668 Ry
     Harris-Foulkes estimate   =    -134.41896837 Ry
     estimated scf accuracy    <       0.21224371 Ry

     total magnetization       =     4.00 Bohr mag/cell
     absolute magnetization    =     4.44 Bohr mag/cell

     iteration # 11     ecut=   440.00 Ry     beta= 0.70
     Davidson diagonalization with overlap
     ethr =  1.52E-03,  avg # of iterations =  2.5

     negative rho (up, down):  4.647E-07 6.084E-02

     total cpu time spent up to now is      115.6 secs

     total energy              =    -134.65264053 Ry
     Harris-Foulkes estimate   =    -134.63301254 Ry
     estimated scf accuracy    <       0.03535580 Ry

     total magnetization       =     4.00 Bohr mag/cell
     absolute magnetization    =     4.37 Bohr mag/cell

     iteration # 12     ecut=   440.00 Ry     beta= 0.70
     Davidson diagonalization with overlap
     ethr =  2.53E-04,  avg # of iterations =  5.0

     negative rho (up, down):  6.017E-07 7.963E-03

     total cpu time spent up to now is      125.1 secs

     total energy              =    -134.68484892 Ry
     Harris-Foulkes estimate   =    -134.65565163 Ry
     estimated scf accuracy    <       0.02442107 Ry

     total magnetization       =     4.00 Bohr mag/cell
     absolute magnetization    =     4.40 Bohr mag/cell

     iteration # 13     ecut=   440.00 Ry     beta= 0.70
     Davidson diagonalization with overlap
     ethr =  1.74E-04,  avg # of iterations =  3.0

     negative rho (up, down):  2.859E-08 5.210E-03

     total cpu time spent up to now is      135.0 secs

     total energy              =    -134.68827734 Ry
     Harris-Foulkes estimate   =    -134.70359338 Ry
     estimated scf accuracy    <       0.03383485 Ry

     total magnetization       =     4.00 Bohr mag/cell
     absolute magnetization    =     4.31 Bohr mag/cell

     iteration # 14     ecut=   440.00 Ry     beta= 0.70
     Davidson diagonalization with overlap
     ethr =  1.74E-04,  avg # of iterations =  2.5

     negative rho (up, down):  1.817E-04 3.868E-01

     total cpu time spent up to now is      144.0 secs

     total energy              =    -134.69674360 Ry
     Harris-Foulkes estimate   =    -134.69941708 Ry
     estimated scf accuracy    <       0.01313572 Ry

     total magnetization       =     4.00 Bohr mag/cell
     absolute magnetization    =     4.44 Bohr mag/cell

     iteration # 15     ecut=   440.00 Ry     beta= 0.70
     Davidson diagonalization with overlap
     ethr =  9.38E-05,  avg # of iterations =  2.5

     negative rho (up, down):  6.442E-04 3.955E-01

     total cpu time spent up to now is      152.5 secs

     total energy              =    -134.69759625 Ry
     Harris-Foulkes estimate   =    -134.69814827 Ry
     estimated scf accuracy    <       0.00740897 Ry

     total magnetization       =     4.00 Bohr mag/cell
     absolute magnetization    =     4.39 Bohr mag/cell

     iteration # 16     ecut=   440.00 Ry     beta= 0.70
     Davidson diagonalization with overlap
     ethr =  5.29E-05,  avg # of iterations =  1.0

     negative rho (up, down):  8.133E-05 3.832E-01

     total cpu time spent up to now is      160.4 secs

     total energy              =    -134.69782616 Ry
     Harris-Foulkes estimate   =    -134.69827055 Ry
     estimated scf accuracy    <       0.00557907 Ry

     total magnetization       =     4.00 Bohr mag/cell
     absolute magnetization    =     4.38 Bohr mag/cell

     iteration # 17     ecut=   440.00 Ry     beta= 0.70
     Davidson diagonalization with overlap
     ethr =  3.99E-05,  avg # of iterations =  1.0

     negative rho (up, down):  2.052E-05 3.134E-01

     total cpu time spent up to now is      168.3 secs

     total energy              =    -134.69756521 Ry
     Harris-Foulkes estimate   =    -134.69806745 Ry
     estimated scf accuracy    <       0.00467879 Ry

     total magnetization       =     4.00 Bohr mag/cell
     absolute magnetization    =     4.39 Bohr mag/cell

     iteration # 18     ecut=   440.00 Ry     beta= 0.70
     Davidson diagonalization with overlap
     ethr =  3.34E-05,  avg # of iterations =  1.5

     negative rho (up, down):  2.400E-04 3.816E-01

     total cpu time spent up to now is      176.4 secs

     total energy              =    -134.69826184 Ry
     Harris-Foulkes estimate   =    -134.69821756 Ry
     estimated scf accuracy    <       0.00416771 Ry

     total magnetization       =     4.00 Bohr mag/cell
     absolute magnetization    =     4.40 Bohr mag/cell

     iteration # 19     ecut=   440.00 Ry     beta= 0.70
     Davidson diagonalization with overlap
     ethr =  2.98E-05,  avg # of iterations =  1.5

     negative rho (up, down):  1.475E-03 3.789E-01

     total cpu time spent up to now is      184.4 secs

     total energy              =    -134.69697286 Ry
     Harris-Foulkes estimate   =    -134.69876733 Ry
     estimated scf accuracy    <       0.00460981 Ry

     total magnetization       =     4.00 Bohr mag/cell
     absolute magnetization    =     4.40 Bohr mag/cell

     iteration # 20     ecut=   440.00 Ry     beta= 0.70
     Davidson diagonalization with overlap
     ethr =  2.98E-05,  avg # of iterations =  2.5

     negative rho (up, down):  1.179E-04 4.386E-01

     total cpu time spent up to now is      192.7 secs

     total energy              =    -134.69825383 Ry
     Harris-Foulkes estimate   =    -134.69823844 Ry
     estimated scf accuracy    <       0.00071340 Ry

     total magnetization       =     4.00 Bohr mag/cell
     absolute magnetization    =     4.36 Bohr mag/cell

     iteration # 21     ecut=   440.00 Ry     beta= 0.70
     Davidson diagonalization with overlap
     ethr =  5.10E-06,  avg # of iterations =  9.0

     negative rho (up, down):  1.684E-05 3.032E-01

     total cpu time spent up to now is      205.1 secs

     total energy              =    -134.69846701 Ry
     Harris-Foulkes estimate   =    -134.69852599 Ry
     estimated scf accuracy    <       0.00010695 Ry

     total magnetization       =     4.00 Bohr mag/cell
     absolute magnetization    =     4.37 Bohr mag/cell

     iteration # 22     ecut=   440.00 Ry     beta= 0.70
     Davidson diagonalization with overlap
     ethr =  7.64E-07,  avg # of iterations =  6.5

     negative rho (up, down):  4.173E-07 1.173E-01

     total cpu time spent up to now is      215.3 secs

     total energy              =    -134.69858273 Ry
     Harris-Foulkes estimate   =    -134.69856583 Ry
     estimated scf accuracy    <       0.00003487 Ry

     total magnetization       =     4.00 Bohr mag/cell
     absolute magnetization    =     4.36 Bohr mag/cell

     iteration # 23     ecut=   440.00 Ry     beta= 0.70
     Davidson diagonalization with overlap
     ethr =  2.49E-07,  avg # of iterations =  2.0

     negative rho (up, down):  2.371E-07 1.020E-01

     total cpu time spent up to now is      223.9 secs

     total energy              =    -134.69858748 Ry
     Harris-Foulkes estimate   =    -134.69859479 Ry
     estimated scf accuracy    <       0.00000648 Ry

     total magnetization       =     4.00 Bohr mag/cell
     absolute magnetization    =     4.36 Bohr mag/cell

     iteration # 24     ecut=   440.00 Ry     beta= 0.70
     Davidson diagonalization with overlap
     ethr =  4.63E-08,  avg # of iterations =  4.0

     negative rho (up, down):  0.000E+00 2.859E-02

     total cpu time spent up to now is      233.9 secs

     total energy              =    -134.69859718 Ry
     Harris-Foulkes estimate   =    -134.69859771 Ry
     estimated scf accuracy    <       0.00000128 Ry

     total magnetization       =     4.00 Bohr mag/cell
     absolute magnetization    =     4.36 Bohr mag/cell

     iteration # 25     ecut=   440.00 Ry     beta= 0.70
     Davidson diagonalization with overlap
     ethr =  9.12E-09,  avg # of iterations =  2.5
 
     Magnetic moment per site:
     atom:    1    charge:   13.9994    magn:    4.0001    constr:    0.0000

     total cpu time spent up to now is      242.0 secs

     End of self-consistent calculation

 ------ SPIN UP ------------


          k = 0.0000 0.0000 0.0000 (908768 PWs)   bands (ev):

   -77.8085 -42.8932 -42.8672 -42.8670  -5.7606  -4.7855  -4.7846  -4.7695
    -4.7694  -3.9150  -1.2470  -1.2467

     occupation numbers 
     1.0000   1.0000   1.0000   1.0000   1.0000   1.0000   1.0000   1.0000
     1.0000   0.0000   0.0000   0.0000

 ------ SPIN DOWN ----------


          k = 0.0000 0.0000 0.0000 (908768 PWs)   bands (ev):

   -76.2632 -41.3509 -40.5094 -40.5080  -4.4819  -2.8839  -2.2406  -2.2400
    -1.7588  -1.7581  -0.8690  -0.2235

     occupation numbers 
     1.0000   1.0000   1.0000   1.0000   1.0000   0.0000   0.0000   0.0000
     0.0000   0.0000   0.0000   0.0000

     highest occupied, lowest unoccupied level (ev):    -4.4819   -3.9150

!    total energy              =    -134.69859810 Ry
     Harris-Foulkes estimate   =    -134.69859819 Ry
     estimated scf accuracy    <       0.00000035 Ry

     The total energy is the sum of the following terms:

     one-electron contribution =    -177.77711225 Ry
     hartree contribution      =      82.76236566 Ry
     xc contribution           =     -15.16044323 Ry
     ewald contribution        =     -24.52340829 Ry

     total magnetization       =     4.00 Bohr mag/cell
     absolute magnetization    =     4.36 Bohr mag/cell

     convergence has been achieved in  25 iterations

     Writing output data file pwscf.save/
 
     init_run     :      9.73s CPU     10.15s WALL (       1 calls)
     electrons    :    228.60s CPU    232.51s WALL (       1 calls)

     Called by init_run:
     wfcinit      :      2.06s CPU      2.16s WALL (       1 calls)
     wfcinit:atom :      0.03s CPU      0.05s WALL (       2 calls)
     wfcinit:wfcr :      1.97s CPU      2.04s WALL (       2 calls)
     potinit      :      2.51s CPU      2.69s WALL (       1 calls)
     hinit0       :      0.27s CPU      0.34s WALL (       1 calls)

     Called by electrons:
     c_bands      :    112.90s CPU    114.37s WALL (      25 calls)
     sum_band     :     36.31s CPU     36.41s WALL (      25 calls)
     v_of_rho     :     59.70s CPU     61.42s WALL (      26 calls)
     v_h          :      4.33s CPU      4.38s WALL (      26 calls)
     v_xc         :     55.37s CPU     57.04s WALL (      26 calls)
     mix_rho      :     19.67s CPU     19.94s WALL (      25 calls)

     Called by c_bands:
     init_us_2    :      1.10s CPU      1.11s WALL (     102 calls)
     regterg      :    110.94s CPU    112.37s WALL (      50 calls)

     Called by sum_band:

     Called by *egterg:
     h_psi        :    102.96s CPU    103.22s WALL (     201 calls)
     g_psi        :      0.32s CPU      0.32s WALL (     149 calls)
     rdiaghg      :      0.23s CPU      0.24s WALL (     199 calls)
     regterg:over :      2.17s CPU      2.17s WALL (     149 calls)
     regterg:upda :      4.10s CPU      4.17s WALL (     149 calls)
     regterg:last :      1.36s CPU      1.36s WALL (      57 calls)
     rdiaghg:chol :      0.04s CPU      0.04s WALL (     199 calls)
     rdiaghg:inve :      0.01s CPU      0.01s WALL (     199 calls)
     rdiaghg:para :      0.03s CPU      0.03s WALL (     398 calls)

     Called by h_psi:
     h_psi:pot    :    102.30s CPU    102.56s WALL (     201 calls)
     h_psi:calbec :      0.58s CPU      0.59s WALL (     201 calls)
     vloc_psi     :    100.88s CPU    101.13s WALL (     201 calls)
     add_vuspsi   :      0.84s CPU      0.84s WALL (     201 calls)

     General routines
     calbec       :      0.58s CPU      0.59s WALL (     201 calls)
     fft          :     49.91s CPU     50.33s WALL (     386 calls)
     ffts         :      5.20s CPU      5.22s WALL (      50 calls)
     fftw         :     97.15s CPU     97.43s WALL (    2018 calls)
 
     Parallel routines
     fft_scatt_xy :     27.77s CPU     27.81s WALL (    2454 calls)
     fft_scatt_yz :     53.74s CPU     54.22s WALL (    2454 calls)
 
     PWSCF        :   3m58.92s CPU   4m 4.54s WALL

 
   This run was terminated on:  19:54: 7  17Jan2022            

=------------------------------------------------------------------------------=
   JOB DONE.
=------------------------------------------------------------------------------=
