
 Primary working directories    : /global/cscratch1/sd/bkincaid
 Secondary working directories  : /global/cscratch1/sd/bkincaid
 Wavefunction directory         : /global/homes/b/bkincaid/wfu/
 Main file repository           : /global/cscratch1/sd/bkincaid/

 SHA1      : 19cd028119e0e09f93f0674bd8af7968d9b3eff6
 NAME      : 2015.1.36
 ARCHNAME  : linux/x86_64
 FC        : /opt/cray/pe/craype/2.5.14/bin/ftn
 BLASLIB   : -L/opt/intel/compilers_and_libraries_2018.1.163/linux/mkl/lib/intel64 -Wl,-_start-group -lmkl_intel_ilp64 -lmkl_intel_thread -lmkl_core -Wl,-_end-group -liomp5
 id        : lbl

 Nodes     nprocs
 nid01031    11
 Number of processes for MPI-2 version of Molpro:   nprocs(total)=   12   nprocs(compute)=   11   nprocs(helper)=    1

 Using customized tuning parameters: mindgm=7; mindgv=16; mindgc=1; mindgr=1; noblas=0; minvec=7
 default implementation of scratch files=sf  

 ***,Calculation for IrO groundstate
 memory,1024,m
 gthresh,twoint=1.0E-15
 gthresh,throvl=1.0E-15
                                                                                 !symmetry,nosym
 
 basis={
 Including file /global/u1/b/bkincaid/molpro/Ir/molecules/tz/IrO/ecps/MDFSTU/mdfstu
 
 Including file /global/u1/b/bkincaid/molpro/Ir/molecules/tz/IrO/ecps/MDFSTU/tz.basis
 
 ecp,O,2,1,0
 3
 1,  12.30997,  6.000000
 3,  14.76962,  73.85984
 2,  13.71419, -47.87600
 1
 2,  13.65512,  85.86406
 
 Including file /global/u1/b/bkincaid/molpro/Ir/molecules/tz/IrO/ecps/MDFSTU/O-aug-cc-CVTZ.basis
 }
 
 ne = 23
 
 A1=6
 B1=2
 B2=3
 A2=1
 
 
 do i=1,2
         if(i.eq.1) then
                 z(i) = 1.500
         else if(i.eq.2) then
                 z(i) = 1.600
         else if(i.eq.3) then
                 z(i) = 1.700
         else if(i.eq.4) then
                 z(i) = 1.800
         else if(i.eq.5) then
                 z(i) = 1.900
         endif
 
 geometry={
 2
 IrO
 Ir 0.0 0.0 0.0
 O 0.0 0.0 z(i)
 }
 
 
 {rhf,maxdis=35,iptyp='DIIS',nitord=30,maxit=60; shift,-1.0,-0.5
 wf,nelec=ne,spin=1,sym=4
 occ,A1,B1,B2,A2
 closed,A1,B1,B2,A2-1
 print,orbitals=2
         }
 {rccsd(t),shifts=0.2,shiftp=0.2,thrdis=1.0;diis,1,1,15,1;maxit,100;core}
 
 enddo
 
 table,z,scf,ccsd
 save
 type,csv
 

 Variables initialized (889), CPU time= 0.01 sec
 Commands  initialized (702), CPU time= 0.00 sec, 572 directives.
 Default parameters read. Elapsed time= 0.21 sec

 Checking input...
 Passed
1


                                         ***  PROGRAM SYSTEM MOLPRO  ***
                                       Copyright, TTI GmbH Stuttgart, 2015
                                    Version 2015.1 linked Dec 29 2018 15:55:43


 **********************************************************************************************************************************
 LABEL *   Calculation for IrO groundstate                                               
  64 bit mpp version                                                                     DATE: 09-Mar-21          TIME: 14:43:18  
 **********************************************************************************************************************************

 SHA1:             19cd028119e0e09f93f0674bd8af7968d9b3eff6
 **********************************************************************************************************************************

 THRESHOLDS:

 ZERO    =  1.00D-12  ONEINT  =  1.00D-12  TWOINT  =  1.00D-15  PREFAC  =  1.00D-14  LOCALI  =  1.00D-09  EORDER  =  1.00D-04
 ENERGY  =  0.00D+00  ETEST   =  0.00D+00  EDENS   =  0.00D+00  THRDEDEF=  1.00D-06  GRADIENT=  1.00D-02  STEP    =  1.00D-03
 ORBITAL =  1.00D-05  CIVEC   =  1.00D-05  COEFF   =  1.00D-04  PRINTCI =  5.00D-02  PUNCHCI =  9.90D+01  OPTGRAD =  3.00D-04
 OPTENERG=  1.00D-06  OPTSTEP =  3.00D-04  THRGRAD =  1.00D-10  COMPRESS=  1.00D-11  VARMIN  =  1.00D-07  VARMAX  =  1.00D-03
 THRDOUB =  0.00D+00  THRDIV  =  1.00D-05  THRRED  =  1.00D-07  THRPSP  =  1.00D+00  THRDC   =  1.00D-10  THRCS   =  1.00D-10
 THRNRM  =  1.00D-08  THREQ   =  0.00D+00  THRDE   =  1.00D+00  THRREF  =  1.00D-05  SPARFAC =  1.00D+00  THRDLP  =  1.00D-07
 THRDIA  =  1.00D-10  THRDLS  =  1.00D-07  THRGPS  =  0.00D+00  THRKEX  =  0.00D+00  THRDIS  =  2.00D-01  THRVAR  =  1.00D-10
 THRLOC  =  1.00D-06  THRGAP  =  1.00D-06  THRLOCT = -1.00D+00  THRGAPT = -1.00D+00  THRORB  =  1.00D-06  THRMLTP =  0.00D+00
 THRCPQCI=  1.00D-10  KEXTA   =  0.00D+00  THRCOARS=  0.00D+00  SYMTOL  =  1.00D-06  GRADTOL =  1.00D-06  THROVL  =  1.00D-08
 THRORTH =  1.00D-08  GRID    =  1.00D-06  GRIDMAX =  1.00D-03  DTMAX   =  0.00D+00  THROCCDE=  1.00D-01  THROCCDE=  1.00D-01



 THRESHOLDS:

 ZERO    =  1.00D-12  ONEINT  =  1.00D-12  TWOINT  =  1.00D-15  PREFAC  =  1.00D-14  LOCALI  =  1.00D-09  EORDER  =  1.00D-04
 ENERGY  =  0.00D+00  ETEST   =  0.00D+00  EDENS   =  0.00D+00  THRDEDEF=  1.00D-06  GRADIENT=  1.00D-02  STEP    =  1.00D-03
 ORBITAL =  1.00D-05  CIVEC   =  1.00D-05  COEFF   =  1.00D-04  PRINTCI =  5.00D-02  PUNCHCI =  9.90D+01  OPTGRAD =  3.00D-04
 OPTENERG=  1.00D-06  OPTSTEP =  3.00D-04  THRGRAD =  1.00D-10  COMPRESS=  1.00D-11  VARMIN  =  1.00D-07  VARMAX  =  1.00D-03
 THRDOUB =  0.00D+00  THRDIV  =  1.00D-05  THRRED  =  1.00D-07  THRPSP  =  1.00D+00  THRDC   =  1.00D-10  THRCS   =  1.00D-10
 THRNRM  =  1.00D-08  THREQ   =  0.00D+00  THRDE   =  1.00D+00  THRREF  =  1.00D-05  SPARFAC =  1.00D+00  THRDLP  =  1.00D-07
 THRDIA  =  1.00D-10  THRDLS  =  1.00D-07  THRGPS  =  0.00D+00  THRKEX  =  0.00D+00  THRDIS  =  2.00D-01  THRVAR  =  1.00D-10
 THRLOC  =  1.00D-06  THRGAP  =  1.00D-06  THRLOCT = -1.00D+00  THRGAPT = -1.00D+00  THRORB  =  1.00D-06  THRMLTP =  0.00D+00
 THRCPQCI=  1.00D-10  KEXTA   =  0.00D+00  THRCOARS=  0.00D+00  SYMTOL  =  1.00D-06  GRADTOL =  1.00D-06  THROVL  =  1.00D-15
 THRORTH =  1.00D-08  GRID    =  1.00D-06  GRIDMAX =  1.00D-03  DTMAX   =  0.00D+00  THROCCDE=  1.00D-01  THROCCDE=  1.00D-01



 Variable memory set to 1024000000 words,  buffer space   230000 words

 SETTING BASIS          =    USERDEF
 SETTING NE             =        23.00000000                                  
 SETTING A1             =         6.00000000                                  
 SETTING B1             =         2.00000000                                  
 SETTING B2             =         3.00000000                                  
 SETTING A2             =         1.00000000                                  

 DO I                   =         1.00000000   
 SETTING Z(1)           =         1.50000000                                  

Geometry recognized as XYZ



 Recomputing integrals since basis changed


 Using spherical harmonics



 PROGRAM * SEWARD (Integral evaluation for generally contracted gaussian basis sets)     Author: Roland Lindh, 1990

 Geometry written to block  1 of record 700


 Point group  C2v 



 ATOMIC COORDINATES

 NR  ATOM    CHARGE       X              Y              Z

   1  IR     17.00    0.000000000    0.000000000    0.000000000
   2  O       6.00    0.000000000    0.000000000    2.834589187

 Bond lengths in Bohr (Angstrom)

 1-2  2.834589187
     ( 1.500000000)

 NUCLEAR CHARGE:                   23
 NUMBER OF PRIMITIVE AOS:         556
 NUMBER OF SYMMETRY AOS:          455
 NUMBER OF CONTRACTIONS:          455   ( 186A1  + 109B1  + 109B2  +  51A2  )
 NUMBER OF CORE ORBITALS:           4   (   2A1  +   1B1  +   1B2  +   0A2  )
 NUMBER OF VALENCE ORBITALS:       10   (   5A1  +   2B1  +   2B2  +   1A2  )


 NUCLEAR REPULSION ENERGY   35.98405034

 EXTRA SYMMETRY OF AOS IN SYMMETRY 1:   1 1 1 1 1 1 1 1 1 1   1 1 1 1 1 1 1 1 1 1   1 1 1 1 1 1 1 1 1 1   1 1 1 1 1 1 1 1 1 1
                                        1 1 1 1 1 1 1 1 1 1   1 1 1 1 1 1 1 1 1 1   1 1 1 1 1 1 1 2 1 2   1 2 1 2 1 2 1 2 1 2
                                        1 2 1 2 1 2 1 2 1 2   1 2 1 2 1 2 1 2 1 2   1 2 1 2 1 2 1 2 1 2   1 2 1 2 1 2 1 2 1 2
                                        1 2 1 2 1 2 1 2 1 2   1 2 1 2 1 2 1 2 1 2   1 2 1 2 1 3 2 1 3 2   1 3 2 1 1 1 1 1 1 1
                                        1 1 1 1 1 1 1 1 1 1   1 1 1 1 1 2 1 2 1 2   1 2 1 2 1 2
 EXTRA SYMMETRY OF AOS IN SYMMETRY 2:   1 1 1 1 1 1 1 1 1 1   1 1 1 1 1 1 1 1 1 1   1 1 1 1 1 1 1 1 1 1   1 1 1 1 1 1 1 1 1 1
                                        1 1 1 1 1 1 1 1 1 1   1 1 1 1 2 1 2 1 2 1   2 1 2 1 2 1 2 1 2 1   2 1 2 1 2 1 2 1 2 1
                                        2 1 2 1 2 1 2 1 2 1   2 1 2 1 1 1 1 1 1 1   1 1 1 1 1 1 2 1 2
 EXTRA SYMMETRY OF AOS IN SYMMETRY 3:   1 1 1 1 1 1 1 1 1 1   1 1 1 1 1 1 1 1 1 1   1 1 1 1 1 1 1 1 1 1   1 1 1 1 1 1 1 1 1 1
                                        1 1 1 1 1 1 1 1 1 1   1 1 1 1 2 1 2 1 2 1   2 1 2 1 2 1 2 1 2 1   2 1 2 1 2 1 2 1 2 1
                                        2 1 2 1 2 1 2 1 2 1   2 1 2 1 1 1 1 1 1 1   1 1 1 1 1 1 2 1 2
 EXTRA SYMMETRY OF AOS IN SYMMETRY 4:   1 1 1 1 1 1 1 1 1 1   1 1 1 1 1 1 1 1 1 1   1 1 1 1 1 1 1 1 1 1   1 1 1 1 1 1 1 1 1 1
                                        2 1 2 1 2 1 1 1 1 1   1

 Eigenvalues of metric

         1 0.666E-07 0.913E-06 0.334E-05 0.942E-05 0.155E-04 0.157E-04 0.247E-04 0.409E-04
         2 0.898E-07 0.370E-05 0.152E-04 0.517E-04 0.539E-04 0.125E-03 0.139E-03 0.432E-03
         3 0.898E-07 0.370E-05 0.152E-04 0.517E-04 0.539E-04 0.125E-03 0.139E-03 0.432E-03
         4 0.155E-04 0.538E-04 0.146E-03 0.607E-03 0.970E-03 0.207E-02 0.546E-02 0.578E-02


 Contracted 2-electron integrals neglected if value below      1.0D-15
 AO integral compression algorithm  1   Integral accuracy      1.0D-15

     4915.986 MB (compressed) written to integral file ( 38.4%)

     Node minimum: 296.223 MB, node maximum: 913.834 MB


 NUMBER OF SORTED TWO-ELECTRON INTEGRALS:  125132898.     BUFFER LENGTH:  32768
 NUMBER OF SEGMENTS:   4  SEGMENT LENGTH:   31982049      RECORD LENGTH: 524288

 Memory used in sort:      32.54 MW

 SORT1 READ  1600176772. AND WROTE    49745475. INTEGRALS IN    144 RECORDS. CPU TIME:    26.11 SEC, REAL TIME:    35.88 SEC
 SORT2 READ   545769643. AND WROTE  1376419418. INTEGRALS IN  12430 RECORDS. CPU TIME:     4.19 SEC, REAL TIME:     7.59 SEC

 Node minimum:   125060912.  Node maximum:   125200036. integrals

 OPERATOR DM      FOR CENTER  0  COORDINATES:    0.000000    0.000000    0.000000


 **********************************************************************************************************************************
 DATASETS  * FILE   NREC   LENGTH (MB)   RECORD NAMES
              1      19       22.49       500      610      700      900      950      970     1000      129      960     1100   
                                          VAR    BASINP    GEOM    SYMINP    ZMAT    AOBASIS   BASIS     P2S    ABASIS      S 
                                         1400     1410     1420     1200     1210     1080     1600     1650     1700   
                                           T        V       ECP      H0       H01     AOSYM     SMH    MOLCAS    OPER   

 PROGRAMS   *        TOTAL       INT
 CPU TIMES  *       212.07    211.60
 REAL TIME  *       227.46 SEC
 DISK USED  *        11.43 GB      
 GA USED    *         0.00 MB       (max)       0.00 MB       (current)
 **********************************************************************************************************************************


 PROGRAM * RHF-SCF (OPEN SHELL)       Authors: W. Meyer, H.-J. Werner


 NUMBER OF ELECTRONS:      12+   11-    SPACE SYMMETRY=4    SPIN SYMMETRY: Doublet 
 CONVERGENCE THRESHOLDS:    1.00E-05 (Density)    1.00E-07 (Energy)
 MAX. NUMBER OF ITERATIONS:       60
 INTERPOLATION TYPE:            DIIS
 INTERPOLATION STEPS:              2 (START)      1 (STEP)
 LEVEL SHIFTS:                 -1.00 (CLOSED) -0.50 (OPEN) 

 Number of closed-shell orbitals:   11 (   6   2   3   0 )
 Number of open-shell orbitals:      1 (   0   0   0   1 )


 Orbital guess generated from atomic densities. Full valence occupancy:    7   3   3   1

 Molecular orbital dump at record        2100.2

 ITERATION    DDIFF          GRAD             ENERGY        2-EL.EN.            DIPOLE MOMENTS         DIIS   ORB.
    1      0.000D+00      0.000D+00      -119.17816022    245.167472    0.00000    0.00000   -1.70201    0    start
    2      0.000D+00      0.469D-02      -119.20328386    244.525729    0.00000    0.00000   -1.17545    1    diag,B
    3      0.356D-02      0.160D-02      -119.20815886    244.457963    0.00000    0.00000   -1.15487    2    diag,B
    4      0.296D-02      0.841D-03      -119.21078600    244.354605    0.00000    0.00000   -1.07058    3    diag,B
    5      0.313D-02      0.512D-03      -119.21253930    244.205463    0.00000    0.00000   -1.01332    4    diag,B
    6      0.341D-02      0.308D-03      -119.21347125    244.061466    0.00000    0.00000   -0.95879    5    diag,B
    7      0.203D-02      0.171D-03      -119.21380107    243.958829    0.00000    0.00000   -0.91768    6    diag,B
    8      0.103D-02      0.921D-04      -119.21389193    243.914713    0.00000    0.00000   -0.89399    7    diag,B
    9      0.721D-03      0.523D-04      -119.21392276    243.890289    0.00000    0.00000   -0.87997    8    diag,B
   10      0.286D-03      0.281D-04      -119.21393141    243.879652    0.00000    0.00000   -0.87386    9    orth
   11      0.277D-03      0.174D-04      -119.21393522    243.873436    0.00000    0.00000   -0.87088   10    diag,B
   12      0.160D-03      0.105D-04      -119.21393676    243.870315    0.00000    0.00000   -0.86915   11    diag,B
   13      0.101D-03      0.553D-05      -119.21393712    243.869361    0.00000    0.00000   -0.86833   12    diag,B
   14      0.455D-04      0.335D-05      -119.21393724    243.868948    0.00000    0.00000   -0.86775   13    diag,B
   15      0.332D-04      0.200D-05      -119.21393728    243.868742    0.00000    0.00000   -0.86743   14    diag,B
   16      0.142D-04      0.130D-05      -119.21393730    243.868572    0.00000    0.00000   -0.86715   15    diag,B
   17      0.845D-05      0.841D-06      -119.21393730    243.868547    0.00000    0.00000   -0.86711    0    orth

 Final alpha occupancy:   6   2   3   1
 Final beta  occupancy:   6   2   3   0

 !RHF STATE 1.4 Energy               -119.213937297438
 Nuclear energy                        35.98405034
 One-electron energy                 -277.13226094
 Two-electron energy                  121.93427330
 Virial quotient                       -2.51174692
 !RHF STATE 1.4 Dipole moment           0.00000000     0.00000000    -0.86710782
 Dipole moment /Debye                   0.00000000     0.00000000    -2.20382390

 ELECTRON ORBITALS
 =================


   Orb  Occ    Energy  Couls-En    Coefficients

                                   1 1s      1 1s      1 1s      1 1s      1 1s      1 1s      1 1s      1 1s      1 1s      1 1s   
                                   1 1s      1 1s      1 1s      1 1s      1 1s      1 1s      1 1s      1 1s      1 1s      1 1s   
                                   1 1s      1 1s      1 1s      1 1s      1 1s      1 1s      1 1s      1 1s      1 1s      1 1s   
                                   1 1s      1 1s      1 1s      1 1s      1 1s      1 2pz     1 2pz     1 2pz     1 2pz     1 2pz  
                                   1 2pz     1 2pz     1 2pz     1 2pz     1 2pz     1 2pz     1 2pz     1 2pz     1 2pz     1 2pz  
                                   1 2pz     1 2pz     1 2pz     1 2pz     1 2pz     1 2pz     1 2pz     1 2pz     1 2pz     1 2pz  
                                   1 2pz     1 2pz     1 2pz     1 2pz     1 2pz     1 2pz     1 3d0     1 3d2+    1 3d0     1 3d2+ 
                                   1 3d0     1 3d2+    1 3d0     1 3d2+    1 3d0     1 3d2+    1 3d0     1 3d2+    1 3d0     1 3d2+ 
                                   1 3d0     1 3d2+    1 3d0     1 3d2+    1 3d0     1 3d2+    1 3d0     1 3d2+    1 3d0     1 3d2+ 
                                   1 3d0     1 3d2+    1 3d0     1 3d2+    1 3d0     1 3d2+    1 3d0     1 3d2+    1 3d0     1 3d2+ 
                                   1 3d0     1 3d2+    1 3d0     1 3d2+    1 3d0     1 3d2+    1 3d0     1 3d2+    1 3d0     1 3d2+ 
                                   1 4f0     1 4f2+    1 4f0     1 4f2+    1 4f0     1 4f2+    1 4f0     1 4f2+    1 4f0     1 4f2+ 
                                   1 4f0     1 4f2+    1 4f0     1 4f2+    1 4f0     1 4f2+    1 4f0     1 4f2+    1 4f0     1 4f2+ 
                                   1 4f0     1 4f2+    1 4f0     1 4f2+    1 4f0     1 4f2+    1 4f0     1 4f2+    1 4f0     1 4f2+ 
                                   1 4f0     1 4f2+    1 4f0     1 4f2+    1 5g0     1 5g4+    1 5g2+    1 5g0     1 5g4+    1 5g2+ 
                                   1 5g0     1 5g4+    1 5g2+    2 1s      2 1s      2 1s      2 1s      2 1s      2 1s      2 1s   
                                   2 1s      2 1s      2 1s      2 1s      2 1s      2 1s      2 2pz     2 2pz     2 2pz     2 2pz  
                                   2 2pz     2 2pz     2 2pz     2 2pz     2 3d0     2 3d2+    2 3d0     2 3d2+    2 3d0     2 3d2+ 
                                   2 3d0     2 3d2+    2 4f0     2 4f2+    2 4f0     2 4f2+ 

   1.1   2    -4.2809  -21.0187 -0.000000  0.000000 -0.000000  0.000000 -0.000000  0.000000 -0.000000  0.000000 -0.000000  0.000000
                                -0.000001  0.000003 -0.000008  0.000021 -0.000052  0.000132 -0.000325  0.000803 -0.001943  0.004674
                                -0.011126  0.026567 -0.058303  0.047049  0.332972 -0.994959  0.440073 -0.508188  0.993662 -0.089015
                                 0.580473  0.017185 -0.017667 -0.002685  0.000345  0.000000 -0.000000  0.000000 -0.000000  0.000000
                                -0.000000  0.000000 -0.000000  0.000000 -0.000000  0.000000 -0.000000  0.000000 -0.000000  0.000001
                                -0.000002  0.000004 -0.000005 -0.000059  0.000608 -0.001707  0.003354 -0.006391  0.010760 -0.271216
                                 0.274861 -0.010375 -0.008428 -0.006755 -0.000560  0.000210  0.000000  0.000000 -0.000000  0.000000
                                 0.000000  0.000000 -0.000000  0.000000  0.000000  0.000000 -0.000001  0.000000  0.000004  0.000000
                                -0.000010  0.000000  0.000024  0.000000 -0.000050  0.000001  0.000103 -0.000008 -0.000144  0.000127
                                 0.000627 -0.000569 -0.004406 -0.000552  0.004588  0.000685 -0.000403  0.003226  0.007308  0.000226
                                 0.000323  0.001553 -0.004988 -0.000220 -0.003636 -0.000118 -0.001362  0.000001  0.000155 -0.000002
                                 0.000000 -0.000000 -0.000000  0.000000  0.000000 -0.000000 -0.000001  0.000000  0.000004 -0.000001
                                -0.000011 -0.000000  0.000026 -0.000003 -0.000105 -0.000031  0.000377  0.000137 -0.000217 -0.000213
                                -0.002095 -0.000528  0.002985 -0.000709 -0.001944  0.000252 -0.001367  0.000051 -0.000958  0.000093
                                 0.000069 -0.000039 -0.000015  0.000015  0.000064  0.000061 -0.000128  0.000568  0.000762 -0.000706
                                -0.001048  0.000379 -0.000454 -0.000000  0.000000 -0.000001  0.000007 -0.000072 -0.000966 -0.003095
                                 0.011737  0.001748  0.015750 -0.000109  0.000969  0.013152 -0.000134 -0.001433 -0.004265 -0.010913
                                -0.007654 -0.000121  0.000035 -0.002502  0.001451  0.000053  0.004010  0.000483  0.000054  0.000002
                                 0.000777  0.000160 -0.001001 -0.000133 -0.000293 -0.000278

   2.1   2    -2.5780  -17.3349  0.000000 -0.000000  0.000000 -0.000000  0.000000 -0.000000  0.000000 -0.000000  0.000000 -0.000000
                                 0.000000 -0.000000  0.000000 -0.000000  0.000000 -0.000001  0.000001 -0.000003  0.000008 -0.000023
                                 0.000064 -0.000194  0.000464  0.000751 -0.012023  0.040406 -0.089648  0.104214 -0.087903  0.090945
                                -0.062941 -0.040749 -0.032653 -0.013551  0.001968  0.000000 -0.000000  0.000000 -0.000000  0.000000
                                -0.000000  0.000000 -0.000000  0.000001 -0.000002  0.000006 -0.000016  0.000045 -0.000112  0.000274
                                -0.000621  0.001387 -0.002305 -0.006937  0.093838 -0.239986 -0.093117 -0.042579  0.399141 -0.849447
                                 1.399552  0.216783 -0.006204 -0.019430 -0.002160  0.000563  0.000000 -0.000000 -0.000000  0.000000
                                 0.000000 -0.000000 -0.000000  0.000000  0.000002 -0.000000 -0.000006  0.000000  0.000016 -0.000000
                                -0.000041  0.000000  0.000093 -0.000001 -0.000201  0.000001  0.000436  0.000000 -0.001052 -0.000065
                                 0.004978  0.000416 -0.016712 -0.000001  0.017235 -0.000165 -0.014525 -0.001646  0.028936 -0.000967
                                -0.014734 -0.001257 -0.010689  0.001266 -0.009417  0.001017 -0.003483  0.000059 -0.000102  0.000012
                                 0.000000  0.000000 -0.000000 -0.000000  0.000002  0.000000 -0.000006 -0.000001  0.000019  0.000002
                                -0.000041 -0.000007  0.000136  0.000012 -0.000255 -0.000071  0.000649 -0.000038  0.000752 -0.000226
                                -0.003946  0.000342  0.014388 -0.001795 -0.007007 -0.000288 -0.002286 -0.001817 -0.003362 -0.000389
                                 0.000843  0.000046 -0.000600 -0.000017  0.000787 -0.000010  0.000102  0.001406 -0.000020  0.000134
                                -0.001797  0.000010  0.000743 -0.000000  0.000001 -0.000007  0.000049 -0.000506 -0.007444 -0.023866
                                 0.076677  0.018549  0.071568  0.000471  0.007152  0.039703 -0.000809 -0.008600 -0.026955 -0.054043
                                -0.037976 -0.000664  0.000209 -0.005959  0.005492  0.000126  0.016869  0.000959  0.000215 -0.000009
                                 0.006250  0.000445 -0.003251 -0.000394 -0.002552 -0.000506

   3.1   2    -1.3380  -12.6136  0.000000 -0.000000  0.000000 -0.000000  0.000000 -0.000000  0.000000 -0.000000  0.000000 -0.000000
                                 0.000000 -0.000000  0.000001 -0.000003  0.000007 -0.000017  0.000043 -0.000106  0.000257 -0.000619
                                 0.001479 -0.003558  0.007932 -0.006842 -0.045368  0.145671 -0.080833  0.091699 -0.175264 -0.056007
                                -0.010855 -0.016481 -0.092158 -0.025682  0.004146 -0.000000  0.000000 -0.000000  0.000000 -0.000000
                                 0.000000 -0.000000  0.000000 -0.000000  0.000000 -0.000001  0.000003 -0.000009  0.000022 -0.000054
                                 0.000123 -0.000281  0.000425  0.002542 -0.029139  0.077013 -0.008607  0.054401 -0.139401 -0.160110
                                 0.002340 -0.078985 -0.063594 -0.044598 -0.002666  0.001172  0.000000 -0.000000 -0.000000  0.000000
                                 0.000000 -0.000000 -0.000000  0.000000  0.000001 -0.000000 -0.000005  0.000000  0.000014 -0.000000
                                -0.000034  0.000001  0.000084 -0.000003 -0.000154  0.000005  0.000233 -0.000009  0.001702 -0.000008
                                -0.009022  0.000026 -0.018225  0.000591  0.018853 -0.000588  0.042711 -0.000573  0.026333 -0.001916
                                 0.080560  0.001045  0.050200 -0.000164 -0.018433 -0.000095 -0.006820 -0.000295  0.001108  0.000009
                                 0.000000 -0.000000 -0.000000  0.000000  0.000001 -0.000000 -0.000001  0.000001  0.000008 -0.000001
                                 0.000001  0.000006  0.000091 -0.000008  0.000130  0.000061 -0.000765 -0.000161  0.004803  0.000471
                                -0.006963 -0.000377  0.024046  0.001487 -0.005734  0.001607  0.007906  0.001962 -0.005999  0.001227
                                 0.000486 -0.000415  0.000405  0.000123  0.001976  0.000037  0.000020  0.004065 -0.000090  0.001333
                                -0.000109 -0.000139  0.000448 -0.000001  0.000006 -0.000047  0.000313 -0.003256 -0.048628 -0.159524
                                 0.550657  0.148626  0.432968 -0.003393  0.047056  0.106219 -0.001135 -0.011014 -0.031788 -0.076838
                                -0.090585 -0.000468  0.000307 -0.020827  0.003948 -0.000504  0.022333  0.000103  0.000150 -0.000130
                                 0.016715 -0.001489 -0.002798 -0.000458 -0.004091 -0.001082

   4.1   2    -0.6654  -11.1498 -0.000000  0.000000 -0.000000  0.000000 -0.000000  0.000000 -0.000000  0.000000 -0.000000  0.000000
                                -0.000000  0.000000 -0.000000  0.000001 -0.000002  0.000006 -0.000015  0.000037 -0.000091  0.000224
                                -0.000556  0.001421 -0.003261  0.000668  0.037250 -0.127064  0.213535 -0.248235  0.254114 -0.182323
                                 0.147900  0.022184  0.100647  0.053452 -0.008888 -0.000000  0.000000 -0.000000  0.000000 -0.000000
                                 0.000000 -0.000000  0.000000 -0.000000  0.000000 -0.000000  0.000001 -0.000002  0.000006 -0.000012
                                 0.000028 -0.000053  0.000189 -0.002023  0.015739 -0.042456  0.042326 -0.067020  0.069033  1.069683
                                -1.018535  0.087234  0.035850  0.058530  0.010016 -0.003399 -0.000000  0.000000  0.000000 -0.000000
                                -0.000000  0.000000  0.000001 -0.000000 -0.000005  0.000000  0.000016 -0.000000 -0.000048  0.000001
                                 0.000114 -0.000001 -0.000279  0.000004  0.000538  0.000001 -0.000953 -0.000034 -0.002971  0.000817
                                 0.016949 -0.004238  0.058331 -0.001742 -0.062326  0.001946 -0.090237  0.018878 -0.101427  0.001156
                                -0.153256  0.028722 -0.165826  0.024462 -0.042693  0.009636  0.013489  0.000548 -0.000714 -0.000013
                                -0.000000  0.000000  0.000001 -0.000000 -0.000004  0.000000  0.000014 -0.000001 -0.000047  0.000001
                                 0.000094 -0.000005 -0.000353  0.000009  0.000510 -0.000052 -0.001557  0.000212 -0.004279 -0.000595
                                 0.015684  0.000870 -0.045879 -0.001776  0.024273  0.000035 -0.017262 -0.001638  0.001352 -0.000798
                                 0.000562 -0.000065  0.001740 -0.000070 -0.002356  0.000207 -0.000383 -0.007039  0.000370 -0.001215
                                 0.001051  0.000676 -0.000571 -0.000000  0.000002 -0.000013  0.000083 -0.000863 -0.013627 -0.043463
                                 0.138721  0.046932  0.138764  0.002035  0.012678 -0.089219  0.007064  0.074429  0.241025  0.393889
                                 0.258052  0.004578 -0.001847  0.029250 -0.012159 -0.000420 -0.040072 -0.001064 -0.000484 -0.000049
                                -0.018542 -0.000988  0.005957  0.001376  0.007410  0.000635

   5.1   2    -0.4858  -11.4651  0.000000 -0.000000  0.000000 -0.000000  0.000000 -0.000000  0.000000 -0.000000  0.000000 -0.000000
                                 0.000000 -0.000000  0.000000 -0.000001  0.000003 -0.000006  0.000016 -0.000038  0.000093 -0.000225
                                 0.000538 -0.001299  0.002911 -0.002511 -0.017056  0.055963 -0.034429  0.038727 -0.076572  0.010679
                                -0.050190  0.057101  0.031361 -0.002604  0.000886  0.000000 -0.000000  0.000000 -0.000000  0.000000
                                -0.000000  0.000000 -0.000000  0.000000 -0.000000  0.000000 -0.000000  0.000001 -0.000001  0.000003
                                -0.000007  0.000013 -0.000046  0.000468 -0.003615  0.009930 -0.015210  0.024209 -0.026462  0.187067
                                -0.205052 -0.003404  0.017601  0.001132 -0.000967  0.000396  0.000000  0.000000 -0.000000 -0.000000
                                 0.000000  0.000000 -0.000000 -0.000000  0.000000  0.000001 -0.000002 -0.000002  0.000004  0.000008
                                -0.000011 -0.000009  0.000025  0.000051 -0.000059  0.000007  0.000150 -0.000433 -0.000813  0.010890
                                 0.004064 -0.056962 -0.004030 -0.022513  0.004287  0.026224 -0.016802  0.249347  0.013814  0.007828
                                -0.031107  0.393567 -0.010018  0.347373 -0.007829  0.170702 -0.003858  0.026936  0.000259 -0.000797
                                 0.000000  0.000000 -0.000000 -0.000000  0.000000  0.000000 -0.000001 -0.000001  0.000005  0.000002
                                -0.000007 -0.000006  0.000040  0.000015 -0.000037 -0.000053  0.000263  0.000425  0.000318 -0.001021
                                -0.000752  0.002284  0.004826 -0.003349 -0.001713  0.003614  0.006795 -0.004802  0.000792 -0.003063
                                -0.000939 -0.000355  0.000021 -0.000079  0.000746  0.001789  0.000340  0.001107  0.002885  0.002775
                                 0.001964  0.004132  0.003043  0.000000 -0.000000  0.000001 -0.000004  0.000046  0.000690  0.002471
                                -0.011083 -0.002943 -0.017373  0.000085 -0.000677  0.002177 -0.000956 -0.010046 -0.032536 -0.051503
                                -0.036833 -0.000597  0.000250 -0.004467  0.000458  0.002427  0.001834  0.008222  0.000014  0.000122
                                 0.000801  0.003548 -0.000208 -0.002088 -0.000352 -0.002137

   6.1   2    -0.3351   -8.7005  0.000000 -0.000000  0.000000 -0.000000  0.000000 -0.000000  0.000000 -0.000000  0.000000 -0.000000
                                 0.000000 -0.000001  0.000003 -0.000007  0.000017 -0.000044  0.000108 -0.000267  0.000647 -0.001560
                                 0.003727 -0.008977  0.020106 -0.018152 -0.111325  0.364402 -0.183188  0.205574 -0.463462  0.033463
                                -0.386270  0.307313  0.594770  0.191762 -0.001626  0.000000 -0.000000  0.000000 -0.000000  0.000000
                                -0.000000  0.000000 -0.000000  0.000000 -0.000000  0.000000 -0.000001  0.000002 -0.000004  0.000010
                                -0.000023  0.000049 -0.000115  0.000419 -0.002114  0.005935 -0.023198  0.033098 -0.026890  0.449574
                                -0.456541  0.012953 -0.026152 -0.044412 -0.007451  0.000637 -0.000000 -0.000000  0.000000  0.000000
                                -0.000000 -0.000000  0.000000  0.000000 -0.000000 -0.000000  0.000001  0.000000 -0.000005 -0.000001
                                 0.000008  0.000001 -0.000031 -0.000005  0.000020 -0.000003  0.000121  0.000055 -0.004124 -0.001275
                                 0.021777  0.006675  0.009374  0.002496 -0.010505 -0.003062 -0.096915 -0.029671 -0.000261 -0.000909
                                -0.159923 -0.043964 -0.131416 -0.035036 -0.081205 -0.016302 -0.022150 -0.004469  0.001311 -0.000078
                                 0.000000 -0.000000 -0.000000  0.000000  0.000001 -0.000000 -0.000002  0.000001  0.000009 -0.000001
                                -0.000015  0.000006  0.000074 -0.000004 -0.000081  0.000075  0.000761 -0.000373 -0.001436  0.000910
                                 0.003934 -0.000610  0.000955  0.003017  0.003591  0.000538  0.009491  0.002556  0.006085  0.002235
                                -0.001360 -0.000079  0.001997  0.000245 -0.000164  0.000379 -0.000919 -0.001300 -0.000027 -0.001123
                                -0.001011 -0.000222 -0.001366  0.000000 -0.000001  0.000005 -0.000033  0.000338  0.005854  0.015990
                                -0.045427 -0.014775 -0.069426 -0.003925 -0.004957 -0.043935 -0.002097 -0.021658 -0.069167 -0.110707
                                -0.098812 -0.001127  0.000555 -0.026229 -0.002634 -0.000272 -0.006607 -0.000097 -0.000129  0.000002
                                 0.000275  0.000344  0.001549 -0.000157  0.000785 -0.000994

   7.1   0     0.0127   -3.6738 -0.000000  0.000000 -0.000000  0.000000 -0.000000  0.000000 -0.000000  0.000000 -0.000000  0.000000
                                -0.000000  0.000000 -0.000001  0.000001 -0.000003  0.000009 -0.000021  0.000053 -0.000127  0.000303
                                -0.000712  0.001664 -0.003678  0.004616  0.009355 -0.027467 -0.075356  0.093424 -0.049158  0.272755
                                -0.191986  0.131699 -0.570999 -1.328958  1.316413 -0.000000  0.000000 -0.000000  0.000000 -0.000000
                                 0.000000 -0.000000  0.000000 -0.000000  0.000001 -0.000002  0.000005 -0.000012  0.000030 -0.000071
                                 0.000161 -0.000346  0.000819 -0.003339  0.018460 -0.051501  0.164393 -0.236771  0.200349 -3.022190
                                 3.105589 -0.074804  0.114981 -0.825231  0.140958 -0.615922  0.000000 -0.000000 -0.000000  0.000000
                                 0.000000 -0.000000 -0.000001  0.000000  0.000005 -0.000000 -0.000015  0.000000  0.000044 -0.000001
                                -0.000108  0.000003  0.000254 -0.000005 -0.000522  0.000014  0.001050 -0.000042 -0.000619  0.000385
                                 0.000831 -0.001947 -0.042476  0.000272  0.044815 -0.000173  0.011012  0.008148  0.121687 -0.002057
                                -0.033422  0.012733  0.123028  0.008757  0.023074  0.007507 -0.090226  0.002943  0.239987  0.016110
                                -0.000000 -0.000000  0.000000  0.000000 -0.000002 -0.000000  0.000008  0.000001 -0.000023 -0.000002
                                 0.000055  0.000006 -0.000171 -0.000012  0.000419  0.000038 -0.002981 -0.000342  0.007487  0.001005
                                -0.014471 -0.001146  0.015262  0.001549 -0.022502 -0.001252  0.012393  0.000949 -0.034275 -0.004223
                                -0.026274  0.000928  0.047260 -0.007621 -0.000240  0.000194  0.000295 -0.000714  0.000751 -0.000088
                                 0.000140  0.000839  0.001220 -0.000000  0.000000 -0.000002  0.000012 -0.000100 -0.002672 -0.003365
                                -0.023645  0.000563  0.018219  0.007233  0.001452  1.021880  0.001543  0.015824  0.050321  0.084478
                                 0.119951  0.000764 -0.000410 -0.376370  0.002155  0.000122  0.007716 -0.000643  0.000104  0.000000
                                -0.018758  0.000594 -0.001171  0.000190 -0.001934  0.000841

   8.1   0     0.0312   -2.3456 -0.000000  0.000000 -0.000000  0.000000 -0.000000  0.000000 -0.000000  0.000000 -0.000000  0.000000
                                -0.000000  0.000000 -0.000000  0.000001 -0.000002  0.000006 -0.000014  0.000034 -0.000082  0.000196
                                -0.000456  0.001056 -0.002319  0.003169  0.003629 -0.009450 -0.065732  0.079178 -0.043819  0.124793
                                -0.031132 -0.024688 -1.384605 -3.128431  1.775023 -0.000000  0.000000 -0.000000  0.000000 -0.000000
                                 0.000000 -0.000000  0.000000 -0.000000  0.000001 -0.000002  0.000007 -0.000019  0.000047 -0.000112
                                 0.000255 -0.000556  0.001204 -0.002833  0.008127 -0.023802  0.185303 -0.246736  0.160210 -3.385504
                                 3.400615 -0.115074 -0.150545 -1.359539 -1.072037  1.318549 -0.000000 -0.000000  0.000000  0.000000
                                -0.000000 -0.000000  0.000000  0.000000 -0.000001 -0.000000  0.000004  0.000001 -0.000010 -0.000002
                                 0.000027  0.000005 -0.000059 -0.000012  0.000137  0.000026 -0.000333 -0.000059  0.001654  0.000212
                                -0.007993 -0.000985  0.007587  0.001688 -0.007415 -0.001713  0.029087  0.003475 -0.022028 -0.004953
                                 0.061237  0.006932 -0.024452  0.000214 -0.130844  0.003616 -0.511232 -0.002783  0.000899  0.020107
                                 0.000000  0.000000 -0.000002 -0.000000  0.000008  0.000000 -0.000029 -0.000001  0.000084  0.000002
                                -0.000223 -0.000005  0.000567  0.000014 -0.001752 -0.000043  0.011204  0.000247 -0.029346 -0.000598
                                 0.047543  0.001020 -0.051055 -0.001109  0.039930  0.000879 -0.055604 -0.000481 -0.025260  0.000468
                                -0.135018 -0.002329  0.023705  0.004589  0.000248  0.000055  0.000113 -0.001125  0.000321  0.000145
                                -0.008537  0.000307  0.000220  0.000000 -0.000000  0.000000 -0.000002  0.000037 -0.000057  0.003042
                                -0.050116 -0.004245  0.330697  0.004082 -0.000564  3.368551 -0.000022  0.000721  0.006026 -0.006344
                                -0.273790  0.000422  0.000019 -0.639802 -0.000606  0.000031  0.020813 -0.000191  0.000086  0.000005
                                 0.030413  0.000500 -0.001163 -0.000015 -0.002626  0.000172

                                   1 2px     1 2px     1 2px     1 2px     1 2px     1 2px     1 2px     1 2px     1 2px     1 2px  
                                   1 2px     1 2px     1 2px     1 2px     1 2px     1 2px     1 2px     1 2px     1 2px     1 2px  
                                   1 2px     1 2px     1 2px     1 2px     1 2px     1 2px     1 2px     1 2px     1 2px     1 2px  
                                   1 2px     1 3d1+    1 3d1+    1 3d1+    1 3d1+    1 3d1+    1 3d1+    1 3d1+    1 3d1+    1 3d1+ 
                                   1 3d1+    1 3d1+    1 3d1+    1 3d1+    1 3d1+    1 3d1+    1 3d1+    1 3d1+    1 3d1+    1 3d1+ 
                                   1 3d1+    1 3d1+    1 3d1+    1 4f1+    1 4f3+    1 4f1+    1 4f3+    1 4f1+    1 4f3+    1 4f1+ 
                                   1 4f3+    1 4f1+    1 4f3+    1 4f1+    1 4f3+    1 4f1+    1 4f3+    1 4f1+    1 4f3+    1 4f1+ 
                                   1 4f3+    1 4f1+    1 4f3+    1 4f1+    1 4f3+    1 4f1+    1 4f3+    1 4f1+    1 4f3+    1 4f1+ 
                                   1 4f3+    1 4f1+    1 4f3+    1 4f1+    1 4f3+    1 4f1+    1 4f3+    1 5g1+    1 5g3+    1 5g1+ 
                                   1 5g3+    1 5g1+    1 5g3+    2 2px     2 2px     2 2px     2 2px     2 2px     2 2px     2 2px  
                                   2 2px     2 3d1+    2 3d1+    2 3d1+    2 3d1+    2 4f1+    2 4f3+    2 4f1+    2 4f3+ 

   1.2   2    -2.5157  -17.0723  0.000000 -0.000000  0.000000 -0.000000  0.000000 -0.000000  0.000000 -0.000000  0.000001 -0.000002
                                 0.000006 -0.000016  0.000045 -0.000111  0.000273 -0.000618  0.001382 -0.002276 -0.007381  0.097442
                                -0.249369 -0.090851 -0.047560  0.404864 -0.164096  0.717539  0.258976  0.027199 -0.002352  0.000597
                                -0.000235  0.000000 -0.000000  0.000000 -0.000000  0.000000 -0.000001  0.000002 -0.000005  0.000011
                                -0.000024  0.000052 -0.000153  0.000692 -0.001557  0.001493 -0.000817 -0.003014  0.002100 -0.003691
                                -0.001967 -0.000839 -0.000013 -0.000000 -0.000000  0.000000  0.000000 -0.000001 -0.000000  0.000002
                                 0.000001 -0.000005  0.000001  0.000012  0.000009 -0.000041  0.000037  0.000129 -0.000027 -0.001119
                                -0.000048  0.002325  0.002392 -0.004523  0.001521  0.003868  0.004508 -0.001314  0.002510 -0.003052
                                 0.002599 -0.001293  0.000523 -0.000143 -0.000126 -0.000083  0.000051  0.000093  0.000030  0.000982
                                -0.000510 -0.000754  0.000150  0.000221  0.002219  0.006716  0.012653  0.007531  0.000112 -0.000059
                                 0.001012 -0.001569 -0.005452 -0.000070 -0.002159  0.001325  0.000083  0.001221  0.000112

   2.2   2    -0.6148  -11.1474 -0.000000  0.000000 -0.000000  0.000000 -0.000000  0.000000 -0.000000  0.000000 -0.000000  0.000000
                                -0.000000  0.000001 -0.000003  0.000006 -0.000016  0.000038 -0.000088  0.000125  0.001013 -0.011116
                                 0.029914 -0.010542  0.029901 -0.061598  0.288419 -0.362946 -0.000837 -0.007127  0.003319  0.002826
                                -0.001487  0.000000 -0.000000  0.000000 -0.000000  0.000002 -0.000005  0.000017 -0.000038  0.000101
                                -0.000154  0.000104  0.004959 -0.026299 -0.022720  0.023315  0.123274  0.004069  0.218922  0.184618
                                 0.038384  0.008153 -0.000695 -0.000000 -0.000000  0.000001  0.000000 -0.000005 -0.000000  0.000020
                                 0.000000 -0.000052 -0.000001  0.000165  0.000001 -0.000305 -0.000007  0.001390  0.000018 -0.008543
                                -0.000134  0.024701  0.000050 -0.033709 -0.000572  0.047927  0.000115 -0.006455 -0.000502  0.020834
                                 0.000968 -0.013197  0.000938  0.002588 -0.000007 -0.000127  0.000041  0.001228  0.000585  0.009452
                                 0.001348  0.001429  0.001963  0.006366  0.065760  0.209779  0.347645  0.285856  0.003639 -0.001681
                                 0.016452 -0.011210 -0.044175 -0.000529 -0.042971  0.006289  0.001402  0.010083  0.001810

   3.2   0    -0.0022   -6.9217  0.000000 -0.000000  0.000000 -0.000000  0.000000 -0.000000  0.000000 -0.000000  0.000000 -0.000000
                                 0.000001 -0.000002  0.000005 -0.000011  0.000029 -0.000066  0.000153 -0.000227 -0.001581  0.017828
                                -0.048286  0.021870 -0.056504  0.108430 -0.677905  0.796430  0.026147 -0.092898 -0.212594 -0.118923
                                -0.340496  0.000000 -0.000000  0.000000 -0.000000  0.000000 -0.000001  0.000004 -0.000004  0.000026
                                 0.000007 -0.000238  0.005777 -0.030041 -0.011797  0.013198  0.131286  0.003260  0.210928  0.195541
                                 0.148460  0.105173  0.072894 -0.000000 -0.000000 -0.000000  0.000000 -0.000000 -0.000000 -0.000000
                                 0.000000 -0.000001 -0.000001 -0.000006  0.000003 -0.000027 -0.000006 -0.000068  0.000013  0.000085
                                -0.000074 -0.001000  0.000289 -0.000166 -0.000420 -0.005083  0.000332 -0.001259 -0.000537 -0.014667
                                -0.000277 -0.012801 -0.002808  0.000778 -0.000622 -0.004962 -0.004561 -0.000733  0.000243 -0.000912
                                -0.000370 -0.002254  0.001586 -0.002757 -0.028327 -0.090489 -0.150122 -0.164625 -0.001460  0.000731
                                -0.149010 -0.002498 -0.004843 -0.000120  0.003854  0.001306 -0.000470  0.000765 -0.000932

   4.2   0     0.0325   -3.2958  0.000000 -0.000000  0.000000 -0.000000  0.000000 -0.000000  0.000000 -0.000000  0.000000 -0.000001
                                 0.000004 -0.000010  0.000028 -0.000069  0.000166 -0.000376  0.000826 -0.001728  0.002875 -0.000765
                                 0.004382 -0.230969  0.291100 -0.144176  3.451009 -3.378616  0.122518 -0.131360  0.014233 -1.208952
                                 1.528766 -0.000000  0.000000 -0.000000  0.000001 -0.000002  0.000008 -0.000023  0.000063 -0.000134
                                 0.000325 -0.000844  0.005249 -0.025882  0.016020 -0.016014  0.103120 -0.064136  0.189278  0.092255
                                 0.133248 -0.140967 -0.146795  0.000000  0.000000 -0.000001 -0.000000  0.000004  0.000000 -0.000014
                                -0.000001  0.000039  0.000004 -0.000110 -0.000011  0.000249  0.000027 -0.000882 -0.000084  0.005388
                                 0.000530 -0.014724 -0.001336  0.022886  0.002195 -0.030332 -0.002486  0.021045  0.001941 -0.028203
                                -0.001730  0.020037  0.000911 -0.073473 -0.004835 -0.079967  0.007167 -0.000351  0.000130 -0.001440
                                -0.000096  0.000509  0.000784 -0.001786 -0.019507 -0.065664 -0.101614 -0.152134 -0.001427  0.000458
                                 0.424314 -0.001644  0.000393 -0.000057 -0.007266  0.000028 -0.000355  0.001573 -0.000553

                                   1 2py     1 2py     1 2py     1 2py     1 2py     1 2py     1 2py     1 2py     1 2py     1 2py  
                                   1 2py     1 2py     1 2py     1 2py     1 2py     1 2py     1 2py     1 2py     1 2py     1 2py  
                                   1 2py     1 2py     1 2py     1 2py     1 2py     1 2py     1 2py     1 2py     1 2py     1 2py  
                                   1 2py     1 3d1-    1 3d1-    1 3d1-    1 3d1-    1 3d1-    1 3d1-    1 3d1-    1 3d1-    1 3d1- 
                                   1 3d1-    1 3d1-    1 3d1-    1 3d1-    1 3d1-    1 3d1-    1 3d1-    1 3d1-    1 3d1-    1 3d1- 
                                   1 3d1-    1 3d1-    1 3d1-    1 4f1-    1 4f3-    1 4f1-    1 4f3-    1 4f1-    1 4f3-    1 4f1- 
                                   1 4f3-    1 4f1-    1 4f3-    1 4f1-    1 4f3-    1 4f1-    1 4f3-    1 4f1-    1 4f3-    1 4f1- 
                                   1 4f3-    1 4f1-    1 4f3-    1 4f1-    1 4f3-    1 4f1-    1 4f3-    1 4f1-    1 4f3-    1 4f1- 
                                   1 4f3-    1 4f1-    1 4f3-    1 4f1-    1 4f3-    1 4f1-    1 4f3-    1 5g1-    1 5g3-    1 5g1- 
                                   1 5g3-    1 5g1-    1 5g3-    2 2py     2 2py     2 2py     2 2py     2 2py     2 2py     2 2py  
                                   2 2py     2 3d1-    2 3d1-    2 3d1-    2 3d1-    2 4f1-    2 4f3-    2 4f1-    2 4f3- 

   1.3   2    -2.5044  -17.0660  0.000000 -0.000000  0.000000 -0.000000  0.000000 -0.000000  0.000000 -0.000000  0.000001 -0.000002
                                 0.000006 -0.000016  0.000045 -0.000112  0.000274 -0.000621  0.001389 -0.002293 -0.007338  0.097374
                                -0.249444 -0.091843 -0.045129  0.403473 -0.155063  0.706434  0.260999  0.030631 -0.001434  0.000580
                                -0.000215  0.000000 -0.000000  0.000000 -0.000000  0.000000 -0.000000  0.000001 -0.000004  0.000009
                                -0.000017  0.000033  0.000065 -0.000596 -0.001032  0.001371  0.004152 -0.002503  0.007523 -0.005209
                                -0.002466 -0.000764 -0.000030 -0.000000  0.000000  0.000000 -0.000000 -0.000001  0.000000  0.000002
                                -0.000001 -0.000004  0.000002  0.000021 -0.000007 -0.000008  0.000023  0.000120 -0.000090 -0.001014
                                 0.000030  0.004334  0.000085 -0.002712  0.000872  0.008397 -0.001007  0.001247 -0.000387 -0.000213
                                -0.001656 -0.000189 -0.000484 -0.000304  0.000100 -0.000005 -0.000044  0.000024  0.000059 -0.000034
                                -0.000495 -0.001345  0.000162  0.000137  0.001422  0.004373  0.007870  0.003306  0.000096 -0.000036
                                 0.000730 -0.001350 -0.004077 -0.000060 -0.001152  0.001219  0.000054  0.000907  0.000063

   2.3   2    -0.6945  -11.2950 -0.000000  0.000000 -0.000000  0.000000 -0.000000  0.000000 -0.000000  0.000000 -0.000000  0.000000
                                -0.000000  0.000001 -0.000001  0.000004 -0.000009  0.000022 -0.000051  0.000065  0.000726 -0.007548
                                 0.020082 -0.007300  0.020086 -0.039123  0.138056 -0.184724 -0.006234 -0.042716 -0.017231  0.003017
                                -0.001606  0.000000 -0.000000  0.000000 -0.000000  0.000002 -0.000005  0.000017 -0.000037  0.000101
                                -0.000149  0.000079  0.005412 -0.028868 -0.023031  0.024431  0.134713  0.005676  0.230844  0.185717
                                 0.035644  0.004968 -0.000147 -0.000000 -0.000000  0.000001  0.000000 -0.000004 -0.000000  0.000015
                                 0.000000 -0.000040 -0.000000  0.000124  0.000000 -0.000248 -0.000003  0.001058  0.000008 -0.006599
                                -0.000035  0.018763 -0.000027 -0.026971 -0.000231  0.035269 -0.000133 -0.005479 -0.000227  0.006204
                                 0.000439 -0.018430  0.000474  0.001452 -0.000020 -0.000034  0.000019  0.001661  0.000394  0.009058
                                 0.001115  0.001363  0.001324  0.006751  0.070181  0.225154  0.360923  0.272756  0.003919 -0.001779
                                 0.015393 -0.009343 -0.033842 -0.000422 -0.031245  0.006283  0.001466  0.008408  0.001592

   3.3   2    -0.3579  -10.5425  0.000000 -0.000000  0.000000 -0.000000  0.000000 -0.000000  0.000000 -0.000000  0.000000 -0.000000
                                 0.000001 -0.000002  0.000004 -0.000010  0.000026 -0.000059  0.000137 -0.000212 -0.001220  0.014367
                                -0.039097  0.014237 -0.040695  0.086172 -0.494653  0.591305  0.013489 -0.072395 -0.098954 -0.006220
                                -0.000039  0.000000 -0.000000  0.000000 -0.000000  0.000000  0.000000  0.000003  0.000002  0.000020
                                 0.000054 -0.000463  0.009355 -0.048989 -0.014840  0.018384  0.213069 -0.002587  0.337964  0.290340
                                 0.185588  0.030105  0.004621  0.000000  0.000000 -0.000001 -0.000000  0.000003  0.000000 -0.000010
                                -0.000000  0.000025  0.000001 -0.000085 -0.000003  0.000128  0.000010 -0.000732 -0.000025  0.004093
                                 0.000005 -0.012037  0.000045  0.015321  0.000514 -0.028365 -0.000225  0.008261 -0.000017 -0.033660
                                -0.000839 -0.002626 -0.000856 -0.011902 -0.000097  0.003069 -0.000045  0.000076  0.000705  0.000184
                                 0.001103  0.001409  0.001807 -0.005551 -0.057029 -0.182016 -0.296836 -0.296412 -0.002819  0.001473
                                -0.060805 -0.002697  0.000434 -0.000128  0.016181  0.000421 -0.001021 -0.001714 -0.001326

   4.3   0     0.0252   -2.3873  0.000000 -0.000000  0.000000 -0.000000  0.000000 -0.000000  0.000000 -0.000000  0.000000 -0.000001
                                 0.000002 -0.000007  0.000018 -0.000044  0.000106 -0.000240  0.000522 -0.001138  0.002836 -0.009143
                                 0.026428 -0.177008  0.236949 -0.155977  2.808355 -2.812895  0.074204 -0.047360  0.128379 -0.770387
                                 1.376181 -0.000000  0.000000 -0.000000  0.000000 -0.000002  0.000006 -0.000016  0.000042 -0.000093
                                 0.000210 -0.000492  0.002050 -0.009788  0.013301 -0.013510  0.036385 -0.042532  0.073228  0.012363
                                 0.047976 -0.140000 -0.164876  0.000000  0.000000 -0.000001 -0.000000  0.000003  0.000000 -0.000012
                                -0.000001  0.000034  0.000004 -0.000093 -0.000010  0.000222  0.000024 -0.000732 -0.000072  0.004586
                                 0.000485 -0.012292 -0.001302  0.019526  0.001955 -0.024146 -0.002198  0.017992  0.001863 -0.017966
                                -0.000675  0.023000  0.003500 -0.058159 -0.003539 -0.048111  0.010431  0.000013  0.000111 -0.000595
                                 0.000405  0.001255  0.000031 -0.000631 -0.007449 -0.026602 -0.037285 -0.074645 -0.000716  0.000155
                                 0.352737 -0.000591  0.001886 -0.000011 -0.005914 -0.000526 -0.000146  0.000621 -0.000134

   5.3   0     0.0770   -3.3873 -0.000000  0.000000 -0.000000  0.000000 -0.000000  0.000000 -0.000000  0.000000 -0.000001  0.000002
                                -0.000007  0.000019 -0.000052  0.000130 -0.000312  0.000707 -0.001550  0.003272 -0.006039  0.006885
                                -0.023070  0.453521 -0.580740  0.312288 -6.915037  6.813102 -0.235637  0.210634 -0.229018  1.650555
                                -1.044695  0.000000 -0.000000  0.000001 -0.000003  0.000012 -0.000039  0.000113 -0.000284  0.000654
                                -0.001388  0.002954 -0.005771  0.023538 -0.102686  0.106973 -0.057907  0.279354 -0.190463  0.156710
                                -0.171185  0.369732 -0.727501  0.000000 -0.000000 -0.000001  0.000000  0.000004 -0.000000 -0.000015
                                 0.000000  0.000042 -0.000000 -0.000115  0.000001  0.000269 -0.000006 -0.000906  0.000020  0.005558
                                -0.000048 -0.014893 -0.000013  0.022887 -0.000494 -0.028962  0.000369  0.021131 -0.000326 -0.029633
                                 0.002124 -0.031559  0.005199  0.024222  0.001098  0.071654  0.011708 -0.000712  0.000197  0.001997
                                 0.000990 -0.008835 -0.000289 -0.001238 -0.012541 -0.039687 -0.067171 -0.001251 -0.000539  0.000331
                                -0.289489 -0.001589 -0.003864 -0.000072 -0.049634 -0.000156 -0.000201  0.004413 -0.000239

                                   1 3d2-    1 3d2-    1 3d2-    1 3d2-    1 3d2-    1 3d2-    1 3d2-    1 3d2-    1 3d2-    1 3d2- 
                                   1 3d2-    1 3d2-    1 3d2-    1 3d2-    1 3d2-    1 3d2-    1 3d2-    1 3d2-    1 3d2-    1 3d2- 
                                   1 3d2-    1 3d2-    1 4f2-    1 4f2-    1 4f2-    1 4f2-    1 4f2-    1 4f2-    1 4f2-    1 4f2- 
                                   1 4f2-    1 4f2-    1 4f2-    1 4f2-    1 4f2-    1 4f2-    1 4f2-    1 4f2-    1 4f2-    1 5g2- 
                                   1 5g4-    1 5g2-    1 5g4-    1 5g2-    1 5g4-    2 3d2-    2 3d2-    2 3d2-    2 3d2-    2 4f2- 
                                   2 4f2- 

   1.4   +    -0.5224  -11.5846  0.000000 -0.000000  0.000000 -0.000000  0.000001 -0.000001  0.000007 -0.000006  0.000045  0.000022
                                -0.000475  0.011166 -0.058194 -0.021875  0.024797  0.254969  0.007095  0.406271  0.350794  0.160973
                                 0.021807 -0.000655  0.000000 -0.000000  0.000000 -0.000001  0.000003 -0.000007  0.000019 -0.000070
                                 0.000500 -0.001183  0.002527 -0.003866  0.003650 -0.005355 -0.003066 -0.000236 -0.000109 -0.000423
                                 0.001752  0.000811  0.002996  0.001536  0.004016  0.002279  0.007773  0.000113  0.002798 -0.001897
                                -0.001841

   2.4   0     0.0823   -2.6262 -0.000000  0.000000 -0.000001  0.000005 -0.000019  0.000065 -0.000187  0.000473 -0.001081  0.002319
                                -0.005025  0.012014 -0.051853  0.166690 -0.172836  0.151871 -0.465306  0.406892 -0.190111  0.216987
                                -0.486791  1.264553 -0.000000  0.000001 -0.000004  0.000013 -0.000039  0.000103 -0.000266  0.000795
                                -0.005028  0.012926 -0.021305  0.023282 -0.020539  0.014611 -0.022608  0.051764 -0.098668  0.000000
                                -0.000062  0.000020 -0.000343 -0.000221  0.000206  0.000428 -0.000583  0.000001  0.005579 -0.000088
                                 0.000142

   3.4   0     0.1469   -2.5486 -0.000000  0.000000 -0.000000  0.000001 -0.000002  0.000007 -0.000021  0.000052 -0.000120  0.000257
                                -0.000560  0.001389 -0.006053  0.018432 -0.019113  0.018282 -0.052333  0.048112 -0.020125  0.025128
                                -0.051705  0.092174  0.000002 -0.000015  0.000070 -0.000245  0.000717 -0.001874  0.004848 -0.014479
                                 0.091436 -0.235242  0.385683 -0.421240  0.367937 -0.262818  0.371561 -1.007723  1.632887  0.000004
                                -0.000011  0.000056  0.000019 -0.000476 -0.000063  0.000804  0.002385  0.000027 -0.000876  0.000073
                                -0.001505

 HOMO      6.1    -0.335146 =      -9.1198eV
 LUMO      3.2    -0.002213 =      -0.0602eV
 LUMO-HOMO         0.332932 =       9.0596eV


 **********************************************************************************************************************************
 DATASETS  * FILE   NREC   LENGTH (MB)   RECORD NAMES
              1      19       22.57       500      610      700      900      950      970     1000      129      960     1100   
                                          VAR    BASINP    GEOM    SYMINP    ZMAT    AOBASIS   BASIS     P2S    ABASIS      S 
                                         1400     1410     1420     1200     1210     1080     1600     1650     1700   
                                           T        V       ECP      H0       H01     AOSYM     SMH    MOLCAS    OPER   

              2       4        4.55       700     1000      520     2100   
                                         GEOM     BASIS   MCVARS     RHF  

 PROGRAMS   *        TOTAL       RHF       INT
 CPU TIMES  *       223.79     11.72    211.60
 REAL TIME  *       241.19 SEC
 DISK USED  *        11.99 GB      
 SF USED    *         0.25 MB      
 GA USED    *         0.00 MB       (max)       0.00 MB       (current)
 **********************************************************************************************************************************


 PROGRAM * CCSD (Restricted open-shell coupled cluster)     Authors: C. Hampel, H.-J. Werner, 1991, M. Deegan, P.J. Knowles, 1992


 Convergence thresholds:  THRVAR = 1.00D-08  THRDEN = 1.00D-06

 CCSD(T)     terms to be evaluated (factor= 1.000)


 Number of closed-shell orbitals:  11 (   6   2   3   0 )
 Number of active  orbitals:        1 (   0   0   0   1 )
 Number of external orbitals:     443 ( 180 107 106  50 )

 Memory could be reduced to 445.68 Mwords without degradation in triples

 Number of N-1 electron functions:              23
 Number of N-2 electron functions:             253
 Number of singly external CSFs:              3275
 Number of doubly external CSFs:           9817564
 Total number of CSFs:                     9820839

 Molecular orbitals read from record     2100.2  Type=RHF/CANONICAL (state 1.4)

 Integral transformation finished. Total CPU:  15.97 sec, npass=  1  Memory used:  43.25 MW

 Starting RMP2 calculation

 Wavefunction is spin-projected

 ITER.      SQ.NORM     CORR.ENERGY   TOTAL ENERGY   ENERGY CHANGE        DEN1      VAR(S)    VAR(P)  DIIS     TIME
   1      1.24397879    -0.95156379  -120.16550108    -0.95156379    -0.00283582  0.64D-05  0.14D-02  1  1    17.77
   2      1.24742695    -0.95461050  -120.16854780    -0.00304672    -0.00000995  0.37D-07  0.79D-05  2  2    19.22
   3      1.24764027    -0.95471406  -120.16865136    -0.00010355    -0.00000006  0.15D-09  0.55D-07  3  3    21.94
   4      1.24764782    -0.95471553  -120.16865283    -0.00000147    -0.00000000  0.28D-11  0.26D-09  4  4    23.86
   5      1.24764785    -0.95471552  -120.16865282     0.00000001    -0.00000000  0.12D-12  0.14D-11  5  5    25.50

 Norm of t1 vector:      0.02794345      S-energy:    -0.00261919      T1 diagnostic:  0.00004515
 Norm of t2 vector:      0.49685714      P-energy:    -0.95209632
                                         Alpha-Beta:  -0.67152661
                                         Alpha-Alpha: -0.15243445
                                         Beta-Beta:   -0.12813527

 Spin contamination <S**2-Sz**2-Sz>     0.00000000
  Reference energy                   -119.213937297437
  RHF-RMP2 correlation energy          -0.954715518720
 !RHF-RMP2 energy                    -120.168652816157
 (NB above energy spin projected)

 Starting RCCSD calculation

 ITER.      SQ.NORM     CORR.ENERGY   TOTAL ENERGY   ENERGY CHANGE        DEN1      VAR(S)    VAR(P)  DIIS     TIME
   1      1.19567891    -0.86462644  -120.07856374    -0.86462644    -0.03703300  0.10D-01  0.76D-02  1  1    38.98
   2      1.21697195    -0.89324254  -120.10717984    -0.02861610    -0.00329239  0.41D-03  0.13D-02  2  2    52.04
   3      1.22698325    -0.89538071  -120.10931801    -0.00213817    -0.00064839  0.39D-03  0.18D-03  3  3    64.91
   4      1.23422792    -0.89749248  -120.11142978    -0.00211177    -0.00011050  0.45D-04  0.45D-04  4  4    78.00
   5      1.23875282    -0.89839328  -120.11233058    -0.00090080    -0.00001907  0.70D-05  0.10D-04  5  5    90.98
   6      1.24016990    -0.89852047  -120.11245776    -0.00012719    -0.00000530  0.17D-05  0.32D-05  6  6   104.71
