/global/cscratch1/sd/bkincaid/cutoffs/W/250-610/runs/scf_590

     Program PWSCF v.6.4.1 starts on 17Jan2022 at 19:51:55 

     This program is part of the open-source Quantum ESPRESSO suite
     for quantum simulation of materials; please cite
         "P. Giannozzi et al., J. Phys.:Condens. Matter 21 395502 (2009);
         "P. Giannozzi et al., J. Phys.:Condens. Matter 29 465901 (2017);
          URL http://www.quantum-espresso.org", 
     in publications or presentations arising from this work. More details at
     http://www.quantum-espresso.org/quote

     Parallel version (MPI & OpenMP), running on      32 processor cores
     Number of MPI processes:                32
     Threads/MPI process:                     1

     MPI processes distributed on     1 nodes
     R & G space division:  proc/nbgrp/npool/nimage =      32
     Reading input from scf_590.in

     Current dimensions of program PWSCF are:
     Max number of different atomic species (ntypx) = 10
     Max number of k-points (npk) =  40000
     Max angular momentum in pseudopotentials (lmaxx) =  3

     IMPORTANT: XC functional enforced from input :
     Exchange-correlation      = PBE ( 1  4  3  4 0 0)
     Any further DFT definition will be discarded
     Please, verify this is what you really want


     gamma-point specific algorithms are used

     Subspace diagonalization in iterative solution of the eigenvalue problem:
     one sub-group per band group will be used
     scalapack distributed-memory algorithm (size of sub-group:  4*  4 procs)

     Message from routine setup:
     DEPRECATED: symmetry with ibrav=0, use correct ibrav instead
 
     Parallelization info
     --------------------
     sticks:   dense  smooth     PW     G-vecs:    dense   smooth      PW
     Min        3018    3018    753               705480   705480   88170
     Max        3020    3020    758               705486   705486   88178
     Sum       96593   96593  24153             22575455 22575455 2821487
 


     bravais-lattice index     =            0
     lattice parameter (alat)  =      22.6767  a.u.
     unit-cell volume          =   11661.1222 (a.u.)^3
     number of atoms/cell      =            1
     number of atomic types    =            1
     number of electrons       =        14.00 (up:   9.00, down:   5.00)
     number of Kohn-Sham states=           12
     kinetic-energy cutoff     =     590.0000  Ry
     charge density cutoff     =    2360.0000  Ry
     convergence threshold     =      1.0E-06
     mixing beta               =       0.7000
     number of iterations used =            8  plain     mixing
     Exchange-correlation      = PBE ( 1  4  3  4 0 0)

     celldm(1)=  22.676714  celldm(2)=   0.000000  celldm(3)=   0.000000
     celldm(4)=   0.000000  celldm(5)=   0.000000  celldm(6)=   0.000000

     crystal axes: (cart. coord. in units of alat)
               a(1) = (   1.000000   0.000000   0.000000 )  
               a(2) = (   0.000000   1.000000   0.000000 )  
               a(3) = (   0.000000   0.000000   1.000000 )  

     reciprocal axes: (cart. coord. in units 2 pi/alat)
               b(1) = (  1.000000  0.000000  0.000000 )  
               b(2) = (  0.000000  1.000000  0.000000 )  
               b(3) = (  0.000000  0.000000  1.000000 )  


     PseudoPot. # 1 for W  read from file:
     ./W.upf
     MD5 check sum: 4ed05a8c0c5f577ff01fd4795b4ecf91
     Pseudo is Norm-conserving, Zval = 14.0
     Generated by new atomic code, or converted to UPF format
     Using radial grid of 1187 points,  3 beta functions with: 
                l(1) =   0
                l(2) =   2
                l(3) =   3

     atomic species   valence    mass     pseudopotential
        W             14.00   183.85000     W ( 1.00)

     Starting magnetic structure 
     atomic species   magnetization
        W            0.500

     48 Sym. Ops., with inversion, found


                                    s                        frac. trans.

      isym =  1     identity                                     

 cryst.   s( 1) = (     1          0          0      )
                  (     0          1          0      )
                  (     0          0          1      )

 cart.    s( 1) = (  1.0000000  0.0000000  0.0000000 )
                  (  0.0000000  1.0000000  0.0000000 )
                  (  0.0000000  0.0000000  1.0000000 )


      isym =  2     180 deg rotation - cart. axis [0,0,1]        

 cryst.   s( 2) = (    -1          0          0      )
                  (     0         -1          0      )
                  (     0          0          1      )

 cart.    s( 2) = ( -1.0000000  0.0000000  0.0000000 )
                  (  0.0000000 -1.0000000  0.0000000 )
                  (  0.0000000  0.0000000  1.0000000 )


      isym =  3     180 deg rotation - cart. axis [0,1,0]        

 cryst.   s( 3) = (    -1          0          0      )
                  (     0          1          0      )
                  (     0          0         -1      )

 cart.    s( 3) = ( -1.0000000  0.0000000  0.0000000 )
                  (  0.0000000  1.0000000  0.0000000 )
                  (  0.0000000  0.0000000 -1.0000000 )


      isym =  4     180 deg rotation - cart. axis [1,0,0]        

 cryst.   s( 4) = (     1          0          0      )
                  (     0         -1          0      )
                  (     0          0         -1      )

 cart.    s( 4) = (  1.0000000  0.0000000  0.0000000 )
                  (  0.0000000 -1.0000000  0.0000000 )
                  (  0.0000000  0.0000000 -1.0000000 )


      isym =  5     180 deg rotation - cart. axis [1,1,0]        

 cryst.   s( 5) = (     0          1          0      )
                  (     1          0          0      )
                  (     0          0         -1      )

 cart.    s( 5) = (  0.0000000  1.0000000  0.0000000 )
                  (  1.0000000  0.0000000  0.0000000 )
                  (  0.0000000  0.0000000 -1.0000000 )


      isym =  6     180 deg rotation - cart. axis [1,-1,0]       

 cryst.   s( 6) = (     0         -1          0      )
                  (    -1          0          0      )
                  (     0          0         -1      )

 cart.    s( 6) = (  0.0000000 -1.0000000  0.0000000 )
                  ( -1.0000000  0.0000000  0.0000000 )
                  (  0.0000000  0.0000000 -1.0000000 )


      isym =  7      90 deg rotation - cart. axis [0,0,-1]       

 cryst.   s( 7) = (     0         -1          0      )
                  (     1          0          0      )
                  (     0          0          1      )

 cart.    s( 7) = (  0.0000000  1.0000000  0.0000000 )
                  ( -1.0000000  0.0000000  0.0000000 )
                  (  0.0000000  0.0000000  1.0000000 )


      isym =  8      90 deg rotation - cart. axis [0,0,1]        

 cryst.   s( 8) = (     0          1          0      )
                  (    -1          0          0      )
                  (     0          0          1      )

 cart.    s( 8) = (  0.0000000 -1.0000000  0.0000000 )
                  (  1.0000000  0.0000000  0.0000000 )
                  (  0.0000000  0.0000000  1.0000000 )


      isym =  9     180 deg rotation - cart. axis [1,0,1]        

 cryst.   s( 9) = (     0          0          1      )
                  (     0         -1          0      )
                  (     1          0          0      )

 cart.    s( 9) = (  0.0000000  0.0000000  1.0000000 )
                  (  0.0000000 -1.0000000  0.0000000 )
                  (  1.0000000  0.0000000  0.0000000 )


      isym = 10     180 deg rotation - cart. axis [-1,0,1]       

 cryst.   s(10) = (     0          0         -1      )
                  (     0         -1          0      )
                  (    -1          0          0      )

 cart.    s(10) = (  0.0000000  0.0000000 -1.0000000 )
                  (  0.0000000 -1.0000000  0.0000000 )
                  ( -1.0000000  0.0000000  0.0000000 )


      isym = 11      90 deg rotation - cart. axis [0,1,0]        

 cryst.   s(11) = (     0          0         -1      )
                  (     0          1          0      )
                  (     1          0          0      )

 cart.    s(11) = (  0.0000000  0.0000000  1.0000000 )
                  (  0.0000000  1.0000000  0.0000000 )
                  ( -1.0000000  0.0000000  0.0000000 )


      isym = 12      90 deg rotation - cart. axis [0,-1,0]       

 cryst.   s(12) = (     0          0          1      )
                  (     0          1          0      )
                  (    -1          0          0      )

 cart.    s(12) = (  0.0000000  0.0000000 -1.0000000 )
                  (  0.0000000  1.0000000  0.0000000 )
                  (  1.0000000  0.0000000  0.0000000 )


      isym = 13     180 deg rotation - cart. axis [0,1,1]        

 cryst.   s(13) = (    -1          0          0      )
                  (     0          0          1      )
                  (     0          1          0      )

 cart.    s(13) = ( -1.0000000  0.0000000  0.0000000 )
                  (  0.0000000  0.0000000  1.0000000 )
                  (  0.0000000  1.0000000  0.0000000 )


      isym = 14     180 deg rotation - cart. axis [0,1,-1]       

 cryst.   s(14) = (    -1          0          0      )
                  (     0          0         -1      )
                  (     0         -1          0      )

 cart.    s(14) = ( -1.0000000  0.0000000  0.0000000 )
                  (  0.0000000  0.0000000 -1.0000000 )
                  (  0.0000000 -1.0000000  0.0000000 )


      isym = 15      90 deg rotation - cart. axis [-1,0,0]       

 cryst.   s(15) = (     1          0          0      )
                  (     0          0         -1      )
                  (     0          1          0      )

 cart.    s(15) = (  1.0000000  0.0000000  0.0000000 )
                  (  0.0000000  0.0000000  1.0000000 )
                  (  0.0000000 -1.0000000  0.0000000 )


      isym = 16      90 deg rotation - cart. axis [1,0,0]        

 cryst.   s(16) = (     1          0          0      )
                  (     0          0          1      )
                  (     0         -1          0      )

 cart.    s(16) = (  1.0000000  0.0000000  0.0000000 )
                  (  0.0000000  0.0000000 -1.0000000 )
                  (  0.0000000  1.0000000  0.0000000 )


      isym = 17     120 deg rotation - cart. axis [-1,-1,-1]     

 cryst.   s(17) = (     0          0          1      )
                  (     1          0          0      )
                  (     0          1          0      )

 cart.    s(17) = (  0.0000000  1.0000000  0.0000000 )
                  (  0.0000000  0.0000000  1.0000000 )
                  (  1.0000000  0.0000000  0.0000000 )


      isym = 18     120 deg rotation - cart. axis [-1,1,1]       

 cryst.   s(18) = (     0          0         -1      )
                  (    -1          0          0      )
                  (     0          1          0      )

 cart.    s(18) = (  0.0000000 -1.0000000  0.0000000 )
                  (  0.0000000  0.0000000  1.0000000 )
                  ( -1.0000000  0.0000000  0.0000000 )


      isym = 19     120 deg rotation - cart. axis [1,1,-1]       

 cryst.   s(19) = (     0          0         -1      )
                  (     1          0          0      )
                  (     0         -1          0      )

 cart.    s(19) = (  0.0000000  1.0000000  0.0000000 )
                  (  0.0000000  0.0000000 -1.0000000 )
                  ( -1.0000000  0.0000000  0.0000000 )


      isym = 20     120 deg rotation - cart. axis [1,-1,1]       

 cryst.   s(20) = (     0          0          1      )
                  (    -1          0          0      )
                  (     0         -1          0      )

 cart.    s(20) = (  0.0000000 -1.0000000  0.0000000 )
                  (  0.0000000  0.0000000 -1.0000000 )
                  (  1.0000000  0.0000000  0.0000000 )


      isym = 21     120 deg rotation - cart. axis [1,1,1]        

 cryst.   s(21) = (     0          1          0      )
                  (     0          0          1      )
                  (     1          0          0      )

 cart.    s(21) = (  0.0000000  0.0000000  1.0000000 )
                  (  1.0000000  0.0000000  0.0000000 )
                  (  0.0000000  1.0000000  0.0000000 )


      isym = 22     120 deg rotation - cart. axis [-1,1,-1]      

 cryst.   s(22) = (     0         -1          0      )
                  (     0          0         -1      )
                  (     1          0          0      )

 cart.    s(22) = (  0.0000000  0.0000000  1.0000000 )
                  ( -1.0000000  0.0000000  0.0000000 )
                  (  0.0000000 -1.0000000  0.0000000 )


      isym = 23     120 deg rotation - cart. axis [1,-1,-1]      

 cryst.   s(23) = (     0         -1          0      )
                  (     0          0          1      )
                  (    -1          0          0      )

 cart.    s(23) = (  0.0000000  0.0000000 -1.0000000 )
                  ( -1.0000000  0.0000000  0.0000000 )
                  (  0.0000000  1.0000000  0.0000000 )


      isym = 24     120 deg rotation - cart. axis [-1,-1,1]      

 cryst.   s(24) = (     0          1          0      )
                  (     0          0         -1      )
                  (    -1          0          0      )

 cart.    s(24) = (  0.0000000  0.0000000 -1.0000000 )
                  (  1.0000000  0.0000000  0.0000000 )
                  (  0.0000000 -1.0000000  0.0000000 )


      isym = 25     inversion                                    

 cryst.   s(25) = (    -1          0          0      )
                  (     0         -1          0      )
                  (     0          0         -1      )

 cart.    s(25) = ( -1.0000000  0.0000000  0.0000000 )
                  (  0.0000000 -1.0000000  0.0000000 )
                  (  0.0000000  0.0000000 -1.0000000 )


      isym = 26     inv. 180 deg rotation - cart. axis [0,0,1]   

 cryst.   s(26) = (     1          0          0      )
                  (     0          1          0      )
                  (     0          0         -1      )

 cart.    s(26) = (  1.0000000  0.0000000  0.0000000 )
                  (  0.0000000  1.0000000  0.0000000 )
                  (  0.0000000  0.0000000 -1.0000000 )


      isym = 27     inv. 180 deg rotation - cart. axis [0,1,0]   

 cryst.   s(27) = (     1          0          0      )
                  (     0         -1          0      )
                  (     0          0          1      )

 cart.    s(27) = (  1.0000000  0.0000000  0.0000000 )
                  (  0.0000000 -1.0000000  0.0000000 )
                  (  0.0000000  0.0000000  1.0000000 )


      isym = 28     inv. 180 deg rotation - cart. axis [1,0,0]   

 cryst.   s(28) = (    -1          0          0      )
                  (     0          1          0      )
                  (     0          0          1      )

 cart.    s(28) = ( -1.0000000  0.0000000  0.0000000 )
                  (  0.0000000  1.0000000  0.0000000 )
                  (  0.0000000  0.0000000  1.0000000 )


      isym = 29     inv. 180 deg rotation - cart. axis [1,1,0]   

 cryst.   s(29) = (     0         -1          0      )
                  (    -1          0          0      )
                  (     0          0          1      )

 cart.    s(29) = (  0.0000000 -1.0000000  0.0000000 )
                  ( -1.0000000  0.0000000  0.0000000 )
                  (  0.0000000  0.0000000  1.0000000 )


      isym = 30     inv. 180 deg rotation - cart. axis [1,-1,0]  

 cryst.   s(30) = (     0          1          0      )
                  (     1          0          0      )
                  (     0          0          1      )

 cart.    s(30) = (  0.0000000  1.0000000  0.0000000 )
                  (  1.0000000  0.0000000  0.0000000 )
                  (  0.0000000  0.0000000  1.0000000 )


      isym = 31     inv.  90 deg rotation - cart. axis [0,0,-1]  

 cryst.   s(31) = (     0          1          0      )
                  (    -1          0          0      )
                  (     0          0         -1      )

 cart.    s(31) = (  0.0000000 -1.0000000  0.0000000 )
                  (  1.0000000  0.0000000  0.0000000 )
                  (  0.0000000  0.0000000 -1.0000000 )


      isym = 32     inv.  90 deg rotation - cart. axis [0,0,1]   

 cryst.   s(32) = (     0         -1          0      )
                  (     1          0          0      )
                  (     0          0         -1      )

 cart.    s(32) = (  0.0000000  1.0000000  0.0000000 )
                  ( -1.0000000  0.0000000  0.0000000 )
                  (  0.0000000  0.0000000 -1.0000000 )


      isym = 33     inv. 180 deg rotation - cart. axis [1,0,1]   

 cryst.   s(33) = (     0          0         -1      )
                  (     0          1          0      )
                  (    -1          0          0      )

 cart.    s(33) = (  0.0000000  0.0000000 -1.0000000 )
                  (  0.0000000  1.0000000  0.0000000 )
                  ( -1.0000000  0.0000000  0.0000000 )


      isym = 34     inv. 180 deg rotation - cart. axis [-1,0,1]  

 cryst.   s(34) = (     0          0          1      )
                  (     0          1          0      )
                  (     1          0          0      )

 cart.    s(34) = (  0.0000000  0.0000000  1.0000000 )
                  (  0.0000000  1.0000000  0.0000000 )
                  (  1.0000000  0.0000000  0.0000000 )


      isym = 35     inv.  90 deg rotation - cart. axis [0,1,0]   

 cryst.   s(35) = (     0          0          1      )
                  (     0         -1          0      )
                  (    -1          0          0      )

 cart.    s(35) = (  0.0000000  0.0000000 -1.0000000 )
                  (  0.0000000 -1.0000000  0.0000000 )
                  (  1.0000000  0.0000000  0.0000000 )


      isym = 36     inv.  90 deg rotation - cart. axis [0,-1,0]  

 cryst.   s(36) = (     0          0         -1      )
                  (     0         -1          0      )
                  (     1          0          0      )

 cart.    s(36) = (  0.0000000  0.0000000  1.0000000 )
                  (  0.0000000 -1.0000000  0.0000000 )
                  ( -1.0000000  0.0000000  0.0000000 )


      isym = 37     inv. 180 deg rotation - cart. axis [0,1,1]   

 cryst.   s(37) = (     1          0          0      )
                  (     0          0         -1      )
                  (     0         -1          0      )

 cart.    s(37) = (  1.0000000  0.0000000  0.0000000 )
                  (  0.0000000  0.0000000 -1.0000000 )
                  (  0.0000000 -1.0000000  0.0000000 )


      isym = 38     inv. 180 deg rotation - cart. axis [0,1,-1]  

 cryst.   s(38) = (     1          0          0      )
                  (     0          0          1      )
                  (     0          1          0      )

 cart.    s(38) = (  1.0000000  0.0000000  0.0000000 )
                  (  0.0000000  0.0000000  1.0000000 )
                  (  0.0000000  1.0000000  0.0000000 )


      isym = 39     inv.  90 deg rotation - cart. axis [-1,0,0]  

 cryst.   s(39) = (    -1          0          0      )
                  (     0          0          1      )
                  (     0         -1          0      )

 cart.    s(39) = ( -1.0000000  0.0000000  0.0000000 )
                  (  0.0000000  0.0000000 -1.0000000 )
                  (  0.0000000  1.0000000  0.0000000 )


      isym = 40     inv.  90 deg rotation - cart. axis [1,0,0]   

 cryst.   s(40) = (    -1          0          0      )
                  (     0          0         -1      )
                  (     0          1          0      )

 cart.    s(40) = ( -1.0000000  0.0000000  0.0000000 )
                  (  0.0000000  0.0000000  1.0000000 )
                  (  0.0000000 -1.0000000  0.0000000 )


      isym = 41     inv. 120 deg rotation - cart. axis [-1,-1,-1]

 cryst.   s(41) = (     0          0         -1      )
                  (    -1          0          0      )
                  (     0         -1          0      )

 cart.    s(41) = (  0.0000000 -1.0000000  0.0000000 )
                  (  0.0000000  0.0000000 -1.0000000 )
                  ( -1.0000000  0.0000000  0.0000000 )


      isym = 42     inv. 120 deg rotation - cart. axis [-1,1,1]  

 cryst.   s(42) = (     0          0          1      )
                  (     1          0          0      )
                  (     0         -1          0      )

 cart.    s(42) = (  0.0000000  1.0000000  0.0000000 )
                  (  0.0000000  0.0000000 -1.0000000 )
                  (  1.0000000  0.0000000  0.0000000 )


      isym = 43     inv. 120 deg rotation - cart. axis [1,1,-1]  

 cryst.   s(43) = (     0          0          1      )
                  (    -1          0          0      )
                  (     0          1          0      )

 cart.    s(43) = (  0.0000000 -1.0000000  0.0000000 )
                  (  0.0000000  0.0000000  1.0000000 )
                  (  1.0000000  0.0000000  0.0000000 )


      isym = 44     inv. 120 deg rotation - cart. axis [1,-1,1]  

 cryst.   s(44) = (     0          0         -1      )
                  (     1          0          0      )
                  (     0          1          0      )

 cart.    s(44) = (  0.0000000  1.0000000  0.0000000 )
                  (  0.0000000  0.0000000  1.0000000 )
                  ( -1.0000000  0.0000000  0.0000000 )


      isym = 45     inv. 120 deg rotation - cart. axis [1,1,1]   

 cryst.   s(45) = (     0         -1          0      )
                  (     0          0         -1      )
                  (    -1          0          0      )

 cart.    s(45) = (  0.0000000  0.0000000 -1.0000000 )
                  ( -1.0000000  0.0000000  0.0000000 )
                  (  0.0000000 -1.0000000  0.0000000 )


      isym = 46     inv. 120 deg rotation - cart. axis [-1,1,-1] 

 cryst.   s(46) = (     0          1          0      )
                  (     0          0          1      )
                  (    -1          0          0      )

 cart.    s(46) = (  0.0000000  0.0000000 -1.0000000 )
                  (  1.0000000  0.0000000  0.0000000 )
                  (  0.0000000  1.0000000  0.0000000 )


      isym = 47     inv. 120 deg rotation - cart. axis [1,-1,-1] 

 cryst.   s(47) = (     0          1          0      )
                  (     0          0         -1      )
                  (     1          0          0      )

 cart.    s(47) = (  0.0000000  0.0000000  1.0000000 )
                  (  1.0000000  0.0000000  0.0000000 )
                  (  0.0000000 -1.0000000  0.0000000 )


      isym = 48     inv. 120 deg rotation - cart. axis [-1,-1,1] 

 cryst.   s(48) = (     0         -1          0      )
                  (     0          0          1      )
                  (     1          0          0      )

 cart.    s(48) = (  0.0000000  0.0000000  1.0000000 )
                  ( -1.0000000  0.0000000  0.0000000 )
                  (  0.0000000  1.0000000  0.0000000 )


   Cartesian axes

     site n.     atom                  positions (alat units)
         1           W   tau(   1) = (   0.5000000   0.5000000   0.5000000  )

   Crystallographic axes

     site n.     atom                  positions (cryst. coord.)
         1           W   tau(   1) = (  0.5000000  0.5000000  0.5000000  )

     number of k points=     1
                       cart. coord. in units 2pi/alat
        k(    1) = (   0.0000000   0.0000000   0.0000000), wk =   1.0000000

                       cryst. coord.
        k(    1) = (   0.0000000   0.0000000   0.0000000), wk =   1.0000000

     Dense  grid: 11287728 G-vectors     FFT dimensions: ( 360, 360, 360)

     Dynamical RAM for                 wfc:       8.07 MB

     Dynamical RAM for     wfc (w. buffer):      24.22 MB

     Dynamical RAM for           str. fact:       5.38 MB

     Dynamical RAM for           local pot:       0.00 MB

     Dynamical RAM for          nlocal pot:       8.75 MB

     Dynamical RAM for                qrad:       5.62 MB

     Dynamical RAM for          rho,v,vnew:     103.49 MB

     Dynamical RAM for               rhoin:      34.50 MB

     Dynamical RAM for            rho*nmix:     172.24 MB

     Dynamical RAM for           G-vectors:      22.88 MB

     Dynamical RAM for          h,s,v(r/c):       0.00 MB

     Dynamical RAM for          <psi|beta>:       0.00 MB

     Dynamical RAM for                 psi:      32.30 MB

     Dynamical RAM for                hpsi:      32.30 MB

     Dynamical RAM for      wfcinit/wfcrot:      21.54 MB

     Estimated static dynamical RAM per process >     459.02 MB

     Estimated max dynamical RAM per process >     523.62 MB

     Estimated total dynamical RAM >      16.36 GB
     Generating pointlists ...
     new r_m :   0.4125 (alat units)  9.3541 (a.u.) for type    1

     Initial potential from superposition of free atoms

     starting charge   11.30112, renormalised to   14.00000

     negative rho (up, down):  1.261E-02 0.000E+00
     Starting wfcs are   16 randomized atomic wfcs

     total cpu time spent up to now is       16.7 secs

     Self-consistent Calculation

     iteration #  1     ecut=   590.00 Ry     beta= 0.70
     Davidson diagonalization with overlap
     ethr =  1.00E-02,  avg # of iterations = 18.0

     negative rho (up, down):  1.349E-07 1.697E-02

     total cpu time spent up to now is       46.4 secs

     total energy              =    -127.63719024 Ry
     Harris-Foulkes estimate   =    -137.39742502 Ry
     estimated scf accuracy    <      12.59587927 Ry

     total magnetization       =     4.00 Bohr mag/cell
     absolute magnetization    =     4.01 Bohr mag/cell

     iteration #  2     ecut=   590.00 Ry     beta= 0.70
     Davidson diagonalization with overlap
     ethr =  1.00E-02,  avg # of iterations =  7.5

     negative rho (up, down):  7.093E-08 1.653E-02

     total cpu time spent up to now is       68.1 secs

     total energy              =    -134.71542876 Ry
     Harris-Foulkes estimate   =    -138.87938368 Ry
     estimated scf accuracy    <       7.20827235 Ry

     total magnetization       =     4.00 Bohr mag/cell
     absolute magnetization    =     4.00 Bohr mag/cell

     iteration #  3     ecut=   590.00 Ry     beta= 0.70
     Davidson diagonalization with overlap
     ethr =  1.00E-02,  avg # of iterations =  2.0

     negative rho (up, down):  6.213E-08 1.655E-02

     total cpu time spent up to now is       81.2 secs

     total energy              =    -134.90903461 Ry
     Harris-Foulkes estimate   =    -135.13053916 Ry
     estimated scf accuracy    <       1.42684889 Ry

     total magnetization       =     4.00 Bohr mag/cell
     absolute magnetization    =     4.00 Bohr mag/cell

     iteration #  4     ecut=   590.00 Ry     beta= 0.70
     Davidson diagonalization with overlap
     ethr =  1.00E-02,  avg # of iterations =  1.0

     negative rho (up, down):  6.648E-08 1.646E-02

     total cpu time spent up to now is       93.2 secs

     total energy              =    -135.18543183 Ry
     Harris-Foulkes estimate   =    -134.93721454 Ry
     estimated scf accuracy    <       0.76934998 Ry

     total magnetization       =     4.00 Bohr mag/cell
     absolute magnetization    =     4.13 Bohr mag/cell

     iteration #  5     ecut=   590.00 Ry     beta= 0.70
     Davidson diagonalization with overlap
     ethr =  5.50E-03,  avg # of iterations =  1.0

     negative rho (up, down):  6.603E-08 1.643E-02

     total cpu time spent up to now is      105.3 secs

     total energy              =    -135.22608694 Ry
     Harris-Foulkes estimate   =    -135.23166638 Ry
     estimated scf accuracy    <       1.61209695 Ry

     total magnetization       =     4.00 Bohr mag/cell
     absolute magnetization    =     4.00 Bohr mag/cell

     iteration #  6     ecut=   590.00 Ry     beta= 0.70
     Davidson diagonalization with overlap
     ethr =  5.50E-03,  avg # of iterations =  1.0

     negative rho (up, down):  1.735E-07 1.738E-02

     total cpu time spent up to now is      117.5 secs

     total energy              =    -135.17475841 Ry
     Harris-Foulkes estimate   =    -135.23012945 Ry
     estimated scf accuracy    <       1.61309609 Ry

     total magnetization       =     4.00 Bohr mag/cell
     absolute magnetization    =     4.00 Bohr mag/cell

     iteration #  7     ecut=   590.00 Ry     beta= 0.70
     Davidson diagonalization with overlap
     ethr =  5.50E-03,  avg # of iterations =  1.0

     negative rho (up, down):  6.082E-08 1.653E-02

     total cpu time spent up to now is      129.8 secs

     total energy              =    -135.13518271 Ry
     Harris-Foulkes estimate   =    -135.17996546 Ry
     estimated scf accuracy    <       1.54584464 Ry

     total magnetization       =     4.00 Bohr mag/cell
     absolute magnetization    =     4.00 Bohr mag/cell

     iteration #  8     ecut=   590.00 Ry     beta= 0.70
     Davidson diagonalization with overlap
     ethr =  5.50E-03,  avg # of iterations =  1.0

     negative rho (up, down):  2.933E-04 1.836E-02

     total cpu time spent up to now is      142.1 secs

     total energy              =    -134.77305783 Ry
     Harris-Foulkes estimate   =    -135.14382142 Ry
     estimated scf accuracy    <       1.44809460 Ry

     total magnetization       =     4.00 Bohr mag/cell
     absolute magnetization    =     4.05 Bohr mag/cell

     iteration #  9     ecut=   590.00 Ry     beta= 0.70
     Davidson diagonalization with overlap
     ethr =  5.50E-03,  avg # of iterations =  1.0

     negative rho (up, down):  3.030E-02 2.778E-02

     total cpu time spent up to now is      154.6 secs

     total energy              =    -134.30876324 Ry
     Harris-Foulkes estimate   =    -134.83431616 Ry
     estimated scf accuracy    <       0.95235400 Ry

     total magnetization       =     4.00 Bohr mag/cell
     absolute magnetization    =     4.48 Bohr mag/cell

     iteration # 10     ecut=   590.00 Ry     beta= 0.70
     Davidson diagonalization with overlap
     ethr =  5.50E-03,  avg # of iterations =  1.0

     negative rho (up, down):  3.231E-02 1.372E-01

     total cpu time spent up to now is      166.9 secs

     total energy              =    -134.28422627 Ry
     Harris-Foulkes estimate   =    -134.36884049 Ry
     estimated scf accuracy    <       0.65761101 Ry

     total magnetization       =     4.00 Bohr mag/cell
     absolute magnetization    =     4.42 Bohr mag/cell

     iteration # 11     ecut=   590.00 Ry     beta= 0.70
     Davidson diagonalization with overlap
     ethr =  4.70E-03,  avg # of iterations =  2.0

     negative rho (up, down):  1.227E-02 1.294E-01

     total cpu time spent up to now is      179.6 secs

     total energy              =    -134.37727035 Ry
     Harris-Foulkes estimate   =    -134.32763043 Ry
     estimated scf accuracy    <       0.54317777 Ry

     total magnetization       =     4.00 Bohr mag/cell
     absolute magnetization    =     4.30 Bohr mag/cell

     iteration # 12     ecut=   590.00 Ry     beta= 0.70
     Davidson diagonalization with overlap
     ethr =  3.88E-03,  avg # of iterations =  1.0

     negative rho (up, down):  9.868E-02 1.265E-01

     total cpu time spent up to now is      191.9 secs

     total energy              =    -134.20509987 Ry
     Harris-Foulkes estimate   =    -134.39331774 Ry
     estimated scf accuracy    <       0.36158774 Ry

     total magnetization       =     4.00 Bohr mag/cell
     absolute magnetization    =     4.22 Bohr mag/cell

     iteration # 13     ecut=   590.00 Ry     beta= 0.70
     Davidson diagonalization with overlap
     ethr =  2.58E-03,  avg # of iterations =  2.5

     negative rho (up, down):  1.247E-01 1.297E-01

     total cpu time spent up to now is      206.5 secs

     total energy              =    -134.65216360 Ry
     Harris-Foulkes estimate   =    -134.66360300 Ry
     estimated scf accuracy    <       0.92120312 Ry

     total magnetization       =     4.00 Bohr mag/cell
     absolute magnetization    =     4.09 Bohr mag/cell

     iteration # 14     ecut=   590.00 Ry     beta= 0.70
     Davidson diagonalization with overlap
     ethr =  2.58E-03,  avg # of iterations =  1.0

     negative rho (up, down):  3.037E-01 7.865E-03

     total cpu time spent up to now is      218.8 secs

     total energy              =    -134.70103115 Ry
     Harris-Foulkes estimate   =    -134.65489241 Ry
     estimated scf accuracy    <       1.00461046 Ry

     total magnetization       =     4.00 Bohr mag/cell
     absolute magnetization    =     4.10 Bohr mag/cell

     iteration # 15     ecut=   590.00 Ry     beta= 0.70
     Davidson diagonalization with overlap
     ethr =  2.58E-03,  avg # of iterations =  2.0

     negative rho (up, down):  2.820E-02 1.060E-01

     total cpu time spent up to now is      232.1 secs

     total energy              =    -134.44863829 Ry
     Harris-Foulkes estimate   =    -134.83816124 Ry
     estimated scf accuracy    <       2.26991396 Ry

     total magnetization       =     4.00 Bohr mag/cell
     absolute magnetization    =     4.04 Bohr mag/cell

     iteration # 16     ecut=   590.00 Ry     beta= 0.70
     Davidson diagonalization with overlap
     ethr =  2.58E-03,  avg # of iterations =  2.0

     negative rho (up, down):  1.052E-06 1.074E-03

     total cpu time spent up to now is      245.5 secs

     total energy              =    -134.62256252 Ry
     Harris-Foulkes estimate   =    -134.63363160 Ry
     estimated scf accuracy    <       0.53446423 Ry

     total magnetization       =     4.00 Bohr mag/cell
     absolute magnetization    =     4.13 Bohr mag/cell

     iteration # 17     ecut=   590.00 Ry     beta= 0.70
     Davidson diagonalization with overlap
     ethr =  2.58E-03,  avg # of iterations =  1.5

     negative rho (up, down):  1.193E-09 1.319E-03

     total cpu time spent up to now is      258.5 secs

     total energy              =    -134.68645583 Ry
     Harris-Foulkes estimate   =    -134.68554266 Ry
     estimated scf accuracy    <       0.04539572 Ry

     total magnetization       =     4.00 Bohr mag/cell
     absolute magnetization    =     4.04 Bohr mag/cell

     iteration # 18     ecut=   590.00 Ry     beta= 0.70
     Davidson diagonalization with overlap
     ethr =  3.24E-04,  avg # of iterations =  3.0

     negative rho (up, down):  9.083E-10 8.992E-04

     total cpu time spent up to now is      272.0 secs

     total energy              =    -134.68441153 Ry
     Harris-Foulkes estimate   =    -134.69399803 Ry
     estimated scf accuracy    <       0.02913308 Ry

     total magnetization       =     4.00 Bohr mag/cell
     absolute magnetization    =     4.03 Bohr mag/cell

     iteration # 19     ecut=   590.00 Ry     beta= 0.70
     Davidson diagonalization with overlap
     ethr =  2.08E-04,  avg # of iterations =  2.0

     negative rho (up, down):  1.492E-10 6.685E-04

     total cpu time spent up to now is      284.7 secs

     total energy              =    -134.69230531 Ry
     Harris-Foulkes estimate   =    -134.69279539 Ry
     estimated scf accuracy    <       0.01623321 Ry

     total magnetization       =     4.00 Bohr mag/cell
     absolute magnetization    =     4.14 Bohr mag/cell

     iteration # 20     ecut=   590.00 Ry     beta= 0.70
     Davidson diagonalization with overlap
     ethr =  1.16E-04,  avg # of iterations =  1.0

     negative rho (up, down):  2.272E-05 3.623E-01

     total cpu time spent up to now is      296.7 secs

     total energy              =    -134.69498252 Ry
     Harris-Foulkes estimate   =    -134.69423236 Ry
     estimated scf accuracy    <       0.00367960 Ry

     total magnetization       =     4.00 Bohr mag/cell
     absolute magnetization    =     4.21 Bohr mag/cell

     iteration # 21     ecut=   590.00 Ry     beta= 0.70
     Davidson diagonalization with overlap
     ethr =  2.63E-05,  avg # of iterations =  8.0

     negative rho (up, down):  1.909E-06 1.667E-01

     total cpu time spent up to now is      314.9 secs

     total energy              =    -134.69767322 Ry
     Harris-Foulkes estimate   =    -134.69800372 Ry
     estimated scf accuracy    <       0.00128159 Ry

     total magnetization       =     4.00 Bohr mag/cell
     absolute magnetization    =     4.32 Bohr mag/cell

     iteration # 22     ecut=   590.00 Ry     beta= 0.70
     Davidson diagonalization with overlap
     ethr =  9.15E-06,  avg # of iterations =  2.5

     negative rho (up, down):  1.076E-05 3.830E-01

     total cpu time spent up to now is      328.1 secs

     total energy              =    -134.69822681 Ry
     Harris-Foulkes estimate   =    -134.69780517 Ry
     estimated scf accuracy    <       0.00035688 Ry

     total magnetization       =     4.00 Bohr mag/cell
     absolute magnetization    =     4.31 Bohr mag/cell

     iteration # 23     ecut=   590.00 Ry     beta= 0.70
     Davidson diagonalization with overlap
     ethr =  2.55E-06,  avg # of iterations =  4.5

     negative rho (up, down):  4.120E-06 2.947E-01

     total cpu time spent up to now is      344.0 secs

     total energy              =    -134.69851039 Ry
     Harris-Foulkes estimate   =    -134.69838083 Ry
     estimated scf accuracy    <       0.00009413 Ry

     total magnetization       =     4.00 Bohr mag/cell
     absolute magnetization    =     4.33 Bohr mag/cell

     iteration # 24     ecut=   590.00 Ry     beta= 0.70
     Davidson diagonalization with overlap
     ethr =  6.72E-07,  avg # of iterations =  2.5

     negative rho (up, down):  0.000E+00 8.573E-06

     total cpu time spent up to now is      358.0 secs

     total energy              =    -134.69859544 Ry
     Harris-Foulkes estimate   =    -134.69857226 Ry
     estimated scf accuracy    <       0.00002165 Ry

     total magnetization       =     4.00 Bohr mag/cell
     absolute magnetization    =     4.35 Bohr mag/cell

     iteration # 25     ecut=   590.00 Ry     beta= 0.70
     Davidson diagonalization with overlap
     ethr =  1.55E-07,  avg # of iterations =  3.5

     negative rho (up, down):  0.000E+00 6.837E-06

     total cpu time spent up to now is      372.4 secs

     total energy              =    -134.69861205 Ry
     Harris-Foulkes estimate   =    -134.69861159 Ry
     estimated scf accuracy    <       0.00000291 Ry

     total magnetization       =     4.00 Bohr mag/cell
     absolute magnetization    =     4.35 Bohr mag/cell

     iteration # 26     ecut=   590.00 Ry     beta= 0.70
     Davidson diagonalization with overlap
     ethr =  2.08E-08,  avg # of iterations =  3.5
 
     Magnetic moment per site:
     atom:    1    charge:   13.9994    magn:    4.0002    constr:    0.0000

     total cpu time spent up to now is      386.0 secs

     End of self-consistent calculation

 ------ SPIN UP ------------


          k = 0.0000 0.0000 0.0000 (****** PWs)   bands (ev):

   -77.8109 -42.8953 -42.8696 -42.8688  -5.7611  -4.7865  -4.7862  -4.7706
    -4.7703  -3.9167  -1.2472  -1.2461

     occupation numbers 
     1.0000   1.0000   1.0000   1.0000   1.0000   1.0000   1.0000   1.0000
     1.0000   0.0000   0.0000   0.0000

 ------ SPIN DOWN ----------


          k = 0.0000 0.0000 0.0000 (****** PWs)   bands (ev):

   -76.2653 -41.3527 -40.5109 -40.5098  -4.4825  -2.8849  -2.2417  -2.2405
    -1.7604  -1.7591  -0.8657  -0.2266

     occupation numbers 
     1.0000   1.0000   1.0000   1.0000   1.0000   0.0000   0.0000   0.0000
     0.0000   0.0000   0.0000   0.0000

     highest occupied, lowest unoccupied level (ev):    -4.4825   -3.9167

!    total energy              =    -134.69861516 Ry
     Harris-Foulkes estimate   =    -134.69861503 Ry
     estimated scf accuracy    <       0.00000024 Ry

     The total energy is the sum of the following terms:

     one-electron contribution =    -177.77812565 Ry
     hartree contribution      =      82.76352324 Ry
     xc contribution           =     -15.16060446 Ry
     ewald contribution        =     -24.52340829 Ry

     total magnetization       =     4.00 Bohr mag/cell
     absolute magnetization    =     4.36 Bohr mag/cell

     convergence has been achieved in  26 iterations

     Writing output data file pwscf.save/
 
     init_run     :     15.87s CPU     16.47s WALL (       1 calls)
     electrons    :    360.78s CPU    370.82s WALL (       1 calls)

     Called by init_run:
     wfcinit      :      3.16s CPU      3.28s WALL (       1 calls)
     wfcinit:atom :      0.05s CPU      0.07s WALL (       2 calls)
     wfcinit:wfcr :      3.02s CPU      3.10s WALL (       2 calls)
     potinit      :      3.77s CPU      3.98s WALL (       1 calls)
     hinit0       :      0.33s CPU      0.47s WALL (       1 calls)

     Called by electrons:
     c_bands      :    179.44s CPU    181.66s WALL (      26 calls)
     sum_band     :     57.55s CPU     57.72s WALL (      26 calls)
     v_of_rho     :     94.48s CPU     98.53s WALL (      27 calls)
     v_h          :      7.16s CPU      7.20s WALL (      27 calls)
     v_xc         :     87.32s CPU     91.34s WALL (      27 calls)
     mix_rho      :     29.47s CPU     32.18s WALL (      26 calls)

     Called by c_bands:
     init_us_2    :      1.80s CPU      1.80s WALL (     106 calls)
     regterg      :    176.28s CPU    178.47s WALL (      52 calls)

     Called by sum_band:

     Called by *egterg:
     h_psi        :    162.73s CPU    163.04s WALL (     208 calls)
     g_psi        :      0.52s CPU      0.52s WALL (     154 calls)
     rdiaghg      :      0.21s CPU      0.23s WALL (     206 calls)
     regterg:over :      3.51s CPU      3.51s WALL (     154 calls)
     regterg:upda :      7.14s CPU      7.22s WALL (     154 calls)
     regterg:last :      2.18s CPU      2.18s WALL (      59 calls)
     rdiaghg:chol :      0.03s CPU      0.04s WALL (     206 calls)
     rdiaghg:inve :      0.01s CPU      0.01s WALL (     206 calls)
     rdiaghg:para :      0.03s CPU      0.03s WALL (     412 calls)

     Called by h_psi:
     h_psi:pot    :    161.67s CPU    161.97s WALL (     208 calls)
     h_psi:calbec :      0.84s CPU      0.87s WALL (     208 calls)
     vloc_psi     :    159.40s CPU    159.68s WALL (     208 calls)
     add_vuspsi   :      1.42s CPU      1.42s WALL (     208 calls)

     General routines
     calbec       :      0.84s CPU      0.87s WALL (     208 calls)
     fft          :     78.18s CPU     78.86s WALL (     401 calls)
     ffts         :      8.15s CPU      8.19s WALL (      52 calls)
     fftw         :    156.89s CPU    157.19s WALL (    2106 calls)
 
     Parallel routines
     fft_scatt_xy :     43.07s CPU     43.11s WALL (    2559 calls)
     fft_scatt_yz :     85.89s CPU     86.56s WALL (    2559 calls)
 
     PWSCF        :   6m17.64s CPU   6m30.55s WALL

 
   This run was terminated on:  19:58:26  17Jan2022            

=------------------------------------------------------------------------------=
   JOB DONE.
=------------------------------------------------------------------------------=
