<?xml version="1.0"?>
<molpro xmlns="http://www.molpro.net/schema/molpro-output"
  xmlns:xsd="http://www.w3.org/1999/XMLSchema"
  xmlns:cml="http://www.xml-cml.org/schema"
  xmlns:stm="http://www.xml-cml.org/schema"
  xmlns:xhtml="http://www.w3.org/1999/xhtml">
 <!--

 Nodes     nprocs
 nid01669    15
 Number of processes for MPI-2 version of Molpro:   nprocs(total)=   16   nprocs(compute)=   15   nprocs(helper)=    1

 Using customized tuning parameters: mindgm=7; mindgv=16; mindgc=1; mindgr=1; noblas=0; minvec=7
 default implementation of scratch files=sf

 --><job>
  <!--

 Variables initialized (889), CPU time= 0.02 sec
 Commands  initialized (702), CPU time= 0.01 sec, 572 directives.
 Default parameters read. Elapsed time= 0.18 sec

 Checking input...
 Passed
1


                                         ***  PROGRAM SYSTEM MOLPRO  ***
                                       Copyright, TTI GmbH Stuttgart, 2015
                                    Version 2015.1 linked Dec 29 2018 15:55:43


 **********************************************************************************************************************************
 LABEL *   W
  64 bit mpp version                                                                     DATE: 11-Dec-21          TIME: 04:36:49
 **********************************************************************************************************************************

 SHA1:             19cd028119e0e09f93f0674bd8af7968d9b3eff6
 **********************************************************************************************************************************
  -->
  <!--

 THRESHOLDS:

 ZERO    =  1.00D-12  ONEINT  =  1.00D-12  TWOINT  =  1.00D-12  PREFAC  =  1.00D-14  LOCALI  =  1.00D-09  EORDER  =  1.00D-04
 ENERGY  =  0.00D+00  ETEST   =  0.00D+00  EDENS   =  0.00D+00  THRDEDEF=  1.00D-06  GRADIENT=  1.00D-02  STEP    =  1.00D-03
 ORBITAL =  1.00D-05  CIVEC   =  1.00D-05  COEFF   =  1.00D-04  PRINTCI =  5.00D-02  PUNCHCI =  9.90D+01  OPTGRAD =  3.00D-04
 OPTENERG=  1.00D-06  OPTSTEP =  3.00D-04  THRGRAD =  1.00D-10  COMPRESS=  1.00D-11  VARMIN  =  1.00D-07  VARMAX  =  1.00D-03
 THRDOUB =  0.00D+00  THRDIV  =  1.00D-05  THRRED  =  1.00D-07  THRPSP  =  1.00D+00  THRDC   =  1.00D-10  THRCS   =  1.00D-10
 THRNRM  =  1.00D-08  THREQ   =  0.00D+00  THRDE   =  1.00D+00  THRREF  =  1.00D-05  SPARFAC =  1.00D+00  THRDLP  =  1.00D-07
 THRDIA  =  1.00D-10  THRDLS  =  1.00D-07  THRGPS  =  0.00D+00  THRKEX  =  0.00D+00  THRDIS  =  2.00D-01  THRVAR  =  1.00D-10
 THRLOC  =  1.00D-06  THRGAP  =  1.00D-06  THRLOCT = -1.00D+00  THRGAPT = -1.00D+00  THRORB  =  1.00D-06  THRMLTP =  0.00D+00
 THRCPQCI=  1.00D-10  KEXTA   =  0.00D+00  THRCOARS=  0.00D+00  SYMTOL  =  1.00D-06  GRADTOL =  1.00D-06  THROVL  =  1.00D-08
 THRORTH =  1.00D-08  GRID    =  1.00D-06  GRIDMAX =  1.00D-03  DTMAX   =  0.00D+00  THROCCDE=  1.00D-01  THROCCDE=  1.00D-01



 ZUNIT=ANG


Geometry recognized as XYZ

 SETTING S_PAR(1)       =         4.79398800
 SETTING S_PAR(2)       =         2.79027400
 SETTING P_PAR(1)       =         3.75175400
 SETTING P_PAR(2)       =         3.38985800
 SETTING D_PAR(1)       =         3.02702500
 SETTING D_PAR(2)       =         3.07253000
 SETTING F_PAR          =         1.15940500
 SETTING G_PAR          =         1.58710800
 SETTING H_PAR          =         1.77318300
 SETTING I_PAR          =         1.86745400

 Variable memory set to  512000000 words,  buffer space   230000 words

  --><jobstep command="MINIMIZE" commandset="MINIMIZE">
   <!--


 PROGRAM * MINIMIZE (General minimization)     Authors: H.-J. Werner, P.J. Knowles, K.A. Peterson

 Minimize EVAL with respect to:        S_PAR(1)  S_PAR(2)  P_PAR(1)  P_PAR(2)  D_PAR(1)
                                       D_PAR(2)  F_PAR(1)  G_PAR(1)  H_PAR(1)  I_PAR(1)
 Method BFGS will be used
 Variables are optimized in the space of (x/x0)


 Minimization using procedure=OPT_BASIS

 Running procedure=OPT_BASIS
 SETTING BASIS          =    USERDEF
   --><jobstep command="RHF-SCF" commandset="SCFPRO">
    <!--


 Current variables in basis input:

 Set= 1  S_PAR(1)            =       4.79398800
 Set= 1  S_PAR(2)            =       2.79027400
 Set= 1  P_PAR(1)            =       3.75175400
 Set= 1  P_PAR(2)            =       3.38985800
 Set= 1  D_PAR(1)            =       3.02702500
 Set= 1  D_PAR(2)            =       3.07253000
 Set= 1  F_PAR(1)            =       1.15940500
 Set= 1  G_PAR(1)            =       1.58710800
 Set= 1  H_PAR(1)            =       1.77318300
 Set= 1  I_PAR(1)            =       1.86745400

 Recomputing integrals since basis changed


 Using spherical harmonics



 PROGRAM * SEWARD (Integral evaluation for generally contracted gaussian basis sets)     Author: Roland Lindh, 1990

 Geometry written to block  1 of record 700

 Orientation using atomic masses
 Molecule type: Atom
 Symmetry elements: X,Y,Z
 Rotational constants:       0.0000000      0.0000000      0.0000000 GHz  (calculated with average atomic masses)

 Point group  D2h


    --><cml:molecule>
     <cml:symmetry pointGroup="D2h"/>
     <cml:atomArray>
      <cml:atom id="a1" elementType="W" x3="0.0" y3="0.0" z3="0.0"/>
     </cml:atomArray>
     <cml:bondArray>
     </cml:bondArray>
    </cml:molecule><!--

 ATOMIC COORDINATES

 NR  ATOM    CHARGE       X              Y              Z

   1  W      14.00    0.000000000    0.000000000    0.000000000


          W   CORE POTENTIAL

          g POTENTIAL

 POWERS             1              3              2              2
 EXPONENTIALS   10.18896       9.478240       10.14688       5.491651
 COEFFICIENTS   14.00000       142.6454      -100.0787     -0.9415780

          s - g POTENTIAL

 POWERS             2              2
 EXPONENTIALS   11.27396       8.410924
 COEFFICIENTS   420.4798       39.58494

          p - g POTENTIAL

 POWERS             2              2              4
 EXPONENTIALS   8.517824       1.608091       10.07349
 COEFFICIENTS   320.8772     -0.4728210      0.1129290

          d - g POTENTIAL

 POWERS             2              2              4
 EXPONENTIALS   6.059286       1.104853       6.262477
 COEFFICIENTS   158.0780     -0.2832990     -0.4594900

          f - g POTENTIAL

 POWERS             2              2
 EXPONENTIALS   2.075342       1.845947
 COEFFICIENTS   7.745405       6.916005


 BASIS DATA

   Nr Sym  Nuc  Type         Exponents   Contraction coefficients

    1.1 Ag    1  1s          74.376481    -0.001943    0.000543   -0.000723    0.001189   -0.003448   -0.007198
                                           0.000000
    2.1 Ag                   39.115990     0.017833   -0.005268    0.007492   -0.012299    0.012403    0.028788
                                           0.000000
    3.1 Ag                   20.571835    -0.117540    0.036666   -0.054596    0.090706    0.012715   -0.004903
                                           0.000000
    4.1 Ag                   10.819115     0.471463   -0.153622    0.233521   -0.397491   -0.193600   -0.284520
                                           0.000000
    5.1 Ag                    5.689976    -0.655046    0.225025   -0.341100    0.605795    0.057617    0.103448
                                           0.000000
    6.1 Ag                    2.992465    -0.399173    0.140074   -0.249111    0.501906    1.980190    4.211131
                                           0.000000
    7.1 Ag                    1.573794     0.440734   -0.169850    0.263863   -0.857207   -3.521248  -12.780355
                                           0.000000
                              0.827688     0.743098   -0.392735    0.951309   -2.459031   -1.542366   16.345474
                                           0.000000
                              0.435297     0.261234   -0.230076    0.314455    3.142185    9.303153   -9.463902
                                           0.000000
                              0.228931     0.028154    0.050209   -1.462869    1.378958   -9.669727   -2.778531
                                           0.000000
                              0.120399    -0.001891    0.441577   -0.753064   -2.606927    2.092967   10.902513
                                           0.000000
                              0.063320     0.001524    0.452557    0.479974   -0.912496    3.747935   -9.851572
                                           0.000000
                              0.033301    -0.000367    0.285977    0.913763    1.669934   -2.554118    3.605315
                                           1.000000
    8.1 Ag    1  1s           4.793988     1.000000
    9.1 Ag    1  1s           2.790274     1.000000
   10.1 Ag    1  3d0         61.907933    -0.000024
                             32.585172     0.000233
                             17.151169    -0.002245
                              9.027499     0.020877
                              4.751614    -0.090172
                              2.501007     0.023170
                              1.316402     0.205899
                              0.692887     0.321552
                              0.364700     0.323472
                              0.191960     0.230789
                              0.101038     0.111668
                              0.053181     0.026522
                              0.027992     0.001600
   11.1 Ag    1  3d2+        61.907933    -0.000024
                             32.585172     0.000233
                             17.151169    -0.002245
                              9.027499     0.020877
                              4.751614    -0.090172
                              2.501007     0.023170
                              1.316402     0.205899
                              0.692887     0.321552
                              0.364700     0.323472
                              0.191960     0.230789
                              0.101038     0.111668
                              0.053181     0.026522
                              0.027992     0.001600
   12.1 Ag    1  3d0         61.907933     0.000005
                             32.585172    -0.000160
                             17.151169     0.002296
                              9.027499    -0.024432
                              4.751614     0.112596
                              2.501007    -0.039514
                              1.316402    -0.295539
                              0.692887    -0.461445
                              0.364700    -0.080208
                              0.191960     0.499620
                              0.101038     0.418172
                              0.053181     0.115203
                              0.027992     0.006691
   13.1 Ag    1  3d2+        61.907933     0.000005
                             32.585172    -0.000160
                             17.151169     0.002296
                              9.027499    -0.024432
                              4.751614     0.112596
                              2.501007    -0.039514
                              1.316402    -0.295539
                              0.692887    -0.461445
                              0.364700    -0.080208
                              0.191960     0.499620
                              0.101038     0.418172
                              0.053181     0.115203
                              0.027992     0.006691
   14.1 Ag    1  3d0         61.907933    -0.000179
                             32.585172     0.000632
                             17.151169     0.000545
                              9.027499    -0.026852
                              4.751614     0.145145
                              2.501007    -0.035419
                              1.316402    -0.610909
                              0.692887    -0.499162
                              0.364700     1.209396
                              0.191960     0.263814
                              0.101038    -0.665665
                              0.053181    -0.302443
                              0.027992    -0.034465
   15.1 Ag    1  3d2+        61.907933    -0.000179
                             32.585172     0.000632
                             17.151169     0.000545
                              9.027499    -0.026852
                              4.751614     0.145145
                              2.501007    -0.035419
                              1.316402    -0.610909
                              0.692887    -0.499162
                              0.364700     1.209396
                              0.191960     0.263814
                              0.101038    -0.665665
                              0.053181    -0.302443
                              0.027992    -0.034465
   16.1 Ag    1  3d0         61.907933    -0.001192
                             32.585172     0.005075
                             17.151169    -0.011115
                              9.027499    -0.011167
                              4.751614     0.167220
                              2.501007     0.015095
                              1.316402    -1.515591
                              0.692887     1.242898
                              0.364700     1.191021
                              0.191960    -2.283323
                              0.101038     0.787104
                              0.053181     0.389678
                              0.027992     0.120442
   17.1 Ag    1  3d2+        61.907933    -0.001192
                             32.585172     0.005075
                             17.151169    -0.011115
                              9.027499    -0.011167
                              4.751614     0.167220
                              2.501007     0.015095
                              1.316402    -1.515591
                              0.692887     1.242898
                              0.364700     1.191021
                              0.191960    -2.283323
                              0.101038     0.787104
                              0.053181     0.389678
                              0.027992     0.120442
   18.1 Ag    1  3d0         61.907933     0.000666
                             32.585172    -0.003231
                             17.151169     0.013751
                              9.027499    -0.088681
                              4.751614     0.432719
                              2.501007    -0.496755
                              1.316402    -1.869884
                              0.692887     4.519622
                              0.364700    -4.549621
                              0.191960     1.997248
                              0.101038     0.590398
                              0.053181    -0.875841
                              0.027992    -0.121609
   19.1 Ag    1  3d2+        61.907933     0.000666
                             32.585172    -0.003231
                             17.151169     0.013751
                              9.027499    -0.088681
                              4.751614     0.432719
                              2.501007    -0.496755
                              1.316402    -1.869884
                              0.692887     4.519622
                              0.364700    -4.549621
                              0.191960     1.997248
                              0.101038     0.590398
                              0.053181    -0.875841
                              0.027992    -0.121609
   20.1 Ag    1  3d0         61.907933     0.000000
                             32.585172     0.000000
                             17.151169     0.000000
                              9.027499     0.000000
                              4.751614     0.000000
                              2.501007     0.000000
                              1.316402     0.000000
                              0.692887     0.000000
                              0.364700     0.000000
                              0.191960     0.000000
                              0.101038     0.000000
                              0.053181     0.000000
                              0.027992     1.000000
   21.1 Ag    1  3d2+        61.907933     0.000000
                             32.585172     0.000000
                             17.151169     0.000000
                              9.027499     0.000000
                              4.751614     0.000000
                              2.501007     0.000000
                              1.316402     0.000000
                              0.692887     0.000000
                              0.364700     0.000000
                              0.191960     0.000000
                              0.101038     0.000000
                              0.053181     0.000000
                              0.027992     1.000000
   22.1 Ag    1  3d0          3.027025     1.000000
   23.1 Ag    1  3d2+         3.027025     1.000000
   24.1 Ag    1  3d0          3.072530     1.000000
   25.1 Ag    1  3d2+         3.072530     1.000000
   26.1 Ag    1  5g0          2.105388     1.000000
   27.1 Ag    1  5g4+         2.105388     1.000000
   28.1 Ag    1  5g2+         2.105388     1.000000
   29.1 Ag    1  5g0          0.925785     1.000000
   30.1 Ag    1  5g4+         0.925785     1.000000
   31.1 Ag    1  5g2+         0.925785     1.000000
   32.1 Ag    1  5g0          0.407088     1.000000
   33.1 Ag    1  5g4+         0.407088     1.000000
   34.1 Ag    1  5g2+         0.407088     1.000000
   35.1 Ag    1  5g0          1.587108     1.000000
   36.1 Ag    1  5g4+         1.587108     1.000000
   37.1 Ag    1  5g2+         1.587108     1.000000
   38.1 Ag    1  7i6+         1.996941     1.000000
   39.1 Ag    1  7i4+         1.996941     1.000000
   40.1 Ag    1  7i2+         1.996941     1.000000
   41.1 Ag    1  7i0          1.996941     1.000000
   42.1 Ag    1  7i6+         1.867454     1.000000
   43.1 Ag    1  7i4+         1.867454     1.000000
   44.1 Ag    1  7i2+         1.867454     1.000000
   45.1 Ag    1  7i0          1.867454     1.000000
    1.2 B3u   1  2px         70.819882    -0.000490    0.000163    0.000303   -0.000287   -0.003145   -0.009862
                                           0.000000
    2.2 B3u                  37.221301     0.003813   -0.001343   -0.002446   -0.000323    0.012985    0.049919
                                           0.000000
    3.2 B3u                  19.562660    -0.025616    0.009623    0.017437    0.019041   -0.015558   -0.176523
                                           0.000000
    4.2 B3u                  10.281684     0.138740   -0.054556   -0.100369   -0.154508   -0.104533    0.617598
                                           0.000000
    5.2 B3u                   5.403817    -0.324560    0.133038    0.254215    0.432420    0.377080   -1.643567
                                           0.000000
    6.2 B3u                   2.840122    -0.052031    0.016039    0.008313    0.127307    0.719006    1.655354
                                           0.000000
    7.2 B3u                   1.492703     0.389641   -0.166103   -0.306300   -1.400487   -4.461602    2.387718
                                           0.000000
                              0.784530     0.505922   -0.285080   -0.886702   -0.505955    6.226316   -8.580390
                                           0.000000
                              0.412331     0.253444   -0.196871    0.536764    3.530620   -3.033959   12.973874
                                           0.000000
                              0.216712     0.053377    0.313765    1.436864   -2.620064   -2.069095  -13.123983
                                           0.000000
                              0.113899     0.005287    0.600814   -0.560326   -0.404750    4.178160    8.988283
                                           0.000000
                              0.059863     0.001309    0.278010   -0.664182    0.899083   -2.215449   -3.325943
                                           0.000000
                              0.031462    -0.000050    0.026886   -0.091688    0.172905    0.040468    0.162004
                                           1.000000
    8.2 B3u   1  2px          3.751754     1.000000
    9.2 B3u   1  2px          3.389858     1.000000
   10.2 B3u   1  4f1+         1.777306     1.000000
   11.2 B3u   1  4f3+         1.777306     1.000000
   12.2 B3u   1  4f1+         0.883043     1.000000
   13.2 B3u   1  4f3+         0.883043     1.000000
   14.2 B3u   1  4f1+         0.438734     1.000000
   15.2 B3u   1  4f3+         0.438734     1.000000
   16.2 B3u   1  4f1+         0.217982     1.000000
   17.2 B3u   1  4f3+         0.217982     1.000000
   18.2 B3u   1  4f1+         1.159405     1.000000
   19.2 B3u   1  4f3+         1.159405     1.000000
   20.2 B3u   1  6h1+         2.166534     1.000000
   21.2 B3u   1  6h3+         2.166534     1.000000
   22.2 B3u   1  6h5+         2.166534     1.000000
   23.2 B3u   1  6h1+         0.882170     1.000000
   24.2 B3u   1  6h3+         0.882170     1.000000
   25.2 B3u   1  6h5+         0.882170     1.000000
   26.2 B3u   1  6h1+         1.773183     1.000000
   27.2 B3u   1  6h3+         1.773183     1.000000
   28.2 B3u   1  6h5+         1.773183     1.000000
    1.3 B2u   1  2py         70.819882    -0.000490    0.000163    0.000303   -0.000287   -0.003145   -0.009862
                                           0.000000
    2.3 B2u                  37.221301     0.003813   -0.001343   -0.002446   -0.000323    0.012985    0.049919
                                           0.000000
    3.3 B2u                  19.562660    -0.025616    0.009623    0.017437    0.019041   -0.015558   -0.176523
                                           0.000000
    4.3 B2u                  10.281684     0.138740   -0.054556   -0.100369   -0.154508   -0.104533    0.617598
                                           0.000000
    5.3 B2u                   5.403817    -0.324560    0.133038    0.254215    0.432420    0.377080   -1.643567
                                           0.000000
    6.3 B2u                   2.840122    -0.052031    0.016039    0.008313    0.127307    0.719006    1.655354
                                           0.000000
    7.3 B2u                   1.492703     0.389641   -0.166103   -0.306300   -1.400487   -4.461602    2.387718
                                           0.000000
                              0.784530     0.505922   -0.285080   -0.886702   -0.505955    6.226316   -8.580390
                                           0.000000
                              0.412331     0.253444   -0.196871    0.536764    3.530620   -3.033959   12.973874
                                           0.000000
                              0.216712     0.053377    0.313765    1.436864   -2.620064   -2.069095  -13.123983
                                           0.000000
                              0.113899     0.005287    0.600814   -0.560326   -0.404750    4.178160    8.988283
                                           0.000000
                              0.059863     0.001309    0.278010   -0.664182    0.899083   -2.215449   -3.325943
                                           0.000000
                              0.031462    -0.000050    0.026886   -0.091688    0.172905    0.040468    0.162004
                                           1.000000
    8.3 B2u   1  2py          3.751754     1.000000
    9.3 B2u   1  2py          3.389858     1.000000
   10.3 B2u   1  4f1-         1.777306     1.000000
   11.3 B2u   1  4f3-         1.777306     1.000000
   12.3 B2u   1  4f1-         0.883043     1.000000
   13.3 B2u   1  4f3-         0.883043     1.000000
   14.3 B2u   1  4f1-         0.438734     1.000000
   15.3 B2u   1  4f3-         0.438734     1.000000
   16.3 B2u   1  4f1-         0.217982     1.000000
   17.3 B2u   1  4f3-         0.217982     1.000000
   18.3 B2u   1  4f1-         1.159405     1.000000
   19.3 B2u   1  4f3-         1.159405     1.000000
   20.3 B2u   1  6h1-         2.166534     1.000000
   21.3 B2u   1  6h3-         2.166534     1.000000
   22.3 B2u   1  6h5-         2.166534     1.000000
   23.3 B2u   1  6h1-         0.882170     1.000000
   24.3 B2u   1  6h3-         0.882170     1.000000
   25.3 B2u   1  6h5-         0.882170     1.000000
   26.3 B2u   1  6h1-         1.773183     1.000000
   27.3 B2u   1  6h3-         1.773183     1.000000
   28.3 B2u   1  6h5-         1.773183     1.000000
    1.4 B1g   1  3d2-        61.907933    -0.000024    0.000005   -0.000179   -0.001192    0.000666    0.000000
    2.4 B1g                  32.585172     0.000233   -0.000160    0.000632    0.005075   -0.003231    0.000000
    3.4 B1g                  17.151169    -0.002245    0.002296    0.000545   -0.011115    0.013751    0.000000
    4.4 B1g                   9.027499     0.020877   -0.024432   -0.026852   -0.011167   -0.088681    0.000000
    5.4 B1g                   4.751614    -0.090172    0.112596    0.145145    0.167220    0.432719    0.000000
    6.4 B1g                   2.501007     0.023170   -0.039514   -0.035419    0.015095   -0.496755    0.000000
                              1.316402     0.205899   -0.295539   -0.610909   -1.515591   -1.869884    0.000000
                              0.692887     0.321552   -0.461445   -0.499162    1.242898    4.519622    0.000000
                              0.364700     0.323472   -0.080208    1.209396    1.191021   -4.549621    0.000000
                              0.191960     0.230789    0.499620    0.263814   -2.283323    1.997248    0.000000
                              0.101038     0.111668    0.418172   -0.665665    0.787104    0.590398    0.000000
                              0.053181     0.026522    0.115203   -0.302443    0.389678   -0.875841    0.000000
                              0.027992     0.001600    0.006691   -0.034465    0.120442   -0.121609    1.000000
    7.4 B1g   1  3d2-         3.027025     1.000000
    8.4 B1g   1  3d2-         3.072530     1.000000
    9.4 B1g   1  5g2-         2.105388     1.000000
   10.4 B1g   1  5g4-         2.105388     1.000000
   11.4 B1g   1  5g2-         0.925785     1.000000
   12.4 B1g   1  5g4-         0.925785     1.000000
   13.4 B1g   1  5g2-         0.407088     1.000000
   14.4 B1g   1  5g4-         0.407088     1.000000
   15.4 B1g   1  5g2-         1.587108     1.000000
   16.4 B1g   1  5g4-         1.587108     1.000000
   17.4 B1g   1  7i2-         1.996941     1.000000
   18.4 B1g   1  7i6-         1.996941     1.000000
   19.4 B1g   1  7i4-         1.996941     1.000000
   20.4 B1g   1  7i2-         1.867454     1.000000
   21.4 B1g   1  7i6-         1.867454     1.000000
   22.4 B1g   1  7i4-         1.867454     1.000000
    1.5 B1u   1  2pz         70.819882    -0.000490    0.000163    0.000303   -0.000287   -0.003145   -0.009862
                                           0.000000
    2.5 B1u                  37.221301     0.003813   -0.001343   -0.002446   -0.000323    0.012985    0.049919
                                           0.000000
    3.5 B1u                  19.562660    -0.025616    0.009623    0.017437    0.019041   -0.015558   -0.176523
                                           0.000000
    4.5 B1u                  10.281684     0.138740   -0.054556   -0.100369   -0.154508   -0.104533    0.617598
                                           0.000000
    5.5 B1u                   5.403817    -0.324560    0.133038    0.254215    0.432420    0.377080   -1.643567
                                           0.000000
    6.5 B1u                   2.840122    -0.052031    0.016039    0.008313    0.127307    0.719006    1.655354
                                           0.000000
    7.5 B1u                   1.492703     0.389641   -0.166103   -0.306300   -1.400487   -4.461602    2.387718
                                           0.000000
                              0.784530     0.505922   -0.285080   -0.886702   -0.505955    6.226316   -8.580390
                                           0.000000
                              0.412331     0.253444   -0.196871    0.536764    3.530620   -3.033959   12.973874
                                           0.000000
                              0.216712     0.053377    0.313765    1.436864   -2.620064   -2.069095  -13.123983
                                           0.000000
                              0.113899     0.005287    0.600814   -0.560326   -0.404750    4.178160    8.988283
                                           0.000000
                              0.059863     0.001309    0.278010   -0.664182    0.899083   -2.215449   -3.325943
                                           0.000000
                              0.031462    -0.000050    0.026886   -0.091688    0.172905    0.040468    0.162004
                                           1.000000
    8.5 B1u   1  2pz          3.751754     1.000000
    9.5 B1u   1  2pz          3.389858     1.000000
   10.5 B1u   1  4f0          1.777306     1.000000
   11.5 B1u   1  4f2+         1.777306     1.000000
   12.5 B1u   1  4f0          0.883043     1.000000
   13.5 B1u   1  4f2+         0.883043     1.000000
   14.5 B1u   1  4f0          0.438734     1.000000
   15.5 B1u   1  4f2+         0.438734     1.000000
   16.5 B1u   1  4f0          0.217982     1.000000
   17.5 B1u   1  4f2+         0.217982     1.000000
   18.5 B1u   1  4f0          1.159405     1.000000
   19.5 B1u   1  4f2+         1.159405     1.000000
   20.5 B1u   1  6h2+         2.166534     1.000000
   21.5 B1u   1  6h4+         2.166534     1.000000
   22.5 B1u   1  6h0          2.166534     1.000000
   23.5 B1u   1  6h2+         0.882170     1.000000
   24.5 B1u   1  6h4+         0.882170     1.000000
   25.5 B1u   1  6h0          0.882170     1.000000
   26.5 B1u   1  6h2+         1.773183     1.000000
   27.5 B1u   1  6h4+         1.773183     1.000000
   28.5 B1u   1  6h0          1.773183     1.000000
    1.6 B2g   1  3d1+        61.907933    -0.000024    0.000005   -0.000179   -0.001192    0.000666    0.000000
    2.6 B2g                  32.585172     0.000233   -0.000160    0.000632    0.005075   -0.003231    0.000000
    3.6 B2g                  17.151169    -0.002245    0.002296    0.000545   -0.011115    0.013751    0.000000
    4.6 B2g                   9.027499     0.020877   -0.024432   -0.026852   -0.011167   -0.088681    0.000000
    5.6 B2g                   4.751614    -0.090172    0.112596    0.145145    0.167220    0.432719    0.000000
    6.6 B2g                   2.501007     0.023170   -0.039514   -0.035419    0.015095   -0.496755    0.000000
                              1.316402     0.205899   -0.295539   -0.610909   -1.515591   -1.869884    0.000000
                              0.692887     0.321552   -0.461445   -0.499162    1.242898    4.519622    0.000000
                              0.364700     0.323472   -0.080208    1.209396    1.191021   -4.549621    0.000000
                              0.191960     0.230789    0.499620    0.263814   -2.283323    1.997248    0.000000
                              0.101038     0.111668    0.418172   -0.665665    0.787104    0.590398    0.000000
                              0.053181     0.026522    0.115203   -0.302443    0.389678   -0.875841    0.000000
                              0.027992     0.001600    0.006691   -0.034465    0.120442   -0.121609    1.000000
    7.6 B2g   1  3d1+         3.027025     1.000000
    8.6 B2g   1  3d1+         3.072530     1.000000
    9.6 B2g   1  5g1+         2.105388     1.000000
   10.6 B2g   1  5g3+         2.105388     1.000000
   11.6 B2g   1  5g1+         0.925785     1.000000
   12.6 B2g   1  5g3+         0.925785     1.000000
   13.6 B2g   1  5g1+         0.407088     1.000000
   14.6 B2g   1  5g3+         0.407088     1.000000
   15.6 B2g   1  5g1+         1.587108     1.000000
   16.6 B2g   1  5g3+         1.587108     1.000000
   17.6 B2g   1  7i5+         1.996941     1.000000
   18.6 B2g   1  7i3+         1.996941     1.000000
   19.6 B2g   1  7i1+         1.996941     1.000000
   20.6 B2g   1  7i5+         1.867454     1.000000
   21.6 B2g   1  7i3+         1.867454     1.000000
   22.6 B2g   1  7i1+         1.867454     1.000000
    1.7 B3g   1  3d1-        61.907933    -0.000024    0.000005   -0.000179   -0.001192    0.000666    0.000000
    2.7 B3g                  32.585172     0.000233   -0.000160    0.000632    0.005075   -0.003231    0.000000
    3.7 B3g                  17.151169    -0.002245    0.002296    0.000545   -0.011115    0.013751    0.000000
    4.7 B3g                   9.027499     0.020877   -0.024432   -0.026852   -0.011167   -0.088681    0.000000
    5.7 B3g                   4.751614    -0.090172    0.112596    0.145145    0.167220    0.432719    0.000000
    6.7 B3g                   2.501007     0.023170   -0.039514   -0.035419    0.015095   -0.496755    0.000000
                              1.316402     0.205899   -0.295539   -0.610909   -1.515591   -1.869884    0.000000
                              0.692887     0.321552   -0.461445   -0.499162    1.242898    4.519622    0.000000
                              0.364700     0.323472   -0.080208    1.209396    1.191021   -4.549621    0.000000
                              0.191960     0.230789    0.499620    0.263814   -2.283323    1.997248    0.000000
                              0.101038     0.111668    0.418172   -0.665665    0.787104    0.590398    0.000000
                              0.053181     0.026522    0.115203   -0.302443    0.389678   -0.875841    0.000000
                              0.027992     0.001600    0.006691   -0.034465    0.120442   -0.121609    1.000000
    7.7 B3g   1  3d1-         3.027025     1.000000
    8.7 B3g   1  3d1-         3.072530     1.000000
    9.7 B3g   1  5g1-         2.105388     1.000000
   10.7 B3g   1  5g3-         2.105388     1.000000
   11.7 B3g   1  5g1-         0.925785     1.000000
   12.7 B3g   1  5g3-         0.925785     1.000000
   13.7 B3g   1  5g1-         0.407088     1.000000
   14.7 B3g   1  5g3-         0.407088     1.000000
   15.7 B3g   1  5g1-         1.587108     1.000000
   16.7 B3g   1  5g3-         1.587108     1.000000
   17.7 B3g   1  7i5-         1.996941     1.000000
   18.7 B3g   1  7i3-         1.996941     1.000000
   19.7 B3g   1  7i1-         1.996941     1.000000
   20.7 B3g   1  7i5-         1.867454     1.000000
   21.7 B3g   1  7i3-         1.867454     1.000000
   22.7 B3g   1  7i1-         1.867454     1.000000
    1.8 Au    1  4f2-         1.777306     1.000000
    2.8 Au    1  4f2-         0.883043     1.000000
    3.8 Au    1  4f2-         0.438734     1.000000
    4.8 Au    1  4f2-         0.217982     1.000000
    5.8 Au    1  4f2-         1.159405     1.000000
    6.8 Au    1  6h4-         2.166534     1.000000
    7.8 Au    1  6h2-         2.166534     1.000000
    8.8 Au    1  6h4-         0.882170     1.000000
    9.8 Au    1  6h2-         0.882170     1.000000
   10.8 Au    1  6h4-         1.773183     1.000000
   11.8 Au    1  6h2-         1.773183     1.000000

 NUCLEAR CHARGE:                   14
 NUMBER OF PRIMITIVE AOS:         379
 NUMBER OF SYMMETRY AOS:          265
 NUMBER OF CONTRACTIONS:          206   (  45Ag  +  28B3u +  28B2u +  22B1g +  28B1u +  22B2g +  22B3g +  11Au  )
 NUMBER OF CORE ORBITALS:           4   (   1Ag  +   1B3u +   1B2u +   0B1g +   1B1u +   0B2g +   0B3g +   0Au  )
 NUMBER OF VALENCE ORBITALS:        6   (   3Ag  +   0B3u +   0B2u +   1B1g +   0B1u +   1B2g +   1B3g +   0Au  )


 NUCLEAR REPULSION ENERGY    0.00000000

 EXTRA SYMMETRY OF AOS IN SYMMETRY 1:   1 1 1 1 1 1 1 1 1 2   3 2 3 2 3 2 3 2 3 2   3 2 3 2 3 4 5 6 4 5   6 4 5 6 4 5 6 7 8 9
                                       10 7 8 910
 EXTRA SYMMETRY OF AOS IN SYMMETRY 2:   1 1 1 1 1 1 1 1 1 2   3 2 3 2 3 2 3 2 3 4   5 6 4 5 6 4 5 6
 EXTRA SYMMETRY OF AOS IN SYMMETRY 3:   1 1 1 1 1 1 1 1 1 2   3 2 3 2 3 2 3 2 3 4   5 6 4 5 6 4 5 6
 EXTRA SYMMETRY OF AOS IN SYMMETRY 4:   1 1 1 1 1 1 1 1 2 3   2 3 2 3 2 3 4 5 6 4   5 6
 EXTRA SYMMETRY OF AOS IN SYMMETRY 5:   1 1 1 1 1 1 1 1 1 2   3 2 3 2 3 2 3 2 3 4   5 6 4 5 6 4 5 6
 EXTRA SYMMETRY OF AOS IN SYMMETRY 6:   1 1 1 1 1 1 1 1 2 3   2 3 2 3 2 3 4 5 6 4   5 6
 EXTRA SYMMETRY OF AOS IN SYMMETRY 7:   1 1 1 1 1 1 1 1 2 3   2 3 2 3 2 3 4 5 6 4   5 6
 EXTRA SYMMETRY OF AOS IN SYMMETRY 8:   1 1 1 1 1 2 3 2 3 2   3

 Eigenvalues of metric

         1 0.743E-05 0.850E-05 0.850E-05 0.420E-02 0.420E-02 0.420E-02 0.420E-02 0.836E-02
         2 0.234E-03 0.152E-02 0.152E-02 0.141E-01 0.141E-01 0.141E-01 0.261E-01 0.535E-01
         3 0.234E-03 0.152E-02 0.152E-02 0.141E-01 0.141E-01 0.141E-01 0.261E-01 0.535E-01
         4 0.850E-05 0.420E-02 0.420E-02 0.420E-02 0.971E-02 0.971E-02 0.122E+00 0.189E+00
         5 0.234E-03 0.152E-02 0.152E-02 0.141E-01 0.141E-01 0.141E-01 0.261E-01 0.535E-01
         6 0.850E-05 0.420E-02 0.420E-02 0.420E-02 0.971E-02 0.971E-02 0.122E+00 0.189E+00
         7 0.850E-05 0.420E-02 0.420E-02 0.420E-02 0.971E-02 0.971E-02 0.122E+00 0.189E+00
         8 0.152E-02 0.141E-01 0.141E-01 0.535E-01 0.273E+00 0.519E+00 0.519E+00 0.125E+01


 Contracted 2-electron integrals neglected if value below      1.0D-12
 AO integral compression algorithm  1   Integral accuracy      1.0D-12

     177.471 MB (compressed) written to integral file ( 49.3%)

     Node minimum: 4.981 MB, node maximum: 17.302 MB


 NUMBER OF SORTED TWO-ELECTRON INTEGRALS:    1931231.     BUFFER LENGTH:  32768
 NUMBER OF SEGMENTS:   1  SEGMENT LENGTH:    1931231      RECORD LENGTH: 524288

 Memory used in sort:       2.49 MW

 SORT1 READ    44867992. AND WROTE     1249906. INTEGRALS IN      4 RECORDS. CPU TIME:     1.29 SEC, REAL TIME:     1.34 SEC
 SORT2 READ    18923638. AND WROTE    29098917. INTEGRALS IN    720 RECORDS. CPU TIME:     0.15 SEC, REAL TIME:     0.24 SEC

 Node minimum:     1910363.  Node maximum:     1977587. integrals

 OPERATOR DM      FOR CENTER  0  COORDINATES:    0.000000    0.000000    0.000000


 **********************************************************************************************************************************
 DATASETS  * FILE   NREC   LENGTH (MB)   RECORD NAMES
              1      19       20.22       500      610      700      900      950      970     1000      129      960     1100
                                          VAR    BASINP    GEOM    SYMINP    ZMAT    AOBASIS   BASIS     P2S    ABASIS      S
                                         1400     1410     1420     1200     1210     1080     1600     1650     1700
                                           T        V       ECP      H0       H01     AOSYM     SMH    MOLCAS    OPER

 PROGRAMS   *        TOTAL       INT
 CPU TIMES  *         3.74      3.46
 REAL TIME  *         4.66 SEC
 DISK USED  *       396.24 MB
 GA USED    *         0.00 MB       (max)       0.00 MB       (current)
 **********************************************************************************************************************************


 PROGRAM * RHF-SCF (OPEN SHELL)       Authors: W. Meyer, H.-J. Werner


 NUMBER OF ELECTRONS:       9+    5-    SPACE SYMMETRY=1    SPIN SYMMETRY: Quintet
 CONVERGENCE THRESHOLDS:    1.00E-05 (Density)    1.00E-07 (Energy)
 MAX. NUMBER OF ITERATIONS:       60
 INTERPOLATION TYPE:            DIIS
 INTERPOLATION STEPS:              2 (START)      1 (STEP)
 LEVEL SHIFTS:                 -0.60 (CLOSED) -0.30 (OPEN)

 Number of closed-shell orbitals:    5 (   2   1   1   0   1   0   0   0 )
 Number of open-shell orbitals:      4 (   1   0   0   1   0   1   1   0 )



 Extra symmetries of mos in symmetry 1:   1   1   3   2

   Atom=W  basis=cc-pVTZ-PP        lmin=0  lmax=2

 Orbital guess generated from atomic densities. Full valence occupancy:    4   1   1   1   1   1   1   0


 Molecular orbital dump at record        4202.2

 ITERATION    DDIFF          GRAD             ENERGY        2-EL.EN.            DIPOLE MOMENTS         DIIS   ORB.
    1      0.000D+00      0.000D+00       -66.64964822     89.821325    0.00000    0.00000    0.00000    0    start
    2      0.000D+00      0.694D-02       -66.68829590     92.153818    0.00000    0.00000    0.00000    1    diag,B
    3      0.309D-02      0.299D-02       -66.69308891     92.350390    0.00000    0.00000    0.00000    2    diag,B
    4      0.116D-02      0.147D-02       -66.69566318     92.542726    0.00000    0.00000    0.00000    3    diag,B
    5      0.149D-02      0.510D-03       -66.69611657     92.563320    0.00000    0.00000    0.00000    4    diag,B
    6      0.156D-02      0.279D-03       -66.69628958     92.529372    0.00000    0.00000    0.00000    5    diag,B
    7      0.191D-02      0.160D-03       -66.69636214     92.511653    0.00000    0.00000    0.00000    6    fixocc
    8      0.140D-02      0.102D-03       -66.69640091     92.506319    0.00000    0.00000    0.00000    7    diag,B
    9      0.346D-02      0.586D-04       -66.69641342     92.511944    0.00000    0.00000    0.00000    8    diag,B
   10      0.649D-03      0.323D-04       -66.69641744     92.519075    0.00000    0.00000    0.00000    9    orth
   11      0.140D-02      0.560D-05       -66.69641751     92.519507    0.00000    0.00000    0.00000    9    diag,B
   12      0.326D-03      0.148D-05       -66.69641751     92.519467    0.00000    0.00000    0.00000    9    diag,B
   13      0.354D-04      0.462D-06       -66.69641752     92.519464    0.00000    0.00000    0.00000    9    diag,B
   14      0.489D-05      0.171D-06       -66.69641752     92.519463    0.00000    0.00000    0.00000    0    orth

 Final alpha occupancy:   3   1   1   1   1   1   1   0
 Final beta  occupancy:   2   1   1   0   1   0   0   0

 !RHF STATE 1.1 Energy                -66.696417515264
    --><property name="Energy" method="RHF" principal="true" stateSymmetry="1" stateNumber="1"
      value="-66.6964175152635"/><!--
 Nuclear energy                         0.00000000
 One-electron energy                 -112.95614921
 Two-electron energy                   46.25973170
 Virial quotient                       -2.91904307
 !RHF STATE 1.1 Dipole moment           0.00000000     0.00000000     0.00000000
 Dipole moment /Debye                   0.00000000     0.00000000     0.00000000
    --><property name="Dipole moment" method="RHF" principal="true" stateSymmetry="1"
      stateNumber="1" value="0.0 0.0 0.0"/><!--

 ELECTRON ORBITALS
 =================


   Orb  Occ    Energy  Couls-En    Coefficients

                                   1 1s      1 1s      1 1s      1 1s      1 1s      1 1s      1 1s      1 1s      1 1s      1 3d0
                                   1 3d2+    1 3d0     1 3d2+    1 3d0     1 3d2+    1 3d0     1 3d2+    1 3d0     1 3d2+    1 3d0
                                   1 3d2+    1 3d0     1 3d2+    1 3d0     1 3d2+    1 5g0     1 5g4+    1 5g2+    1 5g0     1 5g4+
                                   1 5g2+    1 5g0     1 5g4+    1 5g2+    1 5g0     1 5g4+    1 5g2+    1 7i6+    1 7i4+    1 7i2+
                                   1 7i0     1 7i6+    1 7i4+    1 7i2+    1 7i0

   1.1   2    -3.4286  -14.5232  0.998376 -0.005451 -0.002047 -0.000877  0.000292 -0.000107  0.006207  0.000265 -0.000617  0.002587
                                 0.000002 -0.001988 -0.000001 -0.001189 -0.000000 -0.000452 -0.000000 -0.000117 -0.000000 -0.000040
                                -0.000000  0.004349  0.000001 -0.004271 -0.000001 -0.000020 -0.000000  0.000000 -0.000704 -0.000000
                                 0.000000 -0.000679 -0.000000  0.000000  0.000175  0.000000 -0.000000 -0.000000  0.000000 -0.000000
                                 0.000003  0.000000 -0.000000  0.000000 -0.000001

   2.1   2    -0.2623   -4.6856  0.001307  1.002336  0.001846  0.000733 -0.000240  0.000079 -0.004930 -0.000212  0.000491  0.061623
                                 0.000037  0.013858  0.000005 -0.001392 -0.000001  0.000997  0.000000 -0.000289 -0.000000  0.000941
                                 0.000000 -0.002610 -0.000000  0.002567  0.000000 -0.000186 -0.000000  0.000000 -0.000437  0.000000
                                 0.000000  0.000208  0.000000  0.000000 -0.000099  0.000000  0.000000 -0.000000  0.000000 -0.000000
                                -0.000183  0.000000 -0.000000  0.000000  0.000217

   3.1   +    -0.3613   -6.8035 -0.000003 -0.000046  0.000007  0.000001 -0.000000 -0.000000  0.000001  0.000000 -0.000000  0.000124
                                 0.999991 -0.000000 -0.000311  0.000000  0.000041 -0.000000 -0.000016  0.000000 -0.000001 -0.000000
                                -0.000018  0.000000 -0.001290 -0.000000  0.001262 -0.000000  0.000000  0.000316 -0.000000  0.000000
                                 0.002334 -0.000001 -0.000000  0.005435 -0.000000 -0.000000  0.000950  0.000000  0.000000 -0.000038
                                 0.000000 -0.000000 -0.000000  0.000053 -0.000000

   4.1   0     0.0388   -5.0946  0.035219  0.064912  0.036509  0.012835 -0.002427  0.001109 -0.141888 -0.005280  0.013045  0.844044
                                -0.000107  0.124247 -0.000015 -0.030555  0.000004  0.006607 -0.000001  0.001634 -0.000000  0.338323
                                -0.000043  0.114697 -0.000014 -0.112400  0.000014 -0.000065 -0.000000  0.000000 -0.000548  0.000000
                                -0.000000 -0.001320  0.000000 -0.000000 -0.000100  0.000000 -0.000000 -0.000000  0.000000  0.000000
                                -0.000003  0.000000 -0.000000 -0.000000  0.000005

   5.1   0     0.0878   -1.6150 -0.000006 -0.000024 -0.000006 -0.000002  0.000000 -0.000000  0.000023  0.000001 -0.000002 -0.000032
                                -0.251114 -0.000026 -0.207396  0.000028  0.222562 -0.000015 -0.115828  0.000009  0.072941  0.000161
                                 1.277431  0.000201  1.598900 -0.000197 -1.565594 -0.000000 -0.000000 -0.000106 -0.000000 -0.000000
                                -0.000377  0.000000  0.000000 -0.000260  0.000000  0.000000  0.000038 -0.000000 -0.000000  0.000021
                                 0.000000  0.000000  0.000000 -0.000027 -0.000000

                                   1 2px     1 2px     1 2px     1 2px     1 2px     1 2px     1 2px     1 2px     1 2px     1 4f1+
                                   1 4f3+    1 4f1+    1 4f3+    1 4f1+    1 4f3+    1 4f1+    1 4f3+    1 4f1+    1 4f3+    1 6h1+
                                   1 6h3+    1 6h5+    1 6h1+    1 6h3+    1 6h5+    1 6h1+    1 6h3+    1 6h5+

   1.2   2    -1.9238  -11.2679  0.999986  0.000042  0.000004 -0.000004  0.000002  0.000001  0.000004  0.000142 -0.000157  0.000746
                                 0.000000  0.002888  0.000000  0.002679  0.000000  0.001014 -0.000000  0.001043  0.000000 -0.000044
                                 0.000000 -0.000000 -0.000000  0.000000  0.000000  0.000378 -0.000000  0.000000

   2.2   0     0.0264   -2.6438 -0.150848 -0.103359  0.199604 -0.126957  0.070315  0.038765  1.240955  0.118010 -0.134424  0.000728
                                 0.000000  0.005431  0.000000 -0.001324 -0.000000  0.009238  0.000000 -0.004210 -0.000000 -0.000066
                                 0.000000 -0.000000 -0.000187  0.000000 -0.000000  0.000076 -0.000000  0.000000

   3.2   0     0.1399   -2.4039  0.297588  2.388872 -1.154652  0.640546 -0.335714 -0.165879 -2.609354 -0.451940  0.506691  0.000924
                                -0.000000  0.006913 -0.000000 -0.001679 -0.000000  0.012248 -0.000000 -0.005336  0.000000 -0.000027
                                 0.000000 -0.000000 -0.000199  0.000000 -0.000000  0.000017 -0.000000  0.000000

                                   1 2py     1 2py     1 2py     1 2py     1 2py     1 2py     1 2py     1 2py     1 2py     1 4f1-
                                   1 4f3-    1 4f1-    1 4f3-    1 4f1-    1 4f3-    1 4f1-    1 4f3-    1 4f1-    1 4f3-    1 6h1-
                                   1 6h3-    1 6h5-    1 6h1-    1 6h3-    1 6h5-    1 6h1-    1 6h3-    1 6h5-

   1.3   2    -1.9238  -11.2679  0.999986  0.000042  0.000005 -0.000004  0.000002  0.000001  0.000004  0.000142 -0.000157  0.000746
                                 0.000000  0.002888  0.000000  0.002678  0.000000  0.001013 -0.000000  0.001043  0.000000 -0.000044
                                 0.000000 -0.000000 -0.000000  0.000000  0.000000  0.000378 -0.000000  0.000000

   2.3   0     0.0264   -2.6438 -0.150847 -0.103352  0.199602 -0.126956  0.070315  0.038765  1.240948  0.118009 -0.134423  0.000728
                                 0.000000  0.005430  0.000000 -0.001324 -0.000000  0.009236  0.000000 -0.004209 -0.000000 -0.000066
                                 0.000000 -0.000000 -0.000187  0.000000 -0.000000  0.000076 -0.000000  0.000000

   3.3   0     0.1399   -2.4039  0.297588  2.388870 -1.154649  0.640545 -0.335713 -0.165878 -2.609355 -0.451939  0.506690  0.000924
                                -0.000000  0.006911 -0.000000 -0.001679 -0.000000  0.012245 -0.000000 -0.005335  0.000000 -0.000027
                                 0.000000 -0.000000 -0.000199  0.000000 -0.000000  0.000017 -0.000000  0.000000

                                   1 3d2-    1 3d2-    1 3d2-    1 3d2-    1 3d2-    1 3d2-    1 3d2-    1 3d2-    1 5g2-    1 5g4-
                                   1 5g2-    1 5g4-    1 5g2-    1 5g4-    1 5g2-    1 5g4-    1 7i2-    1 7i6-    1 7i4-    1 7i2-
                                   1 7i6-    1 7i4-

   1.4   +    -0.3613   -6.8035  0.999991 -0.000311  0.000041 -0.000016 -0.000001 -0.000018 -0.001290  0.001262  0.000316  0.000000
                                 0.002334  0.000000  0.005435 -0.000000  0.000950 -0.000000 -0.000038  0.000000  0.000000  0.000053
                                -0.000000 -0.000000

   2.4   0     0.0878   -1.6150 -0.251114 -0.207396  0.222562 -0.115828  0.072941  1.277431  1.598900 -1.565594 -0.000106 -0.000000
                                -0.000377 -0.000000 -0.000260  0.000000  0.000038  0.000000  0.000021 -0.000000 -0.000000 -0.000027
                                 0.000000  0.000000

   3.4   0     0.3084   -2.3324  0.270581  1.077386 -1.028562  0.518150 -0.293044 -1.117873 -5.841864  5.718704 -0.000390 -0.000000
                                -0.001289 -0.000000 -0.000327  0.000000  0.000239  0.000000  0.000136  0.000000 -0.000000 -0.000165
                                -0.000000  0.000000

                                   1 2pz     1 2pz     1 2pz     1 2pz     1 2pz     1 2pz     1 2pz     1 2pz     1 2pz     1 4f0
                                   1 4f2+    1 4f0     1 4f2+    1 4f0     1 4f2+    1 4f0     1 4f2+    1 4f0     1 4f2+    1 6h2+
                                   1 6h4+    1 6h0     1 6h2+    1 6h4+    1 6h0     1 6h2+    1 6h4+    1 6h0

   1.5   2    -1.9299  -11.2791  1.000111 -0.002216 -0.001660 -0.000218  0.000108 -0.000087 -0.000128  0.001213 -0.001341 -0.000265
                                 0.000000 -0.002439  0.000001 -0.002850  0.000001 -0.002016  0.000000  0.001671  0.000000  0.000000
                                -0.000000 -0.000057  0.000000  0.000000 -0.000019 -0.000000  0.000000  0.000484

   2.5   0     0.0249   -2.6586 -0.147447 -0.085814  0.190890 -0.122801  0.068076  0.037699  1.221923  0.114851 -0.130878 -0.000310
                                 0.000000 -0.002941  0.000001 -0.002226 -0.000000 -0.005402  0.000002  0.001163 -0.000001  0.000000
                                -0.000000 -0.000091  0.000000 -0.000000 -0.000260 -0.000000  0.000000  0.000107

   3.5   0     0.1388   -2.3922  0.299753  2.387052 -1.153307  0.639012 -0.335045 -0.165500 -2.614408 -0.450989  0.505667 -0.000779
                                 0.000000 -0.006249  0.000001 -0.000918 -0.000000 -0.008714  0.000002  0.003467 -0.000001  0.000000
                                -0.000000 -0.000045  0.000000 -0.000000 -0.000279 -0.000000  0.000000  0.000037

                                   1 3d1+    1 3d1+    1 3d1+    1 3d1+    1 3d1+    1 3d1+    1 3d1+    1 3d1+    1 5g1+    1 5g3+
                                   1 5g1+    1 5g3+    1 5g1+    1 5g3+    1 5g1+    1 5g3+    1 7i5+    1 7i3+    1 7i1+    1 7i5+
                                   1 7i3+    1 7i1+

   1.6   +    -0.3885   -6.8693  1.000157 -0.014627  0.004147 -0.000967  0.000468 -0.000580 -0.006518  0.006348  0.000172  0.000000
                                 0.000598  0.000000  0.000274  0.000001  0.000023  0.000000  0.000000  0.000000 -0.000053 -0.000000
                                -0.000000  0.000076

   2.6   0     0.0873   -1.6160 -0.243152 -0.201649  0.219068 -0.114317  0.072129  1.273157  1.584495 -1.551487 -0.000122 -0.000000
                                -0.000275 -0.000000  0.000160 -0.000000  0.000188  0.000000 -0.000000 -0.000000  0.000033 -0.000000
                                 0.000000 -0.000042

   3.6   0     0.3052   -2.3250  0.281680  1.081380 -1.022703  0.513928 -0.290361 -1.118554 -5.779656  5.657823 -0.000439 -0.000000
                                -0.001185 -0.000000  0.000952  0.000000  0.000731  0.000000  0.000000 -0.000000  0.000210 -0.000000
                                 0.000000 -0.000255

                                   1 3d1-    1 3d1-    1 3d1-    1 3d1-    1 3d1-    1 3d1-    1 3d1-    1 3d1-    1 5g1-    1 5g3-
                                   1 5g1-    1 5g3-    1 5g1-    1 5g3-    1 5g1-    1 5g3-    1 7i5-    1 7i3-    1 7i1-    1 7i5-
                                   1 7i3-    1 7i1-

   1.7   +    -0.3885   -6.8693  1.000157 -0.014622  0.004146 -0.000967  0.000468 -0.000580 -0.006515  0.006346  0.000172  0.000000
                                 0.000598  0.000000  0.000273  0.000001  0.000023  0.000000  0.000000  0.000000 -0.000053 -0.000000
                                -0.000000  0.000076

   2.7   0     0.0873   -1.6160 -0.243154 -0.201651  0.219069 -0.114317  0.072129  1.273158  1.584499 -1.551491 -0.000122 -0.000000
                                -0.000275 -0.000000  0.000160 -0.000000  0.000188  0.000000 -0.000000 -0.000000  0.000033 -0.000000
                                 0.000000 -0.000042

   3.7   0     0.3052   -2.3250  0.281677  1.081378 -1.022705  0.513930 -0.290362 -1.118553 -5.779673  5.657840 -0.000439 -0.000000
                                -0.001185 -0.000000  0.000953  0.000000  0.000731  0.000000  0.000000 -0.000000  0.000210 -0.000000
                                 0.000000 -0.000255

                                   1 4f2-    1 4f2-    1 4f2-    1 4f2-    1 4f2-    1 6h4-    1 6h2-    1 6h4-    1 6h2-    1 6h4-
                                   1 6h2-

   1.8   0     0.6403   -2.9091  0.163833  1.021600 -0.711964  1.332326 -0.796782  0.000000  0.000914  0.000000  0.001508 -0.000000
                                -0.001326

   2.8   0     1.5695   -2.2750 -0.350671 -2.205094  2.458363 -1.336911  1.856563  0.000000  0.001578  0.000001  0.003439 -0.000001
                                -0.002182

 HOMO      3.1    -0.361341 =      -9.8326eV
 LUMO      2.5     0.024872 =       0.6768eV
 LUMO-HOMO         0.386213 =      10.5094eV


 **********************************************************************************************************************************
 DATASETS  * FILE   NREC   LENGTH (MB)   RECORD NAMES
              1      19       20.23       500      610      700      900      950      970     1000      129      960     1100
                                          VAR    BASINP    GEOM    SYMINP    ZMAT    AOBASIS   BASIS     P2S    ABASIS      S
                                         1400     1410     1420     1200     1210     1080     1600     1650     1700
                                           T        V       ECP      H0       H01     AOSYM     SMH    MOLCAS    OPER

              2       5        3.22       200      700     1000      520     4202
                                        OPTIONS   GEOM     BASIS   MCVARS     RHF

 PROGRAMS   *        TOTAL       RHF       INT
 CPU TIMES  *         4.03      0.29      3.46
 REAL TIME  *         5.04 SEC
 DISK USED  *       762.55 MB
 SF USED    *         0.02 MB
 GA USED    *         0.00 MB       (max)       0.00 MB       (current)
 **********************************************************************************************************************************
    -->
    <time start="04:36:49" end="04:36:54" cpu="4.03" system="0.63" real="5.04"/>
    <storage units="megabyte" memory="4097.84" sf="0.02" df="366.32" eaf="396.24" ga="0.0"/>
   </jobstep><!--
   --><jobstep command="POP" commandset="POP">
    <!--


 PROGRAM * POP (Mulliken population analysis)


 Density matrix read from record         4202.2  Type=RHF/CHARGE (state 1.1)

 Population analysis by basis function type

 Unique atom        s        p        d        f        g    Total    Charge
   1  W       3.99190  5.99973  4.00797  0.00027  0.00013 14.00000  + 0.00000


 **********************************************************************************************************************************
 DATASETS  * FILE   NREC   LENGTH (MB)   RECORD NAMES
              1      19       20.23       500      610      700      900      950      970     1000      129      960     1100
                                          VAR    BASINP    GEOM    SYMINP    ZMAT    AOBASIS   BASIS     P2S    ABASIS      S
                                         1400     1410     1420     1200     1210     1080     1600     1650     1700
                                           T        V       ECP      H0       H01     AOSYM     SMH    MOLCAS    OPER

              2       5        3.22       200      700     1000      520     4202
                                        OPTIONS   GEOM     BASIS   MCVARS     RHF

 PROGRAMS   *        TOTAL       POP       RHF       INT
 CPU TIMES  *         4.04      0.00      0.29      3.46
 REAL TIME  *         5.05 SEC
 DISK USED  *       762.55 MB
 SF USED    *         0.02 MB
 GA USED    *         0.00 MB       (max)       0.00 MB       (current)
 **********************************************************************************************************************************
    -->
    <time start="04:36:54" end="04:36:54" cpu="0.01" system="0.0" real="0.01"/>
    <storage units="megabyte" memory="4097.84" sf="0.02" df="366.32" eaf="396.24" ga="0.0"/>
   </jobstep><!--
   --><jobstep command="MULTI" commandset="MULTI">
    <!--


 Current variables in basis input:

 Set= 1  S_PAR(1)            =       4.79398800
 Set= 1  S_PAR(2)            =       2.79027400
 Set= 1  P_PAR(1)            =       3.75175400
 Set= 1  P_PAR(2)            =       3.38985800
 Set= 1  D_PAR(1)            =       3.02702500
 Set= 1  D_PAR(2)            =       3.07253000
 Set= 1  F_PAR(1)            =       1.15940500
 Set= 1  G_PAR(1)            =       1.58710800
 Set= 1  H_PAR(1)            =       1.77318300
 Set= 1  I_PAR(1)            =       1.86745400

 PROGRAM * MULTI (Direct Multiconfiguration SCF)       Authors: P.J. Knowles, H.-J. Werner (1984)     S.T. Elbert (1988)


 Number of closed-shell orbitals:   5 (   2   1   1   0   1   0   0   0 )
 Number of active  orbitals:        5 (   2   0   0   1   0   1   1   0 )
 Number of external orbitals:     196 (  41  27  27  21  27  21  21  11 )

 State symmetry 1

 Number of electrons:     4    Spin symmetry=Quintet   Space symmetry=1
 Number of states:        2
 Number of CSFs:          2   (2 determinants, 5 intermediate states)

 State symmetry 2

 Number of electrons:     4    Spin symmetry=Quintet   Space symmetry=4
 Number of states:        1
 Number of CSFs:          1   (1 determinants, 5 intermediate states)

 State symmetry 3

 Number of electrons:     4    Spin symmetry=Quintet   Space symmetry=6
 Number of states:        1
 Number of CSFs:          1   (1 determinants, 5 intermediate states)

 State symmetry 4

 Number of electrons:     4    Spin symmetry=Quintet   Space symmetry=7
 Number of states:        1
 Number of CSFs:          1   (1 determinants, 5 intermediate states)

 Molecular orbitals read from record     4202.2  Type=RHF/CANONICAL (state 1.1)
 *** IN SYMMETRY 1 ORBITAL  1 SYMMETRY CONTAMINATION OF 0.161D-01 HAS BEEN REMOVED
 *** IN SYMMETRY 1 ORBITAL  2 SYMMETRY CONTAMINATION OF 0.780D-01 HAS BEEN REMOVED
 *** IN SYMMETRY 1 ORBITAL  3 SYMMETRY CONTAMINATION OF 0.920D-02 HAS BEEN REMOVED
 *** IN SYMMETRY 1 ORBITAL  4 SYMMETRY CONTAMINATION OF 0.167D+00 HAS BEEN REMOVED

 EXTRA SYMMETRY OF MOS IN SYMMETRY 1:   1 1 3 2 3 2 1 3 2 1   3 2 1 6 4 5 3 2 1 4   6 5 2 3 1 4 6 510 9   8 7 2 3 4 6 510 9 8
                                        7 1 2 3 1
 *** IN SYMMETRY 2 ORBITAL  1 SYMMETRY CONTAMINATION OF 0.871D-02 HAS BEEN REMOVED
 EXTRA SYMMETRY OF MOS IN SYMMETRY 2:   1 1 1 1 3 2 1 3 2 1   2 3 4 5 6 1 2 3 4 5   6 2 3 4 5 6 1 1
 *** IN SYMMETRY 3 ORBITAL  1 SYMMETRY CONTAMINATION OF 0.871D-02 HAS BEEN REMOVED
 EXTRA SYMMETRY OF MOS IN SYMMETRY 3:   1 1 1 1 3 2 1 3 2 1   2 3 4 5 6 1 2 3 4 5   6 2 3 4 5 6 1 1
 *** IN SYMMETRY 4 ORBITAL  1 SYMMETRY CONTAMINATION OF 0.902D-02 HAS BEEN REMOVED
 EXTRA SYMMETRY OF MOS IN SYMMETRY 4:   1 1 1 1 2 3 1 2 3 1   2 3 4 6 5 1 2 3 4 6   5 1
 *** IN SYMMETRY 5 ORBITAL  1 SYMMETRY CONTAMINATION OF 0.964D-02 HAS BEEN REMOVED
 EXTRA SYMMETRY OF MOS IN SYMMETRY 5:   1 1 1 1 3 2 1 3 2 1   3 2 6 4 5 1 2 3 6 4   5 2 3 6 4 5 1 1
 *** IN SYMMETRY 6 ORBITAL  1 SYMMETRY CONTAMINATION OF 0.116D-02 HAS BEEN REMOVED
 EXTRA SYMMETRY OF MOS IN SYMMETRY 6:   1 1 1 1 3 2 1 2 3 1   2 3 6 5 4 1 2 3 6 5   4 1
 *** IN SYMMETRY 7 ORBITAL  1 SYMMETRY CONTAMINATION OF 0.116D-02 HAS BEEN REMOVED
 EXTRA SYMMETRY OF MOS IN SYMMETRY 7:   1 1 1 1 3 2 1 2 3 1   2 3 6 5 4 1 2 3 6 5   4 1
 EXTRA SYMMETRY OF MOS IN SYMMETRY 8:   1 1 1 3 2 1 3 2 1 3   2

 Wavefunction dump at record             5202.2

 Convergence thresholds  0.10E-01 (gradient)  0.10E-05 (energy)  0.10E-02 (step length)

 Weight factors for state symmetry  1:    0.20000   0.20000
 Weight factors for state symmetry  2:    0.20000
 Weight factors for state symmetry  3:    0.20000
 Weight factors for state symmetry  4:    0.20000

 Number of orbital rotations:      312   (     4 Core/Active    163 Core/Virtual   0 Active/Active    145 Active/Virtual)
 Total number of variables:        319


 ITER. MIC  NCI  NEG     ENERGY(VAR)     ENERGY(PROJ)   ENERGY CHANGE     GRAD(0)  GRAD(ORB)   GRAD(CI)     STEP       TIME

   1   38   16    0     -66.64513472     -66.69391224   -0.04877753    0.13950938 0.00000000 0.00000000  0.42D+00      0.24
   2   15   20    0     -66.69371452     -66.69381370   -0.00009918    0.01242516 0.00000000 0.00000000  0.12D-01      0.51
   3   22   20    0     -66.69381393     -66.69381393   -0.00000000    0.00004119 0.00000000 0.00000000  0.42D-04      0.75

 ** WVFN ****  CONVERGENCE REACHED, FINAL GRADIENT:  0.60D-09



 Results for state 1.1
 =====================

 !MCSCF STATE 1.1 Energy              -66.693813930876
    --><property name="Energy" method="MCSCF" principal="true" stateSymmetry="1" stateNumber="1"
      value="-66.6938139308764"/><!--
 Nuclear energy                         0.00000000
 Kinetic energy                        22.84261477
 One electron energy                 -112.94662899
 Two electron energy                   46.25281506
 Virial ratio                           3.91971014

 !MCSCF STATE 1.1 Dipole moment         0.00000000     0.00000000     0.00000000
 Dipole moment /Debye                   0.00000000     0.00000000     0.00000000
    --><property name="Dipole moment" method="MCSCF" principal="true" stateSymmetry="1"
      stateNumber="1" value="0.0 0.0 0.0"/><!--

 Results for state 2.1
 =====================

 !MCSCF STATE 2.1 Energy              -66.693813930874
    --><property name="Energy" method="MCSCF" principal="true" stateSymmetry="1" stateNumber="2"
      value="-66.6938139308742"/><!--
 Nuclear energy                         0.00000000
 Kinetic energy                        22.84261477
 One electron energy                 -112.94662899
 Two electron energy                   46.25281506
 Virial ratio                           3.91971014

 !MCSCF STATE 2.1 Dipole moment         0.00000000     0.00000000     0.00000000
 Dipole moment /Debye                   0.00000000     0.00000000     0.00000000
    --><property name="Dipole moment" method="MCSCF" principal="true" stateSymmetry="1"
      stateNumber="2" value="0.0 0.0 0.0"/><!--



 Results for state 1.4
 =====================

 !MCSCF STATE 1.4 Energy              -66.693813930876
    --><property name="Energy" method="MCSCF" principal="true" stateSymmetry="4" stateNumber="1"
      value="-66.6938139308764"/><!--
 Nuclear energy                         0.00000000
 Kinetic energy                        22.84261477
 One electron energy                 -112.94662899
 Two electron energy                   46.25281506
 Virial ratio                           3.91971014

 !MCSCF STATE 1.4 Dipole moment         0.00000000     0.00000000     0.00000000
 Dipole moment /Debye                   0.00000000     0.00000000     0.00000000
    --><property name="Dipole moment" method="MCSCF" principal="true" stateSymmetry="4"
      stateNumber="1" value="0.0 0.0 0.0"/><!--



 Results for state 1.6
 =====================

 !MCSCF STATE 1.6 Energy              -66.693813930871
    --><property name="Energy" method="MCSCF" principal="true" stateSymmetry="6" stateNumber="1"
      value="-66.6938139308712"/><!--
 Nuclear energy                         0.00000000
 Kinetic energy                        22.84261477
 One electron energy                 -112.94662899
 Two electron energy                   46.25281506
 Virial ratio                           3.91971014

 !MCSCF STATE 1.6 Dipole moment         0.00000000     0.00000000     0.00000000
 Dipole moment /Debye                   0.00000000     0.00000000     0.00000000
    --><property name="Dipole moment" method="MCSCF" principal="true" stateSymmetry="6"
      stateNumber="1" value="0.0 0.0 0.0"/><!--



 Results for state 1.7
 =====================

 !MCSCF STATE 1.7 Energy              -66.693813930871
    --><property name="Energy" method="MCSCF" principal="true" stateSymmetry="7" stateNumber="1"
      value="-66.6938139308712"/><!--
 Nuclear energy                         0.00000000
 Kinetic energy                        22.84261477
 One electron energy                 -112.94662899
 Two electron energy                   46.25281506
 Virial ratio                           3.91971014

 !MCSCF STATE 1.7 Dipole moment         0.00000000     0.00000000     0.00000000
 Dipole moment /Debye                   0.00000000     0.00000000     0.00000000
    --><property name="Dipole moment" method="MCSCF" principal="true" stateSymmetry="7"
      stateNumber="1" value="0.0 0.0 0.0"/><!--

 State-averaged charge density matrix saved on record  5202.2 (density set 1)


 NATURAL ORBITALS (state averaged)
 =================================

   Orb     Occ        Energy       Coefficients

                                   1 1s      1 1s      1 1s      1 1s      1 1s      1 1s      1 1s      1 1s      1 1s      1 3d0
                                   1 3d2+    1 3d0     1 3d2+    1 3d0     1 3d2+    1 3d0     1 3d2+    1 3d0     1 3d2+    1 3d0
                                   1 3d2+    1 3d0     1 3d2+    1 3d0     1 3d2+    1 5g0     1 5g4+    1 5g2+    1 5g0     1 5g4+
                                   1 5g2+    1 5g0     1 5g4+    1 5g2+    1 5g0     1 5g4+    1 5g2+    1 7i6+    1 7i4+    1 7i2+
                                   1 7i0     1 7i6+    1 7i4+    1 7i2+    1 7i0

   1.1  2.00000    -3.429658     0.998385 -0.005483 -0.002013 -0.000893  0.000288 -0.000106  0.006201  0.000266 -0.000617  0.000000
                                 0.000000  0.000000  0.000000  0.000000  0.000000  0.000000  0.000000  0.000000  0.000000  0.000000
                                 0.000000  0.000000  0.000000  0.000000  0.000000  0.000000  0.000000  0.000000  0.000000  0.000000
                                 0.000000  0.000000  0.000000  0.000000  0.000000  0.000000  0.000000  0.000000  0.000000  0.000000
                                 0.000000  0.000000  0.000000  0.000000  0.000000

   2.1  2.00000    -0.262192     0.001432  1.004195  0.002052  0.000722 -0.000258  0.000074 -0.004754 -0.000208  0.000478  0.000000
                                 0.000000  0.000000  0.000000  0.000000  0.000000  0.000000  0.000000  0.000000  0.000000  0.000000
                                 0.000000  0.000000  0.000000  0.000000  0.000000  0.000000  0.000000  0.000000  0.000000  0.000000
                                 0.000000  0.000000  0.000000  0.000000  0.000000  0.000000  0.000000  0.000000  0.000000  0.000000
                                 0.000000  0.000000  0.000000  0.000000  0.000000

   3.1  0.80000    -0.057511     0.000000  0.000000  0.000000  0.000000  0.000000  0.000000  0.000000  0.000000  0.000000  1.000120
                                 0.000000 -0.007341  0.000000  0.002008  0.000000 -0.000494  0.000000  0.000233  0.000000 -0.000327
                                 0.000000 -0.003637  0.000000  0.003545  0.000000  0.000000  0.000000  0.000000  0.000000  0.000000
                                 0.000000  0.000000  0.000000  0.000000  0.000000  0.000000  0.000000  0.000000  0.000000  0.000000
                                 0.000000  0.000000  0.000000  0.000000  0.000000

   4.1  0.80000    -0.057511     0.000000  0.000000  0.000000  0.000000  0.000000  0.000000  0.000000  0.000000  0.000000  0.000000
                                 1.000120  0.000000 -0.007341  0.000000  0.002008  0.000000 -0.000494  0.000000  0.000233  0.000000
                                -0.000327  0.000000 -0.003637  0.000000  0.003545  0.000000  0.000000  0.000000  0.000000  0.000000
                                 0.000000  0.000000  0.000000  0.000000  0.000000  0.000000  0.000000  0.000000  0.000000  0.000000
                                 0.000000  0.000000  0.000000  0.000000  0.000000

                                   1 2px     1 2px     1 2px     1 2px     1 2px     1 2px     1 2px     1 2px     1 2px     1 4f1+
                                   1 4f3+    1 4f1+    1 4f3+    1 4f1+    1 4f3+    1 4f1+    1 4f3+    1 4f1+    1 4f3+    1 6h1+
                                   1 6h3+    1 6h5+    1 6h1+    1 6h3+    1 6h5+    1 6h1+    1 6h3+    1 6h5+

   1.2  2.00000    -1.926695     1.000052 -0.000788 -0.000607 -0.000090  0.000038 -0.000028 -0.000041  0.000504 -0.000557  0.000000
                                 0.000000  0.000000  0.000000  0.000000  0.000000  0.000000  0.000000  0.000000  0.000000  0.000000
                                 0.000000  0.000000  0.000000  0.000000  0.000000  0.000000  0.000000  0.000000

                                   1 2py     1 2py     1 2py     1 2py     1 2py     1 2py     1 2py     1 2py     1 2py     1 4f1-
                                   1 4f3-    1 4f1-    1 4f3-    1 4f1-    1 4f3-    1 4f1-    1 4f3-    1 4f1-    1 4f3-    1 6h1-
                                   1 6h3-    1 6h5-    1 6h1-    1 6h3-    1 6h5-    1 6h1-    1 6h3-    1 6h5-

   1.3  2.00000    -1.926695     1.000052 -0.000788 -0.000607 -0.000090  0.000038 -0.000028 -0.000041  0.000504 -0.000557  0.000000
                                 0.000000  0.000000  0.000000  0.000000  0.000000  0.000000  0.000000  0.000000  0.000000  0.000000
                                 0.000000  0.000000  0.000000  0.000000  0.000000  0.000000  0.000000  0.000000

                                   1 3d2-    1 3d2-    1 3d2-    1 3d2-    1 3d2-    1 3d2-    1 3d2-    1 3d2-    1 5g2-    1 5g4-
                                   1 5g2-    1 5g4-    1 5g2-    1 5g4-    1 5g2-    1 5g4-    1 7i2-    1 7i6-    1 7i4-    1 7i2-
                                   1 7i6-    1 7i4-

   1.4  0.80000    -0.057511     1.000120 -0.007341  0.002008 -0.000494  0.000233 -0.000327 -0.003637  0.003545  0.000000  0.000000
                                 0.000000  0.000000  0.000000  0.000000  0.000000  0.000000  0.000000  0.000000  0.000000  0.000000
                                 0.000000  0.000000

                                   1 2pz     1 2pz     1 2pz     1 2pz     1 2pz     1 2pz     1 2pz     1 2pz     1 2pz     1 4f0
                                   1 4f2+    1 4f0     1 4f2+    1 4f0     1 4f2+    1 4f0     1 4f2+    1 4f0     1 4f2+    1 6h2+
                                   1 6h4+    1 6h0     1 6h2+    1 6h4+    1 6h0     1 6h2+    1 6h4+    1 6h0

   1.5  2.00000    -1.926695     1.000052 -0.000788 -0.000607 -0.000090  0.000038 -0.000028 -0.000041  0.000504 -0.000557  0.000000
                                 0.000000  0.000000  0.000000  0.000000  0.000000  0.000000  0.000000  0.000000  0.000000  0.000000
                                 0.000000  0.000000  0.000000  0.000000  0.000000  0.000000  0.000000  0.000000

                                   1 3d1+    1 3d1+    1 3d1+    1 3d1+    1 3d1+    1 3d1+    1 3d1+    1 3d1+    1 5g1+    1 5g3+
                                   1 5g1+    1 5g3+    1 5g1+    1 5g3+    1 5g1+    1 5g3+    1 7i5+    1 7i3+    1 7i1+    1 7i5+
                                   1 7i3+    1 7i1+

   1.6  0.80000    -0.057511     1.000120 -0.007341  0.002008 -0.000494  0.000233 -0.000327 -0.003637  0.003545  0.000000  0.000000
                                 0.000000  0.000000  0.000000  0.000000  0.000000  0.000000  0.000000  0.000000  0.000000  0.000000
                                 0.000000  0.000000

                                   1 3d1-    1 3d1-    1 3d1-    1 3d1-    1 3d1-    1 3d1-    1 3d1-    1 3d1-    1 5g1-    1 5g3-
                                   1 5g1-    1 5g3-    1 5g1-    1 5g3-    1 5g1-    1 5g3-    1 7i5-    1 7i3-    1 7i1-    1 7i5-
                                   1 7i3-    1 7i1-

   1.7  0.80000    -0.057511     1.000120 -0.007341  0.002008 -0.000494  0.000233 -0.000327 -0.003637  0.003545  0.000000  0.000000
                                 0.000000  0.000000  0.000000  0.000000  0.000000  0.000000  0.000000  0.000000  0.000000  0.000000
                                 0.000000  0.000000


 EXTRA SYMMETRY OF MOS IN SYMMETRY 1:   1 1 2 3 2 3 1 2 3 1   3 2 1 5 4 6 3 2 1 4   6 5 3 2 1 4 6 510 8   9 7 3 2 4 6 5 810 9
                                        7 1 3 2 1
 EXTRA SYMMETRY OF MOS IN SYMMETRY 2:   1 1 1 1 3 2 1 2 3 1   2 3 4 5 6 1 2 3 4 5   6 2 3 4 5 6 1 1
 EXTRA SYMMETRY OF MOS IN SYMMETRY 3:   1 1 1 1 3 2 1 2 3 1   2 3 4 5 6 1 2 3 4 5   6 2 3 4 5 6 1 1
 EXTRA SYMMETRY OF MOS IN SYMMETRY 4:   1 1 1 1 3 2 1 2 3 1   2 3 6 4 5 1 2 3 6 4   5 1
 EXTRA SYMMETRY OF MOS IN SYMMETRY 5:   1 1 1 1 2 3 1 3 2 1   3 2 6 4 5 1 3 2 6 4   5 2 3 6 4 5 1 1
 EXTRA SYMMETRY OF MOS IN SYMMETRY 6:   1 1 1 1 2 3 1 2 3 1   2 3 6 5 4 1 2 3 6 5   4 1
 EXTRA SYMMETRY OF MOS IN SYMMETRY 7:   1 1 1 1 2 3 1 2 3 1   2 3 6 5 4 1 2 3 6 5   4 1

 Natural orbital dump (state averaged) at molpro section  5202.2    (Orbital set 2)


 CI vector for state symmetry 1
 ==============================

 0a a a a          0.0000000   1.0000000
 a0 a a a          1.0000000   0.0000000

 TOTAL ENERGIES                       -66.69381393   -66.69381393

 CI vector for state symmetry 2
 ==============================

 aa 0 a a          1.0000000

 TOTAL ENERGIES                       -66.69381393

 CI vector for state symmetry 3
 ==============================

 aa a 0 a          1.0000000

 TOTAL ENERGIES                       -66.69381393

 CI vector for state symmetry 4
 ==============================

 aa a a 0          1.0000000

 TOTAL ENERGIES                       -66.69381393



 **********************************************************************************************************************************
 DATASETS  * FILE   NREC   LENGTH (MB)   RECORD NAMES
              1      20       23.94       500      610      700      900      950      970     1000      129      960     1100
                                          VAR    BASINP    GEOM    SYMINP    ZMAT    AOBASIS   BASIS     P2S    ABASIS      S
                                         1400     1410     1420     1200     1210     1080     1600     1650     1700     1380
                                           T        V       ECP      H0       H01     AOSYM     SMH    MOLCAS    OPER     JKOP

              2       6        5.93       200      700     1000      520     4202     5202
                                        OPTIONS   GEOM     BASIS   MCVARS     RHF     MCSCF

 PROGRAMS   *        TOTAL     MULTI       POP       RHF       INT
 CPU TIMES  *         5.05      0.99      0.00      0.29      3.46
 REAL TIME  *         6.14 SEC
 DISK USED  *       762.55 MB
 SF USED    *        24.19 MB
 GA USED    *         0.00 MB       (max)       0.00 MB       (current)
 **********************************************************************************************************************************
    -->
    <time start="04:36:54" end="04:36:55" cpu="1.01" system="0.07" real="1.09"/>
    <storage units="megabyte" memory="4097.84" sf="24.19" df="366.32" eaf="396.24" ga="0.0"/>
   </jobstep><!--
   --><jobstep command="RHF-SCF" commandset="SCFPRO">
    <!--


 Current variables in basis input:

 Set= 1  S_PAR(1)            =       4.79398800
 Set= 1  S_PAR(2)            =       2.79027400
 Set= 1  P_PAR(1)            =       3.75175400
 Set= 1  P_PAR(2)            =       3.38985800
 Set= 1  D_PAR(1)            =       3.02702500
 Set= 1  D_PAR(2)            =       3.07253000
 Set= 1  F_PAR(1)            =       1.15940500
 Set= 1  G_PAR(1)            =       1.58710800
 Set= 1  H_PAR(1)            =       1.77318300
 Set= 1  I_PAR(1)            =       1.86745400

 PROGRAM * RHF-SCF (OPEN SHELL)       Authors: W. Meyer, H.-J. Werner


 NUMBER OF ELECTRONS:       9+    5-    SPACE SYMMETRY=1    SPIN SYMMETRY: Quintet
 CONVERGENCE THRESHOLDS:    1.00E-05 (Density)    1.00E-07 (Energy)
 MAX. NUMBER OF ITERATIONS:        0
 INTERPOLATION TYPE:            DIIS
 INTERPOLATION STEPS:              2 (START)      1 (STEP)
 LEVEL SHIFTS:                 -0.60 (CLOSED) -0.30 (OPEN)

 Number of closed-shell orbitals:    5 (   2   1   1   0   1   0   0   0 )
 Number of open-shell orbitals:      4 (   1   0   0   1   0   1   1   0 )


 Molecular orbitals read from record     5202.2  Type=MCSCF/NATURAL (state averaged)

 Molecular orbital dump at record        2101.2

 ITERATION    DDIFF          GRAD             ENERGY        2-EL.EN.            DIPOLE MOMENTS         DIIS   ORB.
    1      0.000D+00      0.000D+00       -66.69381393     92.505630    0.00000    0.00000    0.00000    0    start

 Final alpha occupancy:   3   1   1   1   1   1   1   0
 Final beta  occupancy:   2   1   1   0   1   0   0   0

 !RHF STATE 1.1 Energy                -66.693813930876
    --><property name="Energy" method="RHF" principal="true" stateSymmetry="1" stateNumber="1"
      value="-66.6938139308765"/><!--
 Nuclear energy                         0.00000000
 One-electron energy                 -112.94662899
 Two-electron energy                   46.25281506
 Virial quotient                       -2.91971014
 !RHF STATE 1.1 Dipole moment           0.00000000     0.00000000     0.00000000
 Dipole moment /Debye                   0.00000000     0.00000000     0.00000000
    --><property name="Dipole moment" method="RHF" principal="true" stateSymmetry="1"
      stateNumber="1" value="0.0 0.0 0.0"/><!--

 ELECTRON ORBITALS
 =================


   Orb  Occ    Energy  Couls-En    Coefficients

                                   1 1s      1 1s      1 1s      1 1s      1 1s      1 1s      1 1s      1 1s      1 1s      1 3d0
                                   1 3d2+    1 3d0     1 3d2+    1 3d0     1 3d2+    1 3d0     1 3d2+    1 3d0     1 3d2+    1 3d0
[...]
    1      0.000D+00      0.000D+00       -66.69381393     92.505630    0.00000    0.00000    0.00000    0    start

 Final alpha occupancy:   3   1   1   1   1   1   1   0
 Final beta  occupancy:   2   1   1   0   1   0   0   0

 !RHF STATE 1.1 Energy                -66.693813930858
    --><property name="Energy" method="RHF" principal="true" stateSymmetry="1" stateNumber="1"
      value="-66.6938139308583"/><!--
 Nuclear energy                         0.00000000
 One-electron energy                 -112.94662899
 Two-electron energy                   46.25281506
 Virial quotient                       -2.91971014
 !RHF STATE 1.1 Dipole moment           0.00000000     0.00000000     0.00000000
 Dipole moment /Debye                   0.00000000     0.00000000     0.00000000
    --><property name="Dipole moment" method="RHF" principal="true" stateSymmetry="1"
      stateNumber="1" value="0.0 0.0 0.0"/><!--

 ELECTRON ORBITALS
 =================


   Orb  Occ    Energy  Couls-En    Coefficients

                                   1 1s      1 1s      1 1s      1 1s      1 1s      1 1s      1 1s      1 1s      1 1s      1 3d0
                                   1 3d2+    1 3d0     1 3d2+    1 3d0     1 3d2+    1 3d0     1 3d2+    1 3d0     1 3d2+    1 3d0
                                   1 3d2+    1 3d0     1 3d2+    1 3d0     1 3d2+    1 5g0     1 5g4+    1 5g2+    1 5g0     1 5g4+
                                   1 5g2+    1 5g0     1 5g4+    1 5g2+    1 5g0     1 5g4+    1 5g2+    1 7i6+    1 7i4+    1 7i2+
                                   1 7i0     1 7i6+    1 7i4+    1 7i2+    1 7i0

   1.1   2    -3.4297  -14.5244  0.998385 -0.005483 -0.002013 -0.000893  0.000288 -0.000106  0.006201  0.000266 -0.000617  0.000000
                                 0.000000  0.000000  0.000000  0.000000  0.000000  0.000000  0.000000  0.000000  0.000000  0.000000
                                 0.000000  0.000000  0.000000  0.000000  0.000000  0.000000  0.000000  0.000000  0.000000  0.000000
                                 0.000000  0.000000  0.000000  0.000000  0.000000  0.000000  0.000000  0.000000  0.000000  0.000000
                                 0.000000  0.000000  0.000000  0.000000  0.000000

   2.1   2    -0.2622   -4.6794  0.001432  1.004195  0.002052  0.000722 -0.000258  0.000074 -0.004754 -0.000208  0.000478  0.000000
                                 0.000000  0.000000  0.000000  0.000000  0.000000  0.000000  0.000000  0.000000  0.000000  0.000000
                                 0.000000  0.000000  0.000000  0.000000  0.000000  0.000000  0.000000  0.000000  0.000000  0.000000
                                 0.000000  0.000000  0.000000  0.000000  0.000000  0.000000  0.000000  0.000000  0.000000  0.000000
                                 0.000000  0.000000  0.000000  0.000000  0.000000

   3.1   +    -0.0575   -6.5190  0.000000  0.000000  0.000000  0.000000  0.000000  0.000000  0.000000  0.000000  0.000000  1.000120
                                 0.000000 -0.007341  0.000000  0.002008  0.000000 -0.000494  0.000000  0.000233  0.000000 -0.000327
                                 0.000000 -0.003415  0.000000  0.003323  0.000000  0.000000  0.000000  0.000000  0.000000  0.000000
                                 0.000000  0.000000  0.000000  0.000000  0.000000  0.000000  0.000000  0.000000  0.000000  0.000000
                                 0.000000  0.000000  0.000000  0.000000  0.000000

                                   1 2px     1 2px     1 2px     1 2px     1 2px     1 2px     1 2px     1 2px     1 2px     1 4f1+
                                   1 4f3+    1 4f1+    1 4f3+    1 4f1+    1 4f3+    1 4f1+    1 4f3+    1 4f1+    1 4f3+    1 6h1+
                                   1 6h3+    1 6h5+    1 6h1+    1 6h3+    1 6h5+    1 6h1+    1 6h3+    1 6h5+

   1.2   2    -1.9267  -11.2728  1.000052 -0.000788 -0.000607 -0.000090  0.000038 -0.000028 -0.000041  0.000504 -0.000557  0.000000
                                 0.000000  0.000000  0.000000  0.000000  0.000000  0.000000  0.000000  0.000000  0.000000  0.000000
                                 0.000000  0.000000  0.000000  0.000000  0.000000  0.000000  0.000000  0.000000

                                   1 2py     1 2py     1 2py     1 2py     1 2py     1 2py     1 2py     1 2py     1 2py     1 4f1-
                                   1 4f3-    1 4f1-    1 4f3-    1 4f1-    1 4f3-    1 4f1-    1 4f3-    1 4f1-    1 4f3-    1 6h1-
                                   1 6h3-    1 6h5-    1 6h1-    1 6h3-    1 6h5-    1 6h1-    1 6h3-    1 6h5-

   1.3   2    -1.9267  -11.2728  1.000052 -0.000788 -0.000607 -0.000090  0.000038 -0.000028 -0.000041  0.000504 -0.000557  0.000000
                                 0.000000  0.000000  0.000000  0.000000  0.000000  0.000000  0.000000  0.000000  0.000000  0.000000
                                 0.000000  0.000000  0.000000  0.000000  0.000000  0.000000  0.000000  0.000000

                                   1 3d2-    1 3d2-    1 3d2-    1 3d2-    1 3d2-    1 3d2-    1 3d2-    1 3d2-    1 5g2-    1 5g4-
                                   1 5g2-    1 5g4-    1 5g2-    1 5g4-    1 5g2-    1 5g4-    1 7i2-    1 7i6-    1 7i4-    1 7i2-
                                   1 7i6-    1 7i4-

   1.4   +    -0.0575   -6.5190  1.000120 -0.007341  0.002008 -0.000494  0.000233 -0.000327 -0.003415  0.003323  0.000000  0.000000
                                 0.000000  0.000000  0.000000  0.000000  0.000000  0.000000  0.000000  0.000000  0.000000  0.000000
                                 0.000000  0.000000

                                   1 2pz     1 2pz     1 2pz     1 2pz     1 2pz     1 2pz     1 2pz     1 2pz     1 2pz     1 4f0
                                   1 4f2+    1 4f0     1 4f2+    1 4f0     1 4f2+    1 4f0     1 4f2+    1 4f0     1 4f2+    1 6h2+
                                   1 6h4+    1 6h0     1 6h2+    1 6h4+    1 6h0     1 6h2+    1 6h4+    1 6h0

   1.5   2    -1.9267  -11.2728  1.000052 -0.000788 -0.000607 -0.000090  0.000038 -0.000028 -0.000041  0.000504 -0.000557  0.000000
                                 0.000000  0.000000  0.000000  0.000000  0.000000  0.000000  0.000000  0.000000  0.000000  0.000000
                                 0.000000  0.000000  0.000000  0.000000  0.000000  0.000000  0.000000  0.000000

                                   1 3d1+    1 3d1+    1 3d1+    1 3d1+    1 3d1+    1 3d1+    1 3d1+    1 3d1+    1 5g1+    1 5g3+
                                   1 5g1+    1 5g3+    1 5g1+    1 5g3+    1 5g1+    1 5g3+    1 7i5+    1 7i3+    1 7i1+    1 7i5+
                                   1 7i3+    1 7i1+

   1.6   +    -0.0575   -6.5190  1.000120 -0.007341  0.002008 -0.000494  0.000233 -0.000327 -0.003415  0.003323  0.000000  0.000000
                                 0.000000  0.000000  0.000000  0.000000  0.000000  0.000000  0.000000  0.000000  0.000000  0.000000
                                 0.000000  0.000000

                                   1 3d1-    1 3d1-    1 3d1-    1 3d1-    1 3d1-    1 3d1-    1 3d1-    1 3d1-    1 5g1-    1 5g3-
                                   1 5g1-    1 5g3-    1 5g1-    1 5g3-    1 5g1-    1 5g3-    1 7i5-    1 7i3-    1 7i1-    1 7i5-
                                   1 7i3-    1 7i1-

   1.7   +    -0.0575   -6.5190  1.000120 -0.007341  0.002008 -0.000494  0.000233 -0.000327 -0.003415  0.003323  0.000000  0.000000
                                 0.000000  0.000000  0.000000  0.000000  0.000000  0.000000  0.000000  0.000000  0.000000  0.000000
                                 0.000000  0.000000

 HOMO      3.1    -0.057511 =      -1.5650eV
 LUMO      4.1    -0.057511 =      -1.5650eV
 LUMO-HOMO         0.000000 =       0.0000eV


 **********************************************************************************************************************************
 DATASETS  * FILE   NREC   LENGTH (MB)   RECORD NAMES
              1      20       23.94       500      610      700      900      950      970     1010      129      960     1100
                                          VAR    BASINP    GEOM    SYMINP    ZMAT    AOBASIS   BASIS     P2S    ABASIS      S
                                         1400     1410     1420     1200     1210     1080     1600     1650     1700     1380
                                           T        V       ECP      H0       H01     AOSYM     SMH    MOLCAS    OPER     JKOP

              2      47       92.00       200      700     1000      520     4302     5302     2101     1001     4302     5302
                                        OPTIONS   GEOM     BASIS   MCVARS     RHF     MCSCF     RHF     BASIS     RHF     MCSCF
                                         2102     1002     4302     5302     2103     1003     4302     5302     2104     1004
                                          RHF     BASIS     RHF     MCSCF     RHF     BASIS     RHF     MCSCF     RHF     BASIS
                                         4302     5302     2105     1005     4302     5302     2106     1006     4302     5302
                                          RHF     MCSCF     RHF     BASIS     RHF     MCSCF     RHF     BASIS     RHF     MCSCF
                                         2107     1007     4302     5302     2108     1008     4302     5302     2109     1009
                                          RHF     BASIS     RHF     MCSCF     RHF     BASIS     RHF     MCSCF     RHF     BASIS
                                         4302     5302     2110     1010     4202     5202     2111
                                          RHF     MCSCF     RHF     BASIS     RHF     MCSCF     RHF

 PROGRAMS   *        TOTAL       RHF     MULTI       POP       RHF       INT        CI      DATA      DATA       RHF     MULTI
 CPU TIMES  *       125.34      0.07      1.06      0.00      0.25      3.67      7.32      0.00      0.00      0.05      1.14
 REAL TIME  *       197.16 SEC
 DISK USED  *         2.06 GB
 SF USED    *        25.74 MB
 GA USED    *         0.00 MB       (max)       0.00 MB       (current)
 **********************************************************************************************************************************
    -->
    <time start="04:40:06" end="04:40:06" cpu="0.07" system="0.01" real="0.1"/>
    <storage units="megabyte" memory="4097.84" sf="25.74" df="1615.46" eaf="447.19" ga="0.0"/>
   </jobstep><!--
   --><jobstep command="DATA" commandset="DATA">
    <!--


 RECORD   4202.2 RENAMED TO   4302.2


 **********************************************************************************************************************************
 DATASETS  * FILE   NREC   LENGTH (MB)   RECORD NAMES
              1      20       23.94       500      610      700      900      950      970     1010      129      960     1100
                                          VAR    BASINP    GEOM    SYMINP    ZMAT    AOBASIS   BASIS     P2S    ABASIS      S
                                         1400     1410     1420     1200     1210     1080     1600     1650     1700     1380
                                           T        V       ECP      H0       H01     AOSYM     SMH    MOLCAS    OPER     JKOP

              2      47       92.00       200      700     1000      520     4302     5302     2101     1001     4302     5302
                                        OPTIONS   GEOM     BASIS   MCVARS     RHF     MCSCF     RHF     BASIS     RHF     MCSCF
                                         2102     1002     4302     5302     2103     1003     4302     5302     2104     1004
                                          RHF     BASIS     RHF     MCSCF     RHF     BASIS     RHF     MCSCF     RHF     BASIS
                                         4302     5302     2105     1005     4302     5302     2106     1006     4302     5302
                                          RHF     MCSCF     RHF     BASIS     RHF     MCSCF     RHF     BASIS     RHF     MCSCF
                                         2107     1007     4302     5302     2108     1008     4302     5302     2109     1009
                                          RHF     BASIS     RHF     MCSCF     RHF     BASIS     RHF     MCSCF     RHF     BASIS
                                         4302     5302     2110     1010     4302     5202     2111
                                          RHF     MCSCF     RHF     BASIS     RHF     MCSCF     RHF

 PROGRAMS   *        TOTAL      DATA       RHF     MULTI       POP       RHF       INT        CI      DATA      DATA       RHF
 CPU TIMES  *       125.35      0.00      0.07      1.06      0.00      0.25      3.67      7.32      0.00      0.00      0.05
 REAL TIME  *       197.17 SEC
 DISK USED  *         2.06 GB
 SF USED    *        25.74 MB
 GA USED    *         0.00 MB       (max)       0.00 MB       (current)
 **********************************************************************************************************************************
    -->
    <time start="04:40:06" end="04:40:06" cpu="0.01" system="0.0" real="0.01"/>
    <storage units="megabyte" memory="4097.84" sf="25.74" df="1615.46" eaf="447.19" ga="0.0"/>
   </jobstep><!--
   --><jobstep command="DATA" commandset="DATA">
    <!--


 RECORD   5202.2 RENAMED TO   5302.2


 **********************************************************************************************************************************
 DATASETS  * FILE   NREC   LENGTH (MB)   RECORD NAMES
              1      20       23.94       500      610      700      900      950      970     1010      129      960     1100
                                          VAR    BASINP    GEOM    SYMINP    ZMAT    AOBASIS   BASIS     P2S    ABASIS      S
                                         1400     1410     1420     1200     1210     1080     1600     1650     1700     1380
                                           T        V       ECP      H0       H01     AOSYM     SMH    MOLCAS    OPER     JKOP

              2      47       92.00       200      700     1000      520     4302     5302     2101     1001     4302     5302
                                        OPTIONS   GEOM     BASIS   MCVARS     RHF     MCSCF     RHF     BASIS     RHF     MCSCF
                                         2102     1002     4302     5302     2103     1003     4302     5302     2104     1004
                                          RHF     BASIS     RHF     MCSCF     RHF     BASIS     RHF     MCSCF     RHF     BASIS
                                         4302     5302     2105     1005     4302     5302     2106     1006     4302     5302
                                          RHF     MCSCF     RHF     BASIS     RHF     MCSCF     RHF     BASIS     RHF     MCSCF
                                         2107     1007     4302     5302     2108     1008     4302     5302     2109     1009
                                          RHF     BASIS     RHF     MCSCF     RHF     BASIS     RHF     MCSCF     RHF     BASIS
                                         4302     5302     2110     1010     4302     5302     2111
                                          RHF     MCSCF     RHF     BASIS     RHF     MCSCF     RHF

 PROGRAMS   *        TOTAL      DATA      DATA       RHF     MULTI       POP       RHF       INT        CI      DATA      DATA
 CPU TIMES  *       125.37      0.00      0.00      0.07      1.06      0.00      0.25      3.67      7.32      0.00      0.00
 REAL TIME  *       197.18 SEC
 DISK USED  *         2.06 GB
 SF USED    *        25.74 MB
 GA USED    *         0.00 MB       (max)       0.00 MB       (current)
 **********************************************************************************************************************************
    -->
    <time start="04:40:06" end="04:40:06" cpu="0.02" system="0.0" real="0.01"/>
    <storage units="megabyte" memory="4097.84" sf="25.74" df="1615.46" eaf="447.19" ga="0.0"/>
   </jobstep><!--
   --><jobstep command="CI" commandset="CIPRO">
    <!--


 Current variables in basis input:

 Set= 1  S_PAR(1)            =       4.79398800
 Set= 1  S_PAR(2)            =       2.79027400
 Set= 1  P_PAR(1)            =       3.75175400
 Set= 1  P_PAR(2)            =       3.38985800
 Set= 1  D_PAR(1)            =       3.02399797
 Set= 1  D_PAR(2)            =       3.07253000
 Set= 1  F_PAR(1)            =       1.15940500
 Set= 1  G_PAR(1)            =       1.58710800
 Set= 1  H_PAR(1)            =       1.77318300
 Set= 1  I_PAR(1)            =       1.86745400

 PROGRAM * CI (Multireference internally contracted CI)     Authors: H.-J. Werner, P.J. Knowles, 1987


 Convergence thresholds:  THRVAR = 1.00D-08  THRDEN = 1.00D-06

 Number of optimized states:  1  Roots:   1
 Number of reference states:  1  Roots:   1

 Reference symmetry:                   1   Quintet
 Number of electrons:                 14
 Maximum number of shells:             3
 Maximum number of spin couplings:    20

 Reference space:        1 conf        1 CSFs
 N elec internal:       81 conf       81 CSFs
 N-1 el internal:      129 conf      309 CSFs
 N-2 el internal:       41 conf      331 CSFs

 Number of electrons in valence space:                     14
 Maximum number of open shell orbitals in reference space:  4
 Maximum number of open shell orbitals in internal spaces:  8


 Number of closed-shell orbitals:   5 (   2   1   1   0   1   0   0   0 )
 Number of active  orbitals:        4 (   1   0   0   1   0   1   1   0 )
 Number of external orbitals:     197 (  42  27  27  21  27  21  21  11 )

 Molecular orbitals read from record     2111.2  Type=RHF/CANONICAL (state 1.1)

 Coulomb and exchange operators available. No transformation done.

 Number of p-space configurations:   1

 Reference wavefunction optimized for reference space (refopt=1)

 State     Reference Energy
   1         -66.69381393

 Number of blocks in overlap matrix:    71   Smallest eigenvalue:  0.10D+01
 Number of N-2 electron functions:      71
 Number of N-1 electron functions:     309

 Number of internal configurations:                    9
 Number of singly external configurations:          7599
 Number of doubly external configurations:        174489
 Total number of contracted configurations:       182097
 Total number of uncontracted configurations:     823201

 Diagonal Coupling coefficients finished.               Storage:   26488 words, CPU-Time:      0.00 seconds.
 Energy denominators for pairs finished in 1 passes.    Storage:  101937 words, CPU-time:      0.17 seconds.

  ITER. STATE  ROOT     SQ.NORM     CORR.ENERGY   TOTAL ENERGY   ENERGY CHANGE       DEN1      VAR(S)    VAR(P)      TIME
    1     1     1     1.00000000     0.00000000   -66.69381393    -0.00000000    -0.49621447  0.41D-01  0.11D+00     0.74
    2     1     1     1.10278212    -0.40728081   -67.10109474    -0.40728081    -0.01278953  0.30D-02  0.28D-02     1.35
    3     1     1     1.08990975    -0.41957457   -67.11338850    -0.01229376    -0.00025023  0.48D-04  0.70D-04     2.67
    4     1     1     1.08938153    -0.41985692   -67.11367085    -0.00028235    -0.00001316  0.42D-05  0.40D-05     3.64
    5     1     1     1.08953085    -0.41987166   -67.11368559    -0.00001474    -0.00000063  0.72D-07  0.23D-06     4.57
    6     1     1     1.08957092    -0.41987233   -67.11368626    -0.00000067    -0.00000002  0.26D-08  0.96D-08     5.54
    7     1     1     1.08957786    -0.41987236   -67.11368629    -0.00000003    -0.00000000  0.14D-09  0.44D-09     6.67


 =====================================
 Analysis of CPU times by interactions
 =====================================

       I      S      P

 I   0.0%
 S   1.8%   1.3%
 P  46.0%   7.5%   5.7%

 Initialization:   6.6%
 Other:           31.0%

 Total CPU:        6.7 seconds
 =====================================



 Reference coefficients greater than 0.0500000
 =============================================
 22/22/2//           0.9572686
