
 Primary working directories    : /global/cscratch1/sd/gwang18
 Secondary working directories  : /global/cscratch1/sd/gwang18
 Wavefunction directory         : /global/homes/g/gwang18/wfu/
 Main file repository           : /global/cscratch1/sd/gwang18/

 SHA1      : 19cd028119e0e09f93f0674bd8af7968d9b3eff6
 NAME      : 2015.1.36
 ARCHNAME  : linux/x86_64
 FC        : /opt/cray/pe/craype/2.5.14/bin/ftn
 BLASLIB   : -L/opt/intel/compilers_and_libraries_2018.1.163/linux/mkl/lib/intel64 -Wl,-_start-group -lmkl_intel_ilp64 -lmkl_intel_thread -lmkl_core -Wl,-_end-group -liomp5
 id        : lbl

 Nodes     nprocs
 nid00990     7
 Number of processes for MPI-2 version of Molpro:   nprocs(total)=    8   nprocs(compute)=    7   nprocs(helper)=    1

 Using customized tuning parameters: mindgm=7; mindgv=16; mindgc=1; mindgr=1; noblas=0; minvec=7
 default implementation of scratch files=sf  

 ***,Calculation for Ag atom, singlet and triplet
 memory,512,m
 geometry={
 1
 Sr
 Sr  0.0 0.0 0.0
 }
 
 basis={
 Including file /global/u2/g/gwang18/projects/heavy-element-ecp/sr/atom/uc/basis/aug-cc-pwCVDZ.basis
 }
 
 set,dkroll=1,dkho=10,dkhp=4
 
 Including file /global/u2/g/gwang18/projects/heavy-element-ecp/sr/atom/uc/basis/states.proc
 
 do i=1,6
     if (i.eq.1) then
         I5s2
     else if (i.eq.2) then
         Is5s5p
     else if (i.eq.3) then
         I5s4d
     else if (i.eq.4) then
         II5s1
     else if (i.eq.5) then
         II4d
     else if (i.eq.6) then
         III4p6
     endif
     scf(i)=energy
     _CC_NORM_MAX=2.0
     {rccsd(t),maxit=100;core,5,2,2,1,2,1,1,0}
     ccsd(i)=energy
 enddo
 
 table,scf,ccsd
 type,csv
 save

 Variables initialized (889), CPU time= 0.00 sec
 Commands  initialized (702), CPU time= 0.01 sec, 572 directives.
 Default parameters read. Elapsed time= 0.17 sec

 Checking input...
 Passed
1


                                         ***  PROGRAM SYSTEM MOLPRO  ***
                                       Copyright, TTI GmbH Stuttgart, 2015
                                    Version 2015.1 linked Dec 29 2018 15:55:43


 **********************************************************************************************************************************
 LABEL *   Calculation for Ag atom, singlet and triplet                                  
  64 bit mpp version                                                                     DATE: 09-Sep-19          TIME: 19:06:12  
 **********************************************************************************************************************************

 SHA1:             19cd028119e0e09f93f0674bd8af7968d9b3eff6
 **********************************************************************************************************************************

Geometry recognized as XYZ


 Variable memory set to  512000000 words,  buffer space   230000 words

 SETTING BASIS          =    USERDEF
 SETTING DKROLL         =         1.00000000                                  
 SETTING DKHO           =        10.00000000                                  
 SETTING DKHP           =         4.00000000                                  

 DO I                   =         1.00000000   

 Running procedure=I5S2


 Recomputing integrals since basis changed


 Using spherical harmonics



 PROGRAM * SEWARD (Integral evaluation for generally contracted gaussian basis sets)     Author: Roland Lindh, 1990

 Geometry written to block  1 of record 700

 Orientation using atomic masses  
 Molecule type: Atom
 Symmetry elements: X,Y,Z
 Rotational constants:       0.0000000      0.0000000      0.0000000 GHz  (calculated with average atomic masses)

 Point group  D2h 



 ATOMIC COORDINATES

 NR  ATOM    CHARGE       X              Y              Z

   1  SR     38.00    0.000000000    0.000000000    0.000000000

 NUCLEAR CHARGE:                   38
 NUMBER OF PRIMITIVE AOS:         148
 NUMBER OF SYMMETRY AOS:          135
 NUMBER OF CONTRACTIONS:          135   (  48Ag  +  16B3u +  16B2u +  13B1g +  16B1u +  13B2g +  13B3g +   0Au  )
 NUMBER OF CORE ORBITALS:          18   (   6Ag  +   3B3u +   3B2u +   1B1g +   3B1u +   1B2g +   1B3g +   0Au  )
 NUMBER OF VALENCE ORBITALS:        1   (   1Ag  +   0B3u +   0B2u +   0B1g +   0B1u +   0B2g +   0B3g +   0Au  )


 NUCLEAR REPULSION ENERGY    0.00000000

 One-electron integrals computed with SEWARD

 10nd-order Douglas-Kroll-Hess method activated. McWeeny DKH parametrization is used.

 Computing Douglas-Kroll / X2C integrals

 AO integral compression algorithm  1   Integral accuracy      1.0D-11

     56.623 MB (compressed) written to integral file ( 40.2%)

     Node minimum: 2.884 MB, node maximum: 14.942 MB


 NUMBER OF SORTED TWO-ELECTRON INTEGRALS:     836283.     BUFFER LENGTH:  32768
 NUMBER OF SEGMENTS:   1  SEGMENT LENGTH:     836283      RECORD LENGTH: 524288

 Memory used in sort:       1.39 MW

 SORT1 READ    17765813. AND WROTE      634338. INTEGRALS IN      2 RECORDS. CPU TIME:     0.54 SEC, REAL TIME:     0.72 SEC
 SORT2 READ     4454879. AND WROTE     5853735. INTEGRALS IN    308 RECORDS. CPU TIME:     0.02 SEC, REAL TIME:     0.04 SEC

 Node minimum:      824955.  Node maximum:      845076. integrals

 OPERATOR DM      FOR CENTER  0  COORDINATES:    0.000000    0.000000    0.000000

 EXTRA SYMMETRY OF AOS IN SYMMETRY 1:   1 1 1 1 1 1 1 1 1 1   1 1 1 1 1 1 1 1 1 1   1 1 2 3 2 3 2 3 2 3   2 3 2 3 2 3 2 3 2 3
                                        2 3 2 3 2 3 2 3

 Eigenvalues of metric

         1 0.798E-05 0.972E-03 0.310E-02 0.349E-02 0.349E-02 0.762E-02 0.141E-01 0.154E-01
         2 0.415E-04 0.591E-02 0.191E-01 0.466E-01 0.757E-01 0.131E+00 0.208E+00 0.335E+00
         3 0.415E-04 0.591E-02 0.191E-01 0.466E-01 0.757E-01 0.131E+00 0.208E+00 0.335E+00
         4 0.349E-02 0.154E-01 0.534E-01 0.112E+00 0.182E+00 0.289E+00 0.512E+00 0.777E+00
         5 0.415E-04 0.591E-02 0.191E-01 0.466E-01 0.757E-01 0.131E+00 0.208E+00 0.335E+00
         6 0.349E-02 0.154E-01 0.534E-01 0.112E+00 0.182E+00 0.289E+00 0.512E+00 0.777E+00
         7 0.349E-02 0.154E-01 0.534E-01 0.112E+00 0.182E+00 0.289E+00 0.512E+00 0.777E+00


 **********************************************************************************************************************************
 DATASETS  * FILE   NREC   LENGTH (MB)   RECORD NAMES
              1      22       20.15       500      610      700      900      950      970     1000      129      960     1700   
                                          VAR    BASINP    GEOM    SYMINP    ZMAT    AOBASIS   BASIS     P2S    ABASIS    OPER   
                                         1101     1401     1411     1412     1650     1100     1400     1410     1200     1210   
                                          SR      EKINR    POTR     PVPR    MOLCAS      S      EKIN      POT      H0       H01  
                                         1080     1600   
                                         AOSYM     SMH  

 PROGRAMS   *        TOTAL       INT
 CPU TIMES  *         4.48      4.28
 REAL TIME  *         6.52 SEC
 DISK USED  *        97.85 MB      
 GA USED    *         0.00 MB       (max)       0.00 MB       (current)
 **********************************************************************************************************************************


 PROGRAM * RHF-SCF (CLOSED SHELL)       Authors: W. Meyer, H.-J. Werner


 NUMBER OF ELECTRONS:      19+   19-    SPACE SYMMETRY=1    SPIN SYMMETRY: Singlet 
 CONVERGENCE THRESHOLDS:    1.00E-05 (Density)    1.00E-07 (Energy)
 MAX. NUMBER OF ITERATIONS:       60
 INTERPOLATION TYPE:            DIIS
 INTERPOLATION STEPS:              2 (START)      1 (STEP)
 LEVEL SHIFTS:                  0.00 (CLOSED)  0.00 (OPEN) 

 Number of closed-shell orbitals:   19 (   7   3   3   1   3   1   1 )


 
 Extra symmetries of mos in symmetry 1:   1   1   1   3   2   1   1
 Orbital guess generated from atomic densities. Full valence occupancy:    7   3   3   1   3   1   1   0


 Molecular orbital dump at record        4202.2

 ITERATION    DDIFF          GRAD             ENERGY        2-EL.EN.            DIPOLE MOMENTS         DIIS   ORB.
    1      0.000D+00      0.000D+00     -3111.53358583   3127.431441    0.00000    0.00000    0.00000    0    start
    2      0.000D+00      0.124D+01     -2959.46239347   1131.015603    0.00000    0.00000    0.00000    1    diag
    3      0.125D+03      0.819D+00     -3152.98098668   2856.190421    0.00000    0.00000    0.00000    2    diag
    4      0.100D+03      0.580D+00     -3175.37261637   2555.307504    0.00000    0.00000    0.00000    3    diag
    5      0.908D+02      0.120D+00     -3177.27653854   2459.684590    0.00000    0.00000    0.00000    4    diag
    6      0.907D+01      0.187D-01     -3177.34675331   2443.069165    0.00000    0.00000    0.00000    5    diag
    7      0.140D+01      0.303D-02     -3177.35205907   2439.220343    0.00000    0.00000    0.00000    6    diag
    8      0.378D-01      0.317D-03     -3177.35244047   2438.698119    0.00000    0.00000    0.00000    7    diag
    9      0.107D-01      0.858D-04     -3177.35245662   2438.677037    0.00000    0.00000    0.00000    8    diag
   10      0.175D-02      0.231D-04     -3177.35245677   2438.656655    0.00000    0.00000    0.00000    9    orth
   11      0.343D-03      0.190D-05     -3177.35245678   2438.655373    0.00000    0.00000    0.00000    9    diag
   12      0.511D-04      0.446D-06     -3177.35245679   2438.655336    0.00000    0.00000    0.00000    9    diag
   13      0.923D-05      0.297D-07     -3177.35245679   2438.655306    0.00000    0.00000    0.00000    0    orth

 Final occupancy:   7   3   3   1   3   1   1

 !RHF STATE 1.1 Energy              -3177.352456785255
 Nuclear energy                         0.00000000
 One-electron energy                -4396.68010985
 Two-electron energy                 1219.32765306
 Virial quotient                       -0.91960048
 !RHF STATE 1.1 Dipole moment           0.00000000     0.00000000     0.00000000
 Dipole moment /Debye                   0.00000000     0.00000000     0.00000000

 ELECTRON ORBITALS
 =================


   Orb  Occ    Energy  Couls-En    Coefficients

                                   1 1s      1 1s      1 1s      1 1s      1 1s      1 1s      1 1s      1 1s      1 1s      1 1s   
                                   1 1s      1 1s      1 1s      1 1s      1 1s      1 1s      1 1s      1 1s      1 1s      1 1s   
                                   1 1s      1 1s      1 3d0     1 3d2+    1 3d0     1 3d2+    1 3d0     1 3d2+    1 3d0     1 3d2+ 
                                   1 3d0     1 3d2+    1 3d0     1 3d2+    1 3d0     1 3d2+    1 3d0     1 3d2+    1 3d0     1 3d2+ 
                                   1 3d0     1 3d2+    1 3d0     1 3d2+    1 3d0     1 3d2+    1 3d0     1 3d2+ 

   1.1   2  -595.2435-1331.5001  0.000135  0.000418  0.001202  0.003145  0.007966  0.020057  0.050400  0.120805  0.249508  0.370330
                                 0.287649  0.060556 -0.006097  0.003041 -0.001435  0.000826 -0.008357 -0.000247  0.000040 -0.000029
                                 0.008313  0.000010  0.000000 -0.000000 -0.000000  0.000000  0.000000 -0.000000 -0.000000  0.000000
                                 0.000000 -0.000000 -0.000000  0.000000  0.000000 -0.000000 -0.000000  0.000000 -0.000000 -0.000000
                                 0.000000  0.000000 -0.000000 -0.000000  0.000000 -0.000000  0.000000  0.000000

   2.1   2   -83.1089 -265.8819 -0.000044 -0.000137 -0.000394 -0.001035 -0.002637 -0.006725 -0.017276 -0.043562 -0.099674 -0.185619
                                -0.198136  0.135139  0.600541  0.398185  0.041238 -0.005674  0.047835  0.001327 -0.000213  0.000156
                                -0.047454 -0.000052 -0.000000 -0.000000  0.000000 -0.000000 -0.000000 -0.000000  0.000000 -0.000000
                                -0.000000  0.000000  0.000000 -0.000000 -0.000000 -0.000000  0.000000  0.000000  0.000000  0.000000
                                -0.000000 -0.000000  0.000000  0.000000 -0.000000 -0.000000 -0.000000 -0.000000

   3.1   2   -13.9546  -88.0018  0.000018  0.000056  0.000162  0.000425  0.001082  0.002770  0.007110  0.018154  0.041802  0.081379
                                 0.089912 -0.071736 -0.466516 -0.371271  0.631972  0.656157  0.334143  0.002217  0.000201 -0.000169
                                -0.294648  0.000059  0.000000  0.000000 -0.000000  0.000000  0.000000  0.000000 -0.000000  0.000000
                                 0.000000 -0.000000 -0.000000 -0.000000  0.000000  0.000000 -0.000000 -0.000000 -0.000000 -0.000000
                                 0.000000  0.000000 -0.000000 -0.000000  0.000000  0.000000  0.000000  0.000000

   4.1   2    -5.5871  -72.0518  0.000000 -0.000000 -0.000000 -0.000000 -0.000000 -0.000000 -0.000000  0.000000 -0.000000  0.000000
                                -0.000000  0.000000 -0.000000  0.000000 -0.000000  0.000000 -0.000000 -0.000000  0.000000 -0.000000
                                 0.000000  0.000000 -0.000109  0.002287 -0.000902  0.018845 -0.003886  0.081217 -0.009991  0.208826
                                -0.016154  0.337661 -0.017302  0.361654 -0.010348  0.216303 -0.002391  0.049981 -0.000116  0.002431
                                 0.000011 -0.000239 -0.000005  0.000095  0.000198 -0.004138  0.000002 -0.000038

   5.1   2    -5.5871  -72.0518 -0.000000  0.000000  0.000000  0.000000  0.000000 -0.000000  0.000000 -0.000000  0.000000 -0.000000
                                 0.000000 -0.000000  0.000000 -0.000000  0.000000 -0.000000  0.000000  0.000000 -0.000000  0.000000
                                -0.000000 -0.000000  0.002287  0.000109  0.018845  0.000902  0.081217  0.003886  0.208826  0.009991
                                 0.337661  0.016154  0.361654  0.017302  0.216303  0.010348  0.049981  0.002391  0.002431  0.000116
                                -0.000239 -0.000011  0.000095  0.000005 -0.004138 -0.000198 -0.000038 -0.000002

   6.1   2    -1.9483  -32.3393  0.000006  0.000020  0.000057  0.000151  0.000385  0.000985  0.002534  0.006462  0.014967  0.029146
                                 0.032865 -0.027634 -0.182531 -0.159412  0.352536  0.584085 -0.543021 -0.612215 -0.026231  0.014559
                                -0.128365 -0.004455 -0.000000  0.000000  0.000000  0.000000 -0.000000  0.000000  0.000000  0.000000
                                 0.000000  0.000000 -0.000000  0.000000  0.000000 -0.000000 -0.000000 -0.000000 -0.000000 -0.000000
                                 0.000000  0.000000  0.000000  0.000000  0.000000 -0.000000 -0.000000 -0.000000

   7.1   2    -0.1812  -10.0072  0.000002  0.000005  0.000015  0.000039  0.000100  0.000255  0.000657  0.001674  0.003882  0.007556
                                 0.008555 -0.007269 -0.047784 -0.042543  0.097426  0.172079 -0.375026 -0.408633  0.700696  0.470501
                                 0.140783  0.007965  0.000000  0.000000 -0.000000  0.000000  0.000000  0.000000 -0.000000  0.000000
                                 0.000000  0.000000 -0.000000  0.000000  0.000000 -0.000000 -0.000000 -0.000000  0.000000 -0.000000
                                -0.000000 -0.000000  0.000000 -0.000000 -0.000000 -0.000000 -0.000000 -0.000000

   8.1   0     0.0241   -3.5146 -0.000000 -0.000001 -0.000004 -0.000010 -0.000027 -0.000067 -0.000178 -0.000438 -0.001063 -0.001937
                                -0.002488  0.002562  0.011238  0.014165 -0.033005 -0.030526 -1.165332 -0.027855  0.313508 -2.066335
                                 1.310773  2.211044 -0.000000 -0.000000 -0.000000 -0.000000 -0.000000 -0.000000 -0.000000 -0.000000
                                 0.000000 -0.000000 -0.000000 -0.000000  0.000000  0.000000 -0.000000  0.000000 -0.000000  0.000000
                                 0.000000  0.000000 -0.000000 -0.000000  0.000000  0.000000  0.000000  0.000000

   9.1   0     0.0374   -3.4232 -0.000000 -0.000000 -0.000000 -0.000000 -0.000000  0.000000 -0.000000  0.000000 -0.000000  0.000000
                                -0.000000  0.000000 -0.000000  0.000000 -0.000000  0.000000 -0.000001 -0.000000  0.000000 -0.000000
                                 0.000001  0.000000  0.000027  0.000015  0.000242  0.000139  0.000951  0.000549  0.002796  0.001615
                                 0.003527  0.002036  0.005657  0.003267 -0.003629 -0.002096  0.005504  0.003178  0.002341  0.001352
                                -0.102613 -0.059253  0.205783  0.118827 -0.032256 -0.018626 -0.981076 -0.566513

                                   1 2px     1 2px     1 2px     1 2px     1 2px     1 2px     1 2px     1 2px     1 2px     1 2px  
                                   1 2px     1 2px     1 2px     1 2px     1 2px     1 2px  

   1.2   2   -73.6487 -253.2656  0.000531  0.003568  0.019015  0.077860  0.227692  0.412552  0.355989  0.092919 -0.000529  0.003233
                                -0.017432 -0.000558  0.000119 -0.000054  0.016722  0.000018

   2.2   2   -10.8032  -81.9792 -0.000222 -0.001505 -0.008077 -0.034044 -0.103819 -0.203219 -0.145640  0.271933  0.577817  0.285896
                                 0.037280 -0.000582  0.000169 -0.000102 -0.016454  0.000032

   3.2   2    -1.0949  -27.8762 -0.000071 -0.000485 -0.002584 -0.011035 -0.033493 -0.067540 -0.043622  0.109190  0.274555  0.075161
                                -0.529380 -0.551128 -0.067325  0.012235 -0.014606 -0.003953

   4.2   0     0.0120   -4.8232 -0.000008 -0.000051 -0.000276 -0.001168 -0.003591 -0.007113 -0.004865  0.012502  0.028248  0.012770
                                -0.251971 -0.118388  0.127338  0.135047  0.196470  0.858233

   5.2   0     0.0575   -5.6001  0.000011  0.000079  0.000412  0.001801  0.005321  0.011190  0.006221 -0.015798 -0.051498  0.004323
                                -0.417035  0.047953  0.117195 -1.512673  0.554220  1.193633

                                   1 2py     1 2py     1 2py     1 2py     1 2py     1 2py     1 2py     1 2py     1 2py     1 2py  
                                   1 2py     1 2py     1 2py     1 2py     1 2py     1 2py  

   1.3   2   -73.6487 -253.2656  0.000531  0.003568  0.019015  0.077860  0.227692  0.412552  0.355989  0.092919 -0.000529  0.003233
                                -0.017432 -0.000558  0.000119 -0.000054  0.016722  0.000018

   2.3   2   -10.8032  -81.9792 -0.000222 -0.001505 -0.008077 -0.034044 -0.103819 -0.203219 -0.145640  0.271933  0.577817  0.285896
                                 0.037280 -0.000582  0.000169 -0.000102 -0.016454  0.000032

   3.3   2    -1.0949  -27.8762 -0.000071 -0.000485 -0.002584 -0.011035 -0.033493 -0.067540 -0.043622  0.109190  0.274555  0.075161
                                -0.529380 -0.551128 -0.067325  0.012235 -0.014606 -0.003953

   4.3   0     0.0120   -4.8232 -0.000008 -0.000051 -0.000276 -0.001168 -0.003591 -0.007113 -0.004865  0.012502  0.028248  0.012770
                                -0.251971 -0.118388  0.127338  0.135047  0.196470  0.858233

   5.3   0     0.0575   -5.6001  0.000011  0.000079  0.000412  0.001801  0.005321  0.011190  0.006221 -0.015798 -0.051498  0.004323
                                -0.417035  0.047953  0.117195 -1.512673  0.554220  1.193633

                                   1 3d2-    1 3d2-    1 3d2-    1 3d2-    1 3d2-    1 3d2-    1 3d2-    1 3d2-    1 3d2-    1 3d2- 
                                   1 3d2-    1 3d2-    1 3d2- 

   1.4   2    -5.5871  -72.0518  0.002289  0.018866  0.081310  0.209065  0.338048  0.362068  0.216550  0.050039  0.002434 -0.000239
                                 0.000095 -0.004143 -0.000039

   2.4   0     0.0374   -3.4232 -0.000031 -0.000279 -0.001098 -0.003229 -0.004072 -0.006532  0.004191 -0.006356 -0.002704  0.118492
                                -0.237627  0.037247  1.132893

   3.4   0     0.0917   -8.0645 -0.000183 -0.001461 -0.006555 -0.016282 -0.027659 -0.023295 -0.009043  0.106846  0.243448  0.175877
                                 1.099585 -0.048566 -0.759005

                                   1 2pz     1 2pz     1 2pz     1 2pz     1 2pz     1 2pz     1 2pz     1 2pz     1 2pz     1 2pz  
                                   1 2pz     1 2pz     1 2pz     1 2pz     1 2pz     1 2pz  

   1.5   2   -73.6487 -253.2656  0.000531  0.003568  0.019015  0.077860  0.227692  0.412552  0.355989  0.092919 -0.000529  0.003233
                                -0.017432 -0.000558  0.000119 -0.000054  0.016722  0.000018

   2.5   2   -10.8032  -81.9792 -0.000222 -0.001505 -0.008077 -0.034044 -0.103819 -0.203219 -0.145640  0.271933  0.577817  0.285896
                                 0.037280 -0.000582  0.000169 -0.000102 -0.016454  0.000032

   3.5   2    -1.0949  -27.8762 -0.000071 -0.000485 -0.002584 -0.011035 -0.033493 -0.067540 -0.043622  0.109190  0.274555  0.075161
                                -0.529380 -0.551128 -0.067325  0.012235 -0.014606 -0.003953

   4.5   0     0.0120   -4.8232 -0.000008 -0.000051 -0.000276 -0.001168 -0.003591 -0.007113 -0.004865  0.012502  0.028248  0.012770
                                -0.251971 -0.118388  0.127338  0.135047  0.196470  0.858233

   5.5   0     0.0575   -5.6001  0.000011  0.000079  0.000412  0.001801  0.005321  0.011190  0.006221 -0.015798 -0.051498  0.004323
                                -0.417035  0.047953  0.117195 -1.512673  0.554220  1.193633

                                   1 3d1+    1 3d1+    1 3d1+    1 3d1+    1 3d1+    1 3d1+    1 3d1+    1 3d1+    1 3d1+    1 3d1+ 
                                   1 3d1+    1 3d1+    1 3d1+ 

   1.6   2    -5.5871  -72.0518  0.002289  0.018866  0.081310  0.209065  0.338048  0.362068  0.216550  0.050039  0.002434 -0.000239
                                 0.000095 -0.004143 -0.000039

   2.6   0     0.0374   -3.4232 -0.000031 -0.000279 -0.001098 -0.003229 -0.004072 -0.006532  0.004191 -0.006356 -0.002704  0.118492
                                -0.237627  0.037247  1.132893

   3.6   0     0.0917   -8.0645 -0.000183 -0.001461 -0.006555 -0.016282 -0.027659 -0.023295 -0.009043  0.106846  0.243448  0.175877
                                 1.099585 -0.048566 -0.759005

                                   1 3d1-    1 3d1-    1 3d1-    1 3d1-    1 3d1-    1 3d1-    1 3d1-    1 3d1-    1 3d1-    1 3d1- 
                                   1 3d1-    1 3d1-    1 3d1- 

   1.7   2    -5.5871  -72.0518  0.002289  0.018866  0.081310  0.209065  0.338048  0.362068  0.216550  0.050039  0.002434 -0.000239
                                 0.000095 -0.004143 -0.000039

   2.7   0     0.0374   -3.4232 -0.000031 -0.000279 -0.001098 -0.003229 -0.004072 -0.006532  0.004191 -0.006356 -0.002704  0.118492
                                -0.237627  0.037247  1.132893

   3.7   0     0.0917   -8.0645 -0.000183 -0.001461 -0.006555 -0.016282 -0.027659 -0.023295 -0.009043  0.106846  0.243448  0.175877
                                 1.099585 -0.048566 -0.759005

 HOMO      7.1    -0.181233 =      -4.9316eV
 LUMO      4.2     0.012046 =       0.3278eV
 LUMO-HOMO         0.193279 =       5.2594eV


 **********************************************************************************************************************************
 DATASETS  * FILE   NREC   LENGTH (MB)   RECORD NAMES
              1      22       20.15       500      610      700      900      950      970     1000      129      960     1700   
                                          VAR    BASINP    GEOM    SYMINP    ZMAT    AOBASIS   BASIS     P2S    ABASIS    OPER   
                                         1101     1401     1411     1412     1650     1100     1400     1410     1200     1210   
                                          SR      EKINR    POTR     PVPR    MOLCAS      S      EKIN      POT      H0       H01  
                                         1080     1600   
                                         AOSYM     SMH  

              2       5        5.42       200      700     1000      520     4202   
                                        OPTIONS   GEOM     BASIS   MCVARS     RHF  

 PROGRAMS   *        TOTAL       RHF       INT
 CPU TIMES  *         4.70      0.22      4.28
 REAL TIME  *         6.97 SEC
 DISK USED  *       279.15 MB      
 SF USED    *         0.01 MB      
 GA USED    *         0.00 MB       (max)       0.00 MB       (current)
 **********************************************************************************************************************************
 SETTING SCF(1)         =     -3177.35245679  AU                              
 SETTING _CC_NORM_MAX   =         2.00000000                                  


 PROGRAM * CCSD (Restricted open-shell coupled cluster)     Authors: C. Hampel, H.-J. Werner, 1991, M. Deegan, P.J. Knowles, 1992


 Convergence thresholds:  THRVAR = 1.00D-08  THRDEN = 1.00D-06

 CCSD(T)     terms to be evaluated (factor= 1.000)


 Number of core orbitals:          14 (   5   2   2   1   2   1   1 )
 Number of closed-shell orbitals:   5 (   2   1   1   0   1   0   0 )
 Number of external orbitals:     116 (  41  13  13  12  13  12  12 )

 Memory could be reduced to 3.22 Mwords without degradation in triples

 Number of N-1 electron functions:              10
 Number of N-2 electron functions:              45
 Number of singly external CSFs:               242
 Number of doubly external CSFs:             65754
 Total number of CSFs:                       65996

 Molecular orbitals read from record     4202.2  Type=RHF/CANONICAL (state 1.1)

 Integral transformation finished. Total CPU:   0.12 sec, npass=  1  Memory used:   0.48 MW

 Starting RMP2 calculation

 Wavefunction is spin-projected

 ITER.      SQ.NORM     CORR.ENERGY   TOTAL ENERGY   ENERGY CHANGE        DEN1      VAR(S)    VAR(P)  DIIS     TIME
   1      1.08017815    -0.19151202 -3177.54396881    -0.19151202    -0.00153658  0.84D-13  0.15D-02  1  1     0.16
   2      1.08463973    -0.19322421 -3177.54568099    -0.00171219    -0.00004119  0.11D-13  0.61D-04  2  2     0.16
   3      1.08571698    -0.19346467 -3177.54592145    -0.00024046    -0.00000021  0.47D-15  0.28D-06  3  3     0.17
   4      1.08575375    -0.19346928 -3177.54592606    -0.00000461    -0.00000000  0.37D-16  0.44D-08  4  4     0.17
   5      1.08575466    -0.19346926 -3177.54592604     0.00000002    -0.00000000  0.22D-17  0.41D-10  5  5     0.28

 Norm of t1 vector:      0.00000119      S-energy:    -0.00000000      T1 diagnostic:  0.00000027
 Norm of t2 vector:      0.29283896      P-energy:    -0.19346926
                                         Alpha-Beta:  -0.14043321
                                         Alpha-Alpha: -0.02651802
                                         Beta-Beta:   -0.02651802

 Spin contamination <S**2-Sz**2-Sz>     0.00000000
  Reference energy                  -3177.352456785254
  RHF-RMP2 correlation energy          -0.193469256606
 !RHF-RMP2 energy                   -3177.545926041859
 (NB above energy spin projected)

 Starting RCCSD calculation

 ITER.      SQ.NORM     CORR.ENERGY   TOTAL ENERGY   ENERGY CHANGE        DEN1      VAR(S)    VAR(P)  DIIS     TIME
   1      1.08829018    -0.19714087 -3177.54959765    -0.19714087    -0.00463676  0.12D-02  0.33D-02  1  1     0.32
   2      1.10401034    -0.20211474 -3177.55457153    -0.00497388    -0.00057125  0.33D-03  0.51D-03  2  2     0.34
   3      1.11484656    -0.20382689 -3177.55628367    -0.00171214    -0.00006653  0.50D-04  0.56D-04  3  3     0.37
   4      1.11963788    -0.20436166 -3177.55681845    -0.00053478    -0.00000602  0.37D-05  0.55D-05  4  4     0.40
   5      1.12081182    -0.20445555 -3177.55691234    -0.00009389    -0.00000089  0.28D-06  0.10D-05  5  5     0.47
   6      1.12108781    -0.20446762 -3177.55692440    -0.00001206    -0.00000012  0.69D-08  0.15D-06  6  6     0.50
   7      1.12114949    -0.20446931 -3177.55692610    -0.00000170    -0.00000001  0.62D-08  0.13D-07  6  1     0.53
   8      1.12115571    -0.20446989 -3177.55692667    -0.00000058    -0.00000000  0.25D-08  0.18D-08  6  2     0.56

 Norm of t1 vector:      0.08924288      S-energy:     0.00000001      T1 diagnostic:  0.01995531
                                                                       D1 diagnostic:  0.06286729
 Norm of t2 vector:      0.33643932      P-energy:    -0.20446990
                                         Alpha-Beta:  -0.15417985
                                         Alpha-Alpha: -0.02514502
                                         Beta-Beta:   -0.02514502

 Doubles amplitudes (print threshold =  0.500E-01):

         I         J         SYM. A    SYM. B    A         B      T(IJ, AB) [Alpha-Beta]

         2         2         2         2         1         1     -0.05220150
         2         2         2         2         1         2      0.05535707
         2         2         2         2         2         1      0.05535707
         2         2         2         2         2         2     -0.05949163
         2         2         3         3         1         1     -0.05220150
         2         2         3         3         1         2      0.05535707
         2         2         3         3         2         1      0.05535707
         2         2         3         3         2         2     -0.05949163
         2         2         5         5         1         1     -0.05220150
         2         2         5         5         1         2      0.05535707
         2         2         5         5         2         1      0.05535707
         2         2         5         5         2         2     -0.05949163

 Spin contamination <S**2-Sz**2-Sz>     0.00000000

 Memory could be reduced to 3.24 Mwords without degradation in triples
 

  Correlated core orbitals:             6.1       3.2       3.3       3.5
  Orbital energies:                    -1.9483   -1.0949   -1.0949   -1.0949
 
  RCCSD core-core energy               -0.153387026100
  RCCSD core-valence energy            -0.029181393689
  RCCSD valence correlation energy     -0.021901468067
 

 RESULTS
 =======

  Reference energy                  -3177.352456785254
  RCCSD singles energy                  0.000000013173
  RCCSD pair energy                    -0.204469901029
  RCCSD correlation energy             -0.204469887856
  Triples (T) contribution             -0.004441934705
  Total correlation energy             -0.208911822560
 
  RHF-RCCSD energy                  -3177.556926673110
  RHF-RCCSD[T] energy               -3177.561591341499
  RHF-RCCSD-T energy                -3177.561342424523
 !RHF-RCCSD(T) energy               -3177.561368607814

 Program statistics:

 Available memory in ccsd:               511999650
 Min. memory needed in ccsd:                262508
 Max. memory used in ccsd:                  331486
 Max. memory used in cckext:                360512 ( 8 integral passes)
 Max. memory used in cckint:                482932 ( 1 integral passes)



 **********************************************************************************************************************************
 DATASETS  * FILE   NREC   LENGTH (MB)   RECORD NAMES
              1      22       20.15       500      610      700      900      950      970     1000      129      960     1700   
                                          VAR    BASINP    GEOM    SYMINP    ZMAT    AOBASIS   BASIS     P2S    ABASIS    OPER   
                                         1101     1401     1411     1412     1650     1100     1400     1410     1200     1210   
                                          SR      EKINR    POTR     PVPR    MOLCAS      S      EKIN      POT      H0       H01  
                                         1080     1600   
                                         AOSYM     SMH  

              2       5        5.42       200      700     1000      520     4202   
                                        OPTIONS   GEOM     BASIS   MCVARS     RHF  

 PROGRAMS   *        TOTAL  RCCSD(T)       RHF       INT
 CPU TIMES  *         5.48      0.78      0.22      4.28
 REAL TIME  *         9.36 SEC
 DISK USED  *       333.53 MB      
 SF USED    *        34.96 MB      
 GA USED    *         0.00 MB       (max)       0.00 MB       (current)
 **********************************************************************************************************************************
 SETTING CCSD(1)        =     -3177.56136861  AU                              

 DO I                   =         2.00000000   

 Running procedure=IS5S5P


 PROGRAM * RHF-SCF (OPEN SHELL)       Authors: W. Meyer, H.-J. Werner


 NUMBER OF ELECTRONS:      20+   18-    SPACE SYMMETRY=2    SPIN SYMMETRY: Triplet 
 CONVERGENCE THRESHOLDS:    1.00E-05 (Density)    1.00E-07 (Energy)
 MAX. NUMBER OF ITERATIONS:       60
 INTERPOLATION TYPE:            DIIS
 INTERPOLATION STEPS:              2 (START)      1 (STEP)
 LEVEL SHIFTS:                 -0.60 (CLOSED) -0.30 (OPEN) 

 Number of closed-shell orbitals:   18 (   6   3   3   1   3   1   1 )
 Number of open-shell orbitals:      2 (   1   1   0   0   0   0   0 )

 Singly occupied orbitals:      7.1       4.2
 
 Extra symmetries of mos in symmetry 1:   1   1   1   3   2   1   1
 Orbital guess generated from atomic densities. Full valence occupancy:    7   3   3   1   3   1   1   0


 Molecular orbital dump at record        4202.2

 ITERATION    DDIFF          GRAD             ENERGY        2-EL.EN.            DIPOLE MOMENTS         DIIS   ORB.
    1      0.000D+00      0.000D+00     -3111.24999928   3126.996636    0.00000    0.00000    0.00000    0    start
    2      0.000D+00      0.118D+01     -2969.52364262   1155.792161    0.00000    0.00000    0.00000    1    diag,B
    3      0.719D+02      0.792D+00     -3154.08202535   2844.435060    0.00000    0.00000    0.00000    2    diag,B
    4      0.515D+02      0.537D+00     -3174.75002535   2566.681482    0.00000    0.00000    0.00000    3    diag,B
    5      0.479D+02      0.124D+00     -3177.05045603   2471.259981    0.00000    0.00000    0.00000    4    diag,B
    6      0.613D+00      0.235D-01     -3177.26282500   2445.664207    0.00000    0.00000    0.00000    5    diag,B
    7      0.467D+01      0.353D-02     -3177.29688270   2440.303777    0.00000    0.00000    0.00000    6    fixocc
    8      0.256D+00      0.147D-02     -3177.31110700   2438.136057    0.00000    0.00000    0.00000    7    diag,B
    9      0.321D-01      0.720D-03     -3177.31552398   2436.590095    0.00000    0.00000    0.00000    8    diag,B
   10      0.451D-01      0.224D-03     -3177.31596933   2436.257432    0.00000    0.00000    0.00000    9    orth
   11      0.585D-02      0.120D-03     -3177.31616223   2436.086087    0.00000    0.00000    0.00000    9    diag,B
   12      0.158D-02      0.611D-04     -3177.31622248   2436.000283    0.00000    0.00000    0.00000    9    diag,B
   13      0.126D-02      0.199D-04     -3177.31622716   2435.978233    0.00000    0.00000    0.00000    9    diag,B
   14      0.374D-03      0.976D-05     -3177.31622813   2435.976714    0.00000    0.00000    0.00000    9    diag,B
   15      0.257D-03      0.495D-05     -3177.31622840   2435.976700    0.00000    0.00000    0.00000    9    diag,B
   16      0.572D-04      0.211D-05     -3177.31622845   2435.977388    0.00000    0.00000    0.00000    9    diag,B
   17      0.213D-04      0.127D-05     -3177.31622846   2435.977601    0.00000    0.00000    0.00000    9    diag,B
   18      0.124D-04      0.585D-06     -3177.31622847   2435.977488    0.00000    0.00000    0.00000    9    diag,B
   19      0.687D-05      0.107D-06     -3177.31622847   2435.977494    0.00000    0.00000    0.00000    0    orth

 Final alpha occupancy:   7   4   3   1   3   1   1
 Final beta  occupancy:   6   3   3   1   3   1   1

 !RHF STATE 1.2 Energy              -3177.316228469071
 Nuclear energy                         0.00000000
 One-electron energy                -4395.30497572
 Two-electron energy                 1217.98874725
 Virial quotient                       -0.91960529
 !RHF STATE 1.2 Dipole moment           0.00000000     0.00000000     0.00000000
 Dipole moment /Debye                   0.00000000     0.00000000     0.00000000

 ELECTRON ORBITALS
 =================


   Orb  Occ    Energy  Couls-En    Coefficients

                                   1 1s      1 1s      1 1s      1 1s      1 1s      1 1s      1 1s      1 1s      1 1s      1 1s   
                                   1 1s      1 1s      1 1s      1 1s      1 1s      1 1s      1 1s      1 1s      1 1s      1 1s   
                                   1 1s      1 1s      1 3d0     1 3d2+    1 3d0     1 3d2+    1 3d0     1 3d2+    1 3d0     1 3d2+ 
                                   1 3d0     1 3d2+    1 3d0     1 3d2+    1 3d0     1 3d2+    1 3d0     1 3d2+    1 3d0     1 3d2+ 
                                   1 3d0     1 3d2+    1 3d0     1 3d2+    1 3d0     1 3d2+    1 3d0     1 3d2+ 

   1.1   2  -595.2788-1331.5354  0.000135  0.000418  0.001202  0.003145  0.007966  0.020057  0.050400  0.120805  0.249508  0.370329
                                 0.287650  0.060556 -0.006097  0.003041 -0.001435  0.000826 -0.008357 -0.000247  0.000040 -0.000029
                                 0.008313  0.000010  0.000000 -0.000000 -0.000000  0.000000 -0.000000  0.000000  0.000000 -0.000000
                                 0.000000 -0.000000  0.000000 -0.000000 -0.000000  0.000000 -0.000000  0.000000  0.000000 -0.000000
                                 0.000000 -0.000000  0.000000 -0.000000 -0.000000  0.000000  0.000000 -0.000000

   2.1   2   -83.1440 -265.9167 -0.000044 -0.000137 -0.000394 -0.001035 -0.002637 -0.006725 -0.017276 -0.043561 -0.099673 -0.185617
                                -0.198134  0.135133  0.600530  0.398194  0.041247 -0.005676  0.047835  0.001327 -0.000213  0.000156
                                -0.047457 -0.000052 -0.000000  0.000000  0.000000 -0.000000  0.000001 -0.000002  0.000002 -0.000003
                                -0.000000  0.000001  0.000000 -0.000000  0.000000 -0.000001  0.000000 -0.000001 -0.000000  0.000000
                                -0.000000  0.000000 -0.000000  0.000000 -0.000000  0.000000 -0.000000  0.000000

   3.1   2   -13.9895  -88.0346  0.000018  0.000056  0.000162  0.000425  0.001082  0.002770  0.007110  0.018153  0.041799  0.081373
                                 0.089907 -0.071732 -0.466455 -0.371270  0.631803  0.656255  0.333897  0.002203  0.000187 -0.000166
                                -0.294335  0.000058  0.000000 -0.000000  0.000001 -0.000002  0.000005 -0.000009  0.000013 -0.000023
                                 0.000019 -0.000033  0.000043 -0.000075  0.000034 -0.000058 -0.000007  0.000013  0.000001 -0.000002
                                 0.000004 -0.000006  0.000000 -0.000001  0.000004 -0.000006  0.000000 -0.000000

   4.1   2    -5.6218  -72.0893  0.000000  0.000000  0.000000  0.000000  0.000000  0.000001  0.000002  0.000005  0.000011  0.000020
                                 0.000024 -0.000021 -0.000118 -0.000123  0.000260  0.000182 -0.001931 -0.000164 -0.000004  0.000029
                                 0.001866 -0.000004 -0.001145  0.001983 -0.009434  0.016340 -0.040658  0.070422 -0.104542  0.181072
                                -0.169038  0.292782 -0.181049  0.313586 -0.108235  0.187468 -0.024994  0.043291 -0.001199  0.002077
                                 0.000131 -0.000227 -0.000047  0.000082  0.002047 -0.003545  0.000019 -0.000033

   5.1   2    -5.6236  -72.0866  0.000000  0.000000  0.000000  0.000000  0.000000  0.000000  0.000000 -0.000000  0.000000 -0.000000
                                 0.000000 -0.000000  0.000000 -0.000000  0.000000 -0.000000 -0.000000 -0.000000  0.000000 -0.000000
                                 0.000000 -0.000000  0.001983  0.001145  0.016337  0.009432  0.070412  0.040652  0.181045  0.104527
                                 0.292733  0.169010  0.313573  0.181041  0.187544  0.108279  0.043337  0.025021  0.002111  0.001219
                                -0.000205 -0.000118  0.000082  0.000048 -0.003532 -0.002039 -0.000033 -0.000019

   6.1   2    -1.9822  -32.3471 -0.000006 -0.000020 -0.000057 -0.000151 -0.000384 -0.000984 -0.002530 -0.006451 -0.014943 -0.029100
                                -0.032813  0.027590  0.182219  0.159150 -0.351767 -0.582848  0.519166  0.614316  0.026234 -0.013774
                                 0.148704  0.004319 -0.000001  0.000002 -0.000010  0.000018 -0.000044  0.000076 -0.000114  0.000198
                                -0.000175  0.000303 -0.000187  0.000325 -0.000043  0.000075  0.000274 -0.000475  0.001428 -0.002473
                                 0.000051 -0.000088 -0.000080  0.000138  0.000373 -0.000646  0.000016 -0.000027

   7.1   +    -0.2431  -10.2678  0.000002  0.000005  0.000015  0.000040  0.000101  0.000259  0.000666  0.001701  0.003936  0.007680
                                 0.008653 -0.007287 -0.048705 -0.042756  0.097721  0.176775 -0.628088 -0.455215  0.789901  0.400213
                                 0.413659 -0.012304  0.000011 -0.000019  0.000093 -0.000161  0.000395 -0.000684  0.001055 -0.001827
                                 0.001579 -0.002735  0.001788 -0.003097 -0.000290  0.000503 -0.002541  0.004402 -0.006628  0.011481
                                -0.034483  0.059726 -0.039897  0.069103 -0.003923  0.006795  0.002967 -0.005139

   8.1   0     0.0198   -3.5801 -0.000000 -0.000001 -0.000004 -0.000010 -0.000025 -0.000064 -0.000167 -0.000415 -0.001000 -0.001839
                                -0.002319  0.002329  0.010825  0.012969 -0.030160 -0.031193 -0.901118  0.003641  0.162365 -1.747234
                                 1.024305  2.052271 -0.000008  0.000015 -0.000071  0.000124 -0.000305  0.000528 -0.000807  0.001397
                                -0.001229  0.002128 -0.001344  0.002327  0.000154 -0.000267  0.002526 -0.004375  0.006792 -0.011764
                                 0.019136 -0.033145 -0.005482  0.009495  0.002320 -0.004019  0.115262 -0.199640

   9.1   0     0.0311   -5.1984 -0.000000 -0.000001 -0.000003 -0.000007 -0.000019 -0.000047 -0.000123 -0.000308 -0.000729 -0.001381
                                -0.001647  0.001526  0.008446  0.008700 -0.020092 -0.027646 -0.296995  0.037120 -0.063549 -0.430653
                                 0.365453  0.480701  0.000048 -0.000083  0.000405 -0.000702  0.001720 -0.002979  0.004594 -0.007957
                                 0.006896 -0.011945  0.007804 -0.013517 -0.001298  0.002249 -0.012386  0.021452 -0.034381  0.059549
                                -0.113326  0.196286 -0.051021  0.088370 -0.016551  0.028668 -0.393672  0.681861

                                   1 2px     1 2px     1 2px     1 2px     1 2px     1 2px     1 2px     1 2px     1 2px     1 2px  
                                   1 2px     1 2px     1 2px     1 2px     1 2px     1 2px  

   1.2   2   -73.6842 -253.3014  0.000531  0.003568  0.019015  0.077862  0.227695  0.412556  0.355986  0.092913 -0.000530  0.003234
                                -0.017428 -0.000559  0.000118 -0.000054  0.016719  0.000018

   2.2   2   -10.8382  -82.0192 -0.000222 -0.001506 -0.008079 -0.034050 -0.103837 -0.203255 -0.145650  0.272007  0.577965  0.285749
                                 0.036694 -0.000579  0.000199 -0.000083 -0.015986  0.000034

   3.2   2    -1.1261  -28.0372 -0.000072 -0.000488 -0.002601 -0.011110 -0.033712 -0.068016 -0.043849  0.109823  0.276977  0.074258
                                -0.496493 -0.548540 -0.057580  0.014810 -0.055709 -0.003285

   4.2   +    -0.1443   -8.0683 -0.000016 -0.000108 -0.000579 -0.002457 -0.007522 -0.015004 -0.010035  0.025864  0.060906  0.023254
                                -0.431359 -0.247011  0.332936  0.760937  0.305291  0.048493

   5.2   0     0.0383   -3.4699  0.000006  0.000041  0.000212  0.000934  0.002734  0.005831  0.003071 -0.007808 -0.027751  0.005100
                                -0.303313  0.016121  0.045012 -1.005664  0.380982  1.429708

   6.2   0     0.2447   -8.1885  0.000023  0.000153  0.000858  0.003457  0.011282  0.020410  0.018237 -0.047873 -0.060679 -0.111162
                                 3.344342  0.871099 -2.036025  1.906951 -3.337968 -0.688382

                                   1 2py     1 2py     1 2py     1 2py     1 2py     1 2py     1 2py     1 2py     1 2py     1 2py  
                                   1 2py     1 2py     1 2py     1 2py     1 2py     1 2py  

   1.3   2   -73.6843 -253.3011  0.000531  0.003568  0.019015  0.077860  0.227691  0.412550  0.355991  0.092921 -0.000529  0.003234
                                -0.017434 -0.000559  0.000119 -0.000054  0.016724  0.000018

   2.3   2   -10.8394  -82.0150 -0.000222 -0.001505 -0.008077 -0.034044 -0.103818 -0.203218 -0.145633  0.271900  0.577835  0.285923
                                 0.036932 -0.000562  0.000192 -0.000102 -0.016140  0.000033

   3.3   2    -1.1330  -27.9424 -0.000071 -0.000485 -0.002586 -0.011045 -0.033523 -0.067605 -0.043654  0.109262  0.274826  0.075121
                                -0.522909 -0.554060 -0.061822  0.012786 -0.021190 -0.003905

   4.3   0    -0.0024   -6.0402 -0.000011 -0.000073 -0.000393 -0.001668 -0.005103 -0.010185 -0.006798  0.017465  0.041306  0.015519
                                -0.276373 -0.160118  0.164947  0.457017  0.191854  0.545975

   5.3   0     0.0433   -4.7347 -0.000010 -0.000069 -0.000363 -0.001579 -0.004688 -0.009792 -0.005586  0.014229  0.044402 -0.001278
                                 0.274104 -0.062706 -0.046937  1.344750 -0.388653 -1.343849

                                   1 3d2-    1 3d2-    1 3d2-    1 3d2-    1 3d2-    1 3d2-    1 3d2-    1 3d2-    1 3d2-    1 3d2- 
                                   1 3d2-    1 3d2-    1 3d2- 

   1.4   2    -5.6222  -72.0885  0.002289  0.018867  0.081313  0.209076  0.338061  0.362094  0.216493  0.050003  0.002408 -0.000259
                                 0.000091 -0.004090 -0.000038

   2.4   0     0.0300   -5.0036 -0.000095 -0.000805 -0.003416 -0.009125 -0.013695 -0.015502  0.002588  0.024540  0.068633  0.224024
                                 0.079299  0.032969  0.843222

   3.4   0     0.0639   -7.4922  0.000186  0.001500  0.006679  0.016758  0.027988  0.024620  0.007215 -0.100867 -0.230934 -0.240275
                                -0.959577  0.034038  1.021975

                                   1 2pz     1 2pz     1 2pz     1 2pz     1 2pz     1 2pz     1 2pz     1 2pz     1 2pz     1 2pz  
                                   1 2pz     1 2pz     1 2pz     1 2pz     1 2pz     1 2pz  

   1.5   2   -73.6843 -253.3011  0.000531  0.003568  0.019015  0.077860  0.227691  0.412550  0.355991  0.092921 -0.000529  0.003234
                                -0.017434 -0.000559  0.000119 -0.000054  0.016724  0.000018

   2.5   2   -10.8394  -82.0150 -0.000222 -0.001505 -0.008077 -0.034044 -0.103818 -0.203218 -0.145633  0.271900  0.577835  0.285923
                                 0.036932 -0.000562  0.000192 -0.000102 -0.016140  0.000033

   3.5   2    -1.1330  -27.9424 -0.000071 -0.000485 -0.002586 -0.011045 -0.033523 -0.067605 -0.043654  0.109262  0.274826  0.075121
                                -0.522909 -0.554060 -0.061822  0.012786 -0.021190 -0.003905

   4.5   0    -0.0024   -6.0402 -0.000011 -0.000073 -0.000393 -0.001668 -0.005103 -0.010185 -0.006798  0.017465  0.041306  0.015519
                                -0.276373 -0.160118  0.164947  0.457017  0.191854  0.545975

   5.5   0     0.0433   -4.7347 -0.000010 -0.000069 -0.000363 -0.001579 -0.004688 -0.009792 -0.005586  0.014229  0.044402 -0.001278
                                 0.274104 -0.062706 -0.046937  1.344750 -0.388653 -1.343849

                                   1 3d1+    1 3d1+    1 3d1+    1 3d1+    1 3d1+    1 3d1+    1 3d1+    1 3d1+    1 3d1+    1 3d1+ 
                                   1 3d1+    1 3d1+    1 3d1+ 

   1.6   2    -5.6222  -72.0885  0.002289  0.018867  0.081313  0.209076  0.338061  0.362094  0.216493  0.050003  0.002408 -0.000259
                                 0.000091 -0.004090 -0.000038

   2.6   0     0.0300   -5.0036 -0.000095 -0.000805 -0.003416 -0.009125 -0.013695 -0.015502  0.002588  0.024540  0.068633  0.224024
                                 0.079299  0.032969  0.843222

   3.6   0     0.0639   -7.4922  0.000186  0.001500  0.006679  0.016758  0.027988  0.024620  0.007215 -0.100867 -0.230934 -0.240275
                                -0.959577  0.034038  1.021975

                                   1 3d1-    1 3d1-    1 3d1-    1 3d1-    1 3d1-    1 3d1-    1 3d1-    1 3d1-    1 3d1-    1 3d1- 
                                   1 3d1-    1 3d1-    1 3d1- 

   1.7   2    -5.6236  -72.0866  0.002289  0.018865  0.081304  0.209053  0.338019  0.362083  0.216557  0.050041  0.002438 -0.000237
                                 0.000095 -0.004078 -0.000038

   2.7   0     0.0313   -4.1914 -0.000071 -0.000606 -0.002545 -0.006886 -0.010103 -0.012010  0.002933  0.014140  0.045073  0.175880
                                -0.068820  0.032435  0.990855

   3.7   0     0.0664   -8.5865  0.000210  0.001702  0.007548  0.019031  0.031530  0.028298  0.007130 -0.109916 -0.257128 -0.272882
                                -0.940754  0.030739  0.869721

 HOMO      4.2    -0.144320 =      -3.9272eV
 LUMO      4.3    -0.002432 =      -0.0662eV
 LUMO-HOMO         0.141888 =       3.8610eV


 **********************************************************************************************************************************
 DATASETS  * FILE   NREC   LENGTH (MB)   RECORD NAMES
              1      22       20.15       500      610      700      900      950      970     1000      129      960     1700   
                                          VAR    BASINP    GEOM    SYMINP    ZMAT    AOBASIS   BASIS     P2S    ABASIS    OPER   
                                         1101     1401     1411     1412     1650     1100     1400     1410     1200     1210   
                                          SR      EKINR    POTR     PVPR    MOLCAS      S      EKIN      POT      H0       H01  
                                         1080     1600   
                                         AOSYM     SMH  

              2       5        5.46       200      700     1000      520     4202   
                                        OPTIONS   GEOM     BASIS   MCVARS     RHF  

 PROGRAMS   *        TOTAL       RHF  RCCSD(T)       RHF       INT
 CPU TIMES  *         6.23      0.75      0.78      0.22      4.28
 REAL TIME  *        15.73 SEC
 DISK USED  *       333.53 MB      
 SF USED    *        34.96 MB      
 GA USED    *         0.00 MB       (max)       0.00 MB       (current)
 **********************************************************************************************************************************


 PROGRAM * POP (Mulliken population analysis)

 
 Density matrix read from record         4202.2  Type=RHF/CHARGE (state 1.2)
 
 Population analysis by basis function type

 Unique atom        s        p        d        f        g    Total    Charge
   1  SR      8.98091 19.00000 10.01909  0.00000  0.00000 38.00000  + 0.00000


 **********************************************************************************************************************************
 DATASETS  * FILE   NREC   LENGTH (MB)   RECORD NAMES
              1      22       20.15       500      610      700      900      950      970     1000      129      960     1700   
                                          VAR    BASINP    GEOM    SYMINP    ZMAT    AOBASIS   BASIS     P2S    ABASIS    OPER   
                                         1101     1401     1411     1412     1650     1100     1400     1410     1200     1210   
                                          SR      EKINR    POTR     PVPR    MOLCAS      S      EKIN      POT      H0       H01  
                                         1080     1600   
                                         AOSYM     SMH  

              2       5        5.46       200      700     1000      520     4202   
                                        OPTIONS   GEOM     BASIS   MCVARS     RHF  

 PROGRAMS   *        TOTAL       POP       RHF  RCCSD(T)       RHF       INT
 CPU TIMES  *         6.24      0.01      0.75      0.78      0.22      4.28
 REAL TIME  *        15.75 SEC
 DISK USED  *       333.53 MB      
 SF USED    *        34.96 MB      
 GA USED    *         0.00 MB       (max)       0.00 MB       (current)
 **********************************************************************************************************************************


 PROGRAM * MULTI (Direct Multiconfiguration SCF)       Authors: P.J. Knowles, H.-J. Werner (1984)     S.T. Elbert (1988)


 Number of closed-shell orbitals:  18 (   6   3   3   1   3   1   1   0 )
 Number of active  orbitals:        4 (   1   1   1   0   1   0   0   0 )
 Number of external orbitals:     113 (  41  12  12  12  12  12  12   0 )

 State symmetry 1

 Orbital occupancy restrictions for symmetry 2
  1      1       2000                            

 Number of electrons:     2    Spin symmetry=Triplet   Space symmetry=2
 Number of states:        1
 Number of CSFs:          1

 State symmetry 2

 Orbital occupancy restrictions for symmetry 3
  1      1       2000                            

 Number of electrons:     2    Spin symmetry=Triplet   Space symmetry=3
 Number of states:        1
 Number of CSFs:          1

 State symmetry 3

 Orbital occupancy restrictions for symmetry 5
  1      1       2000                            

 Number of electrons:     2    Spin symmetry=Triplet   Space symmetry=5
 Number of states:        1
 Number of CSFs:          1
 
 Maximum number of shells:             1
 Maximum number of spin couplings:     1

 Storage for configuration lists      14, coupling coefficients      2, address lists     69

 Molecular orbitals read from record     4202.2  Type=RHF/CANONICAL (state 1.2)
 *** IN SYMMETRY 1 ORBITAL  3 SYMMETRY CONTAMINATION OF 0.118D-03 HAS BEEN REMOVED
 *** IN SYMMETRY 1 ORBITAL  4 SYMMETRY CONTAMINATION OF 0.368D+00 HAS BEEN REMOVED
 *** IN SYMMETRY 1 ORBITAL  5 SYMMETRY CONTAMINATION OF 0.366D+00 HAS BEEN REMOVED
 *** IN SYMMETRY 1 ORBITAL  6 SYMMETRY CONTAMINATION OF 0.280D-02 HAS BEEN REMOVED
 *** IN SYMMETRY 1 ORBITAL  7 SYMMETRY CONTAMINATION OF 0.778D-01 HAS BEEN REMOVED

 EXTRA SYMMETRY OF MOS IN SYMMETRY 1:   1 1 1 3 2 1 1 1 3 2   3 2 1 2 3 2 3 1 2 3   1 2 3 2 3 1 2 3 2 3   1 2 3 1 2 3 1 2 3 1
                                        1 1 1 1 1 1 1 1

 Wavefunction dump at record             5202.2

 Convergence thresholds  0.10E-01 (gradient)  0.10E-05 (energy)  0.10E-02 (step length)

 Weight factors for state symmetry  1:    0.33333
 Weight factors for state symmetry  2:    0.33333
 Weight factors for state symmetry  3:    0.33333

 Number of orbital rotations:      482   (    15 Core/Active    390 Core/Virtual   0 Active/Active     77 Active/Virtual)
 Total number of variables:        485


 ITER. MIC  NCI  NEG     ENERGY(VAR)     ENERGY(PROJ)   ENERGY CHANGE     GRAD(0)  GRAD(ORB)   GRAD(CI)     STEP       TIME

   1   25   21    0   -3177.30469083   -3177.31385264   -0.00916182    0.02197825 0.00000000 0.00000000  0.54D+00      0.17
   2   17   24    0   -3177.31384615   -3177.31384799   -0.00000184    0.00125178 0.00000000 0.00000000  0.26D-02      0.34
   3   16   15    0   -3177.31384799   -3177.31384799   -0.00000000    0.00000051 0.00000000 0.00000000  0.30D-05      0.45

 ** WVFN ****  CONVERGENCE REACHED, FINAL GRADIENT:  0.16D-10



 Results for state 1.2
 =====================

 !MCSCF STATE 1.2 Energy            -3177.313847986380
 Nuclear energy                         0.00000000
 Kinetic energy                      3455.08517340
 One electron energy                -4395.26634255
 Two electron energy                 1217.95249456
 Virial ratio                           1.91960507

 !MCSCF STATE 1.2 Dipole moment         0.00000000     0.00000000     0.00000000
 Dipole moment /Debye                   0.00000000     0.00000000     0.00000000



 Results for state 1.3
 =====================

 !MCSCF STATE 1.3 Energy            -3177.313847986380
 Nuclear energy                         0.00000000
 Kinetic energy                      3455.08517340
 One electron energy                -4395.26634255
 Two electron energy                 1217.95249456
 Virial ratio                           1.91960507

 !MCSCF STATE 1.3 Dipole moment         0.00000000     0.00000000     0.00000000
 Dipole moment /Debye                   0.00000000     0.00000000     0.00000000



 Results for state 1.5
 =====================

 !MCSCF STATE 1.5 Energy            -3177.313847986377
 Nuclear energy                         0.00000000
 Kinetic energy                      3455.08517340
 One electron energy                -4395.26634255
 Two electron energy                 1217.95249456
 Virial ratio                           1.91960507

 !MCSCF STATE 1.5 Dipole moment         0.00000000     0.00000000     0.00000000
 Dipole moment /Debye                   0.00000000     0.00000000     0.00000000

 State-averaged charge density matrix saved on record  5202.2 (density set 1)


 NATURAL ORBITALS (state averaged)
 =================================

   Orb     Occ        Energy       Coefficients

                                   1 1s      1 1s      1 1s      1 1s      1 1s      1 1s      1 1s      1 1s      1 1s      1 1s   
                                   1 1s      1 1s      1 1s      1 1s      1 1s      1 1s      1 1s      1 1s      1 1s      1 1s   
                                   1 1s      1 1s      1 3d0     1 3d2+    1 3d0     1 3d2+    1 3d0     1 3d2+    1 3d0     1 3d2+ 
                                   1 3d0     1 3d2+    1 3d0     1 3d2+    1 3d0     1 3d2+    1 3d0     1 3d2+    1 3d0     1 3d2+ 
                                   1 3d0     1 3d2+    1 3d0     1 3d2+    1 3d0     1 3d2+    1 3d0     1 3d2+ 

   1.1  2.00000  -595.279965     0.000135  0.000418  0.001202  0.003145  0.007966  0.020057  0.050400  0.120805  0.249508  0.370329
                                 0.287650  0.060556 -0.006097  0.003041 -0.001435  0.000826 -0.008357 -0.000247  0.000040 -0.000029
                                 0.008313  0.000010 -0.000000 -0.000000 -0.000000 -0.000000 -0.000000 -0.000000 -0.000000 -0.000000
                                -0.000000 -0.000000 -0.000000 -0.000000 -0.000000 -0.000000 -0.000000 -0.000000 -0.000000 -0.000000
                                 0.000000  0.000000 -0.000000 -0.000000  0.000000  0.000000  0.000000  0.000000

   2.1  2.00000   -83.145187    -0.000044 -0.000137 -0.000394 -0.001035 -0.002637 -0.006725 -0.017276 -0.043561 -0.099674 -0.185617
                                -0.198134  0.135133  0.600530  0.398194  0.041246 -0.005676  0.047835  0.001327 -0.000213  0.000156
                                -0.047456 -0.000052  0.000000  0.000000  0.000000  0.000000  0.000000  0.000000  0.000000  0.000000
                                 0.000000  0.000000  0.000000  0.000000  0.000000  0.000000  0.000000  0.000000  0.000000  0.000000
                                -0.000000 -0.000000  0.000000  0.000000 -0.000000 -0.000000 -0.000000 -0.000000

   3.1  2.00000   -13.990623     0.000018  0.000056  0.000162  0.000425  0.001082  0.002770  0.007110  0.018153  0.041800  0.081373
                                 0.089907 -0.071733 -0.466457 -0.371270  0.631810  0.656251  0.333906  0.002204  0.000187 -0.000167
                                -0.294346  0.000058 -0.000000 -0.000000 -0.000000 -0.000000 -0.000000 -0.000000 -0.000000 -0.000000
                                -0.000000 -0.000000 -0.000000 -0.000000 -0.000000 -0.000000 -0.000000 -0.000000 -0.000000 -0.000000
                                 0.000000  0.000000 -0.000000 -0.000000  0.000000  0.000000  0.000000  0.000000

   4.1  2.00000    -5.623852    -0.000000 -0.000000 -0.000000 -0.000000 -0.000000 -0.000000 -0.000000 -0.000000 -0.000000 -0.000000
                                -0.000000  0.000000  0.000000  0.000000 -0.000000 -0.000000 -0.000000 -0.000000 -0.000000  0.000000
                                 0.000000 -0.000000  0.002289 -0.000000  0.018866 -0.000000  0.081310 -0.000000  0.209068 -0.000000
                                 0.338047 -0.000000  0.362090 -0.000000  0.216515 -0.000000  0.050017 -0.000000  0.002418 -0.000000
                                -0.000251  0.000000  0.000092 -0.000000 -0.004089  0.000000 -0.000038  0.000000

   5.1  2.00000    -5.623852    -0.000000 -0.000000 -0.000000 -0.000000 -0.000000 -0.000000 -0.000000 -0.000000 -0.000000 -0.000000
                                -0.000000  0.000000  0.000000  0.000000 -0.000000  0.000000 -0.000000 -0.000000 -0.000000  0.000000
                                 0.000000 -0.000000 -0.000000  0.002289 -0.000000  0.018866 -0.000000  0.081310 -0.000000  0.209068
                                -0.000000  0.338047 -0.000000  0.362090 -0.000000  0.216515 -0.000000  0.050017 -0.000000  0.002418
                                 0.000000 -0.000251 -0.000000  0.000092  0.000000 -0.004089  0.000000 -0.000038

   6.1  2.00000    -1.983285    -0.000006 -0.000020 -0.000057 -0.000151 -0.000384 -0.000984 -0.002530 -0.006452 -0.014944 -0.029101
                                -0.032815  0.027592  0.182228  0.159163 -0.351803 -0.582869  0.518085  0.614032  0.026294 -0.013685
                                 0.150039  0.004308  0.000000  0.000000  0.000000  0.000000  0.000000  0.000000  0.000000  0.000000
                                 0.000000  0.000000  0.000000  0.000000  0.000000  0.000000  0.000000  0.000000  0.000000  0.000000
                                -0.000000 -0.000000  0.000000  0.000000 -0.000000 -0.000000 -0.000000 -0.000000

   7.1  1.00000    -0.120786     0.000002  0.000005  0.000015  0.000040  0.000103  0.000263  0.000677  0.001728  0.004001  0.007802
                                 0.008800 -0.007425 -0.049448 -0.043541  0.099541  0.179159 -0.591345 -0.456474  0.804582  0.395330
                                 0.369633 -0.010326 -0.000000 -0.000000 -0.000000 -0.000000 -0.000000 -0.000000 -0.000000 -0.000000
                                -0.000000 -0.000000 -0.000000 -0.000000 -0.000000 -0.000000 -0.000000 -0.000000 -0.000000 -0.000000
                                 0.000000  0.000000 -0.000000 -0.000000  0.000000  0.000000  0.000000  0.000000

                                   1 2px     1 2px     1 2px     1 2px     1 2px     1 2px     1 2px     1 2px     1 2px     1 2px  
                                   1 2px     1 2px     1 2px     1 2px     1 2px     1 2px  

   1.2  2.00000   -73.685415     0.000531  0.003568  0.019015  0.077861  0.227692  0.412552  0.355989  0.092918 -0.000530  0.003234
                                -0.017432 -0.000559  0.000119 -0.000054  0.016722  0.000018

   2.2  2.00000   -10.840164    -0.000222 -0.001505 -0.008078 -0.034046 -0.103824 -0.203230 -0.145639  0.271936  0.577876  0.285865
                                 0.036872 -0.000567  0.000192 -0.000100 -0.016105  0.000033

   3.2  2.00000    -1.131719    -0.000071 -0.000486 -0.002591 -0.011064 -0.033577 -0.067724 -0.043707  0.109419  0.275470  0.074811
                                -0.513697 -0.551903 -0.060819  0.012512 -0.032965 -0.003759

   4.2  0.33333     0.006432    -0.000016 -0.000109 -0.000584 -0.002478 -0.007583 -0.015134 -0.010103  0.026010  0.061469  0.023113
                                -0.420864 -0.244622  0.317677  0.763396  0.293775  0.060610

                                   1 2py     1 2py     1 2py     1 2py     1 2py     1 2py     1 2py     1 2py     1 2py     1 2py  
                                   1 2py     1 2py     1 2py     1 2py     1 2py     1 2py  

   1.3  2.00000   -73.685415     0.000531  0.003568  0.019015  0.077861  0.227692  0.412552  0.355989  0.092918 -0.000530  0.003234
                                -0.017432 -0.000559  0.000119 -0.000054  0.016722  0.000018

   2.3  2.00000   -10.840164    -0.000222 -0.001505 -0.008078 -0.034046 -0.103824 -0.203230 -0.145639  0.271936  0.577876  0.285865
                                 0.036872 -0.000567  0.000192 -0.000100 -0.016105  0.000033

   3.3  2.00000    -1.131719    -0.000071 -0.000486 -0.002591 -0.011064 -0.033577 -0.067724 -0.043707  0.109419  0.275470  0.074811
                                -0.513697 -0.551903 -0.060819  0.012512 -0.032965 -0.003759

   4.3  0.33333     0.006432    -0.000016 -0.000109 -0.000584 -0.002478 -0.007583 -0.015134 -0.010103  0.026010  0.061469  0.023113
                                -0.420864 -0.244622  0.317677  0.763396  0.293775  0.060610

                                   1 3d2-    1 3d2-    1 3d2-    1 3d2-    1 3d2-    1 3d2-    1 3d2-    1 3d2-    1 3d2-    1 3d2- 
                                   1 3d2-    1 3d2-    1 3d2- 

   1.4  2.00000    -5.623852     0.002289  0.018866  0.081310  0.209068  0.338047  0.362090  0.216515  0.050017  0.002418 -0.000251
                                 0.000092 -0.004089 -0.000038

                                   1 2pz     1 2pz     1 2pz     1 2pz     1 2pz     1 2pz     1 2pz     1 2pz     1 2pz     1 2pz  
                                   1 2pz     1 2pz     1 2pz     1 2pz     1 2pz     1 2pz  

   1.5  2.00000   -73.685415     0.000531  0.003568  0.019015  0.077861  0.227692  0.412552  0.355989  0.092918 -0.000530  0.003234
                                -0.017432 -0.000559  0.000119 -0.000054  0.016722  0.000018

   2.5  2.00000   -10.840164    -0.000222 -0.001505 -0.008078 -0.034046 -0.103824 -0.203230 -0.145639  0.271936  0.577876  0.285865
                                 0.036872 -0.000567  0.000192 -0.000100 -0.016105  0.000033

   3.5  2.00000    -1.131719    -0.000071 -0.000486 -0.002591 -0.011064 -0.033577 -0.067724 -0.043707  0.109419  0.275470  0.074811
                                -0.513697 -0.551903 -0.060819  0.012512 -0.032965 -0.003759

   4.5  0.33333     0.006432    -0.000016 -0.000109 -0.000584 -0.002478 -0.007583 -0.015134 -0.010103  0.026010  0.061469  0.023113
                                -0.420864 -0.244622  0.317677  0.763396  0.293775  0.060610

                                   1 3d1+    1 3d1+    1 3d1+    1 3d1+    1 3d1+    1 3d1+    1 3d1+    1 3d1+    1 3d1+    1 3d1+ 
                                   1 3d1+    1 3d1+    1 3d1+ 

   1.6  2.00000    -5.623852     0.002289  0.018866  0.081310  0.209068  0.338047  0.362090  0.216515  0.050017  0.002418 -0.000251
                                 0.000092 -0.004089 -0.000038

                                   1 3d1-    1 3d1-    1 3d1-    1 3d1-    1 3d1-    1 3d1-    1 3d1-    1 3d1-    1 3d1-    1 3d1- 
                                   1 3d1-    1 3d1-    1 3d1- 

   1.7  2.00000    -5.623852     0.002289  0.018866  0.081310  0.209068  0.338047  0.362090  0.216515  0.050017  0.002418 -0.000251
                                 0.000092 -0.004089 -0.000038
 

 EXTRA SYMMETRY OF MOS IN SYMMETRY 1:   1 1 1 2 3 1 1 1 2 3   3 2 1 2 3 3 2 1 3 2   1 3 2 3 2 1 3 2 2 3   1 2 3 1 2 3 1 3 2 1
                                        1 1 1 1 1 1 1 1

 Natural orbital dump (state averaged) at molpro section  5202.2    (Orbital set 2)


 CI vector for state symmetry 1
 ==============================

 / / 0 0          1.0000000

 CI vector for state symmetry 2
 ==============================

 / 0 / 0          1.0000000

 CI vector for state symmetry 3
 ==============================

 / 0 0 /          1.0000000


 **********************************************************************************************************************************
 DATASETS  * FILE   NREC   LENGTH (MB)   RECORD NAMES
              1      23       27.93       500      610      700      900      950      970     1000      129      960     1700   
                                          VAR    BASINP    GEOM    SYMINP    ZMAT    AOBASIS   BASIS     P2S    ABASIS    OPER   
                                         1101     1401     1411     1412     1650     1100     1400     1410     1200     1210   
                                          SR      EKINR    POTR     PVPR    MOLCAS      S      EKIN      POT      H0       H01  
                                         1080     1600     1380   
                                         AOSYM     SMH     JKOP   

              2       6        8.08       200      700     1000      520     4202     5202   
                                        OPTIONS   GEOM     BASIS   MCVARS     RHF     MCSCF   

 PROGRAMS   *        TOTAL     MULTI       POP       RHF  RCCSD(T)       RHF       INT
 CPU TIMES  *         7.03      0.79      0.01      0.75      0.78      0.22      4.28
 REAL TIME  *        18.71 SEC
 DISK USED  *       333.53 MB      
 SF USED    *        40.42 MB      
 GA USED    *         0.00 MB       (max)       0.00 MB       (current)
 **********************************************************************************************************************************


 PROGRAM * RHF-SCF (OPEN SHELL)       Authors: W. Meyer, H.-J. Werner


 NUMBER OF ELECTRONS:      20+   18-    SPACE SYMMETRY=2    SPIN SYMMETRY: Triplet 
 CONVERGENCE THRESHOLDS:    1.00E-05 (Density)    1.00E-07 (Energy)
 MAX. NUMBER OF ITERATIONS:        0
 INTERPOLATION TYPE:            DIIS
 INTERPOLATION STEPS:              2 (START)      1 (STEP)
 LEVEL SHIFTS:                 -0.60 (CLOSED) -0.30 (OPEN) 


 Singly occupied orbitals:      7.1       4.2
 Molecular orbitals read from record     5202.2  Type=MCSCF/NATURAL  

 Molecular orbital dump at record        2102.2

 ITERATION    DDIFF          GRAD             ENERGY        2-EL.EN.            DIPOLE MOMENTS         DIIS   ORB.
    1      0.000D+00      0.000D+00     -3177.31384799   2435.904989    0.00000    0.00000    0.00000    0    start

 Final alpha occupancy:   7   4   3   1   3   1   1
 Final beta  occupancy:   6   3   3   1   3   1   1

 !RHF STATE 1.2 Energy              -3177.313847986381
 Nuclear energy                         0.00000000
 One-electron energy                -4395.26634255
 Two-electron energy                 1217.95249456
 Virial quotient                       -0.91960507
 !RHF STATE 1.2 Dipole moment           0.00000000     0.00000000     0.00000000
 Dipole moment /Debye                   0.00000000     0.00000000     0.00000000

 Orbital energies:

         1.1          2.1          3.1          4.1          5.1          6.1          7.1          8.1          9.1
   -595.279965   -83.145187   -13.990623    -5.623852    -5.623852    -1.983285    -0.120786     0.023033     0.035242

         1.2          2.2          3.2          4.2          5.2          6.2
    -73.685415   -10.840164    -1.131719     0.006432     0.039956     0.257441

         1.3          2.3          3.3          4.3          5.3
    -73.685415   -10.840164    -1.131719     0.006432     0.039956

         1.4          2.4          3.4
     -5.623852     0.035242     0.076865

         1.5          2.5          3.5          4.5          5.5
    -73.685415   -10.840164    -1.131719     0.006432     0.039956

         1.6          2.6          3.6
     -5.623852     0.035242     0.076865

         1.7          2.7          3.7
     -5.623852     0.035242     0.076865

 HOMO      4.2     0.006432 =       0.1750eV
 LUMO      4.3     0.006432 =       0.1750eV
 LUMO-HOMO         0.000000 =       0.0000eV


 **********************************************************************************************************************************
 DATASETS  * FILE   NREC   LENGTH (MB)   RECORD NAMES
              1      23       27.93       500      610      700      900      950      970     1000      129      960     1700   
                                          VAR    BASINP    GEOM    SYMINP    ZMAT    AOBASIS   BASIS     P2S    ABASIS    OPER   
                                         1101     1401     1411     1412     1650     1100     1400     1410     1200     1210   
                                          SR      EKINR    POTR     PVPR    MOLCAS      S      EKIN      POT      H0       H01  
                                         1080     1600     1380   
                                         AOSYM     SMH     JKOP   

              2       7       10.74       200      700     1000      520     4202     5202     2102   
                                        OPTIONS   GEOM     BASIS   MCVARS     RHF     MCSCF     RHF  

 PROGRAMS   *        TOTAL       RHF     MULTI       POP       RHF  RCCSD(T)       RHF       INT
 CPU TIMES  *         7.09      0.05      0.79      0.01      0.75      0.78      0.22      4.28
 REAL TIME  *        18.91 SEC
 DISK USED  *       333.53 MB      
 SF USED    *        40.42 MB      
 GA USED    *         0.00 MB       (max)       0.00 MB       (current)
 **********************************************************************************************************************************
 SETTING SCF(2)         =     -3177.31384799  AU                              
 SETTING _CC_NORM_MAX   =         2.00000000                                  


 PROGRAM * CCSD (Restricted open-shell coupled cluster)     Authors: C. Hampel, H.-J. Werner, 1991, M. Deegan, P.J. Knowles, 1992


 Convergence thresholds:  THRVAR = 1.00D-08  THRDEN = 1.00D-06

 CCSD(T)     terms to be evaluated (factor= 1.000)


 Number of core orbitals:          14 (   5   2   2   1   2   1   1 )
 Number of closed-shell orbitals:   4 (   1   1   1   0   1   0   0 )
 Number of active  orbitals:        2 (   1   1   0   0   0   0   0 )
 Number of external orbitals:     115 (  41  12  13  12  13  12  12 )

 Memory could be reduced to 3.53 Mwords without degradation in triples

 Number of N-1 electron functions:              10
 Number of N-2 electron functions:              45
 Number of singly external CSFs:               217
 Number of doubly external CSFs:             65010
 Total number of CSFs:                       65227

 Molecular orbitals read from record     2102.2  Type=RHF/CANONICAL (state 1.2)

 Integral transformation finished. Total CPU:   0.16 sec, npass=  1  Memory used:   0.57 MW

 Starting RMP2 calculation

 Wavefunction is spin-projected

 ITER.      SQ.NORM     CORR.ENERGY   TOTAL ENERGY   ENERGY CHANGE        DEN1      VAR(S)    VAR(P)  DIIS     TIME
   1      1.05258475    -0.16741664 -3177.48126462    -0.16741664    -0.00067561  0.18D-03  0.30D-03  1  1     0.20
   2      1.05391201    -0.16814702 -3177.48199501    -0.00073039    -0.00001304  0.17D-04  0.77D-05  2  2     0.20
   3      1.05427305    -0.16820904 -3177.48205703    -0.00006202    -0.00000015  0.22D-06  0.50D-07  3  3     0.20
   4      1.05430215    -0.16821195 -3177.48205994    -0.00000291    -0.00000000  0.31D-08  0.12D-08  4  4     0.20
   5      1.05430438    -0.16821223 -3177.48206021    -0.00000028    -0.00000000  0.29D-10  0.12D-10  5  5     0.28

 Norm of t1 vector:      0.05842153      S-energy:    -0.00117925      T1 diagnostic:  0.01293066
 Norm of t2 vector:      0.22559102      P-energy:    -0.16703297
                                         Alpha-Beta:  -0.11751319
                                         Alpha-Alpha: -0.02953200
                                         Beta-Beta:   -0.01998779

 Spin contamination <S**2-Sz**2-Sz>     0.00000000
  Reference energy                  -3177.313847986381
  RHF-RMP2 correlation energy          -0.168212226296
 !RHF-RMP2 energy                   -3177.482060212677
 (NB above energy spin projected)

 Starting RCCSD calculation

 ITER.      SQ.NORM     CORR.ENERGY   TOTAL ENERGY   ENERGY CHANGE        DEN1      VAR(S)    VAR(P)  DIIS     TIME
   1      1.05840535    -0.17450243 -3177.48835042    -0.17450243    -0.00299135  0.70D-03  0.11D-02  1  1     0.33
   2      1.06490647    -0.17774849 -3177.49159648    -0.00324606    -0.00027113  0.20D-03  0.18D-03  2  2     0.36
   3      1.06965454    -0.17854712 -3177.49239511    -0.00079863    -0.00005307  0.39D-04  0.49D-04  3  3     0.38
   4      1.07335938    -0.17890323 -3177.49275122    -0.00035611    -0.00000885  0.30D-05  0.10D-04  4  4     0.42
   5      1.07512514    -0.17902134 -3177.49286933    -0.00011811    -0.00000207  0.11D-05  0.20D-05  5  5     0.54
   6      1.07562872    -0.17903499 -3177.49288298    -0.00001365    -0.00000034  0.25D-06  0.27D-06  6  6     0.57
   7      1.07568642    -0.17903468 -3177.49288267     0.00000031    -0.00000005  0.46D-07  0.37D-07  6  1     0.60
   8      1.07568685    -0.17903539 -3177.49288338    -0.00000071    -0.00000001  0.12D-07  0.62D-08  6  2     0.63
   9      1.07567567    -0.17903471 -3177.49288270     0.00000068    -0.00000000  0.24D-08  0.53D-09  6  3     0.67

 Norm of t1 vector:      0.10018444      S-energy:    -0.00166129      T1 diagnostic:  0.02229224
                                                                       D1 diagnostic:  0.06831092
 Norm of t2 vector:      0.25620060      P-energy:    -0.17737343
                                         Alpha-Beta:  -0.12790659
                                         Alpha-Alpha: -0.03027306
                                         Beta-Beta:   -0.01919378

 Singles amplitudes (print threshold =  0.500E-01):

         I         SYM. A    A   T(IA) [Alpha-Alpha]

         2         1         5     -0.06131662

 Doubles amplitudes (print threshold =  0.500E-01):

         I         J         SYM. A    SYM. B    A         B      T(IJ, AB) [Alpha-Alpha]

         4         2         3         4         1         2     -0.05766752
         4         2         4         3         2         1      0.05766752
         4         2         5         6         1         2     -0.05766792
         4         2         6         5         2         1      0.05766792

 Spin contamination <S**2-Sz**2-Sz>     0.00000000

 Memory could be reduced to 3.59 Mwords without degradation in triples
 

  Correlated core orbitals:             6.1       3.2       3.3       3.5
  Orbital energies:                    -1.9892   -1.1346   -1.1364   -1.1364
 
  RCCSD core-core energy               -0.154784167884
  RCCSD core-valence energy            -0.019628436010
  RCCSD valence correlation energy     -0.004622110414
 

 RESULTS
 =======

  Reference energy                  -3177.313847986381
  RCCSD singles energy                 -0.001661286036
  RCCSD pair energy                    -0.177373428273
  RCCSD correlation energy             -0.179034714309
  Triples (T) contribution             -0.002745005702
  Total correlation energy             -0.181779720010
 
  RHF-RCCSD energy                  -3177.492882700690
  RHF-RCCSD[T] energy               -3177.495657991909
  RHF-RCCSD-T energy                -3177.495615355788
 !RHF-RCCSD(T) energy               -3177.495627706392

 Program statistics:

 Available memory in ccsd:               511999552
 Min. memory needed in ccsd:                268054
 Max. memory used in ccsd:                  334948
 Max. memory used in cckext:                356844 ( 9 integral passes)
 Max. memory used in cckint:                570467 ( 1 integral passes)



 **********************************************************************************************************************************
 DATASETS  * FILE   NREC   LENGTH (MB)   RECORD NAMES
              1      23       27.93       500      610      700      900      950      970     1000      129      960     1700   
                                          VAR    BASINP    GEOM    SYMINP    ZMAT    AOBASIS   BASIS     P2S    ABASIS    OPER   
                                         1101     1401     1411     1412     1650     1100     1400     1410     1200     1210   
[...]

   3.1   2   -14.4508  -88.4954  0.000018  0.000056  0.000162  0.000425  0.001082  0.002770  0.007110  0.018152  0.041799  0.081370
                                 0.089905 -0.071734 -0.466424 -0.371277  0.631700  0.656404  0.332812  0.002181  0.000194 -0.000165
                                -0.293302  0.000058  0.000000  0.000000 -0.000000  0.000000  0.000000  0.000000 -0.000000  0.000000
                                 0.000000  0.000000 -0.000000  0.000000  0.000000 -0.000000 -0.000000  0.000000 -0.000000  0.000000
                                 0.000000 -0.000000 -0.000000  0.000000  0.000000 -0.000000  0.000000 -0.000000

   4.1   2    -6.0849  -72.5564 -0.000000 -0.000000 -0.000000  0.000000  0.000000  0.000000  0.000000  0.000000 -0.000000 -0.000000
                                 0.000000 -0.000000  0.000000 -0.000000  0.000000 -0.000000  0.000000  0.000000 -0.000000  0.000000
                                -0.000000 -0.000000  0.000007  0.002290  0.000060  0.018870  0.000257  0.081325  0.000661  0.209110
                                 0.001068  0.338091  0.001144  0.362158  0.000684  0.216420  0.000157  0.049788  0.000008  0.002396
                                -0.000001 -0.000232  0.000000  0.000092 -0.000013 -0.004030 -0.000000 -0.000037

   5.1   2    -6.0849  -72.5564  0.000000  0.000000  0.000000 -0.000000  0.000000 -0.000000  0.000000 -0.000000  0.000000 -0.000000
                                 0.000000 -0.000000  0.000000 -0.000000  0.000000 -0.000000  0.000000  0.000000 -0.000000  0.000000
                                -0.000000 -0.000000  0.002290 -0.000007  0.018870 -0.000060  0.081325 -0.000257  0.209110 -0.000661
                                 0.338091 -0.001068  0.362158 -0.001144  0.216420 -0.000684  0.049788 -0.000157  0.002396 -0.000008
                                -0.000232  0.000001  0.000092 -0.000000 -0.004030  0.000013 -0.000037  0.000000

   6.1   2    -2.4338  -32.8151 -0.000006 -0.000020 -0.000057 -0.000151 -0.000385 -0.000984 -0.002532 -0.006455 -0.014952 -0.029114
                                -0.032838  0.027625  0.182274  0.159324 -0.352115 -0.582875  0.492903  0.614884  0.022084 -0.012194
                                 0.176146  0.003681  0.000000  0.000000  0.000000 -0.000000  0.000000  0.000000  0.000000 -0.000000
                                -0.000000  0.000000  0.000000 -0.000000 -0.000000  0.000000  0.000000 -0.000000  0.000000 -0.000000
                                -0.000000  0.000000  0.000000 -0.000000 -0.000000  0.000000  0.000000 -0.000000

   7.1   0    -0.3828  -11.1944  0.000002  0.000006  0.000017  0.000045  0.000115  0.000293  0.000755  0.001920  0.004465  0.008653
                                 0.009884 -0.008530 -0.054430 -0.049701  0.113989  0.193712 -0.098393 -0.461302  1.089102  0.106113
                                -0.189985  0.008824  0.000000  0.000000 -0.000000  0.000000  0.000000  0.000000 -0.000000  0.000000
                                 0.000000  0.000000 -0.000000 -0.000000  0.000000  0.000000 -0.000000  0.000000 -0.000000 -0.000000
                                 0.000000  0.000000 -0.000000  0.000000  0.000000  0.000000  0.000000 -0.000000

   8.1   0    -0.3064  -14.7403 -0.000000 -0.000000 -0.000000 -0.000000 -0.000000 -0.000000 -0.000000  0.000000 -0.000000  0.000000
                                -0.000000  0.000000 -0.000000  0.000000 -0.000000  0.000000 -0.000000 -0.000000  0.000000 -0.000000
                                 0.000000  0.000000 -0.000357  0.000064 -0.002933  0.000522 -0.012817  0.002282 -0.032956  0.005868
                                -0.052803  0.009402 -0.051279  0.009131 -0.003995  0.000711  0.159418 -0.028385  0.401139 -0.071425
                                 0.538984 -0.095969  0.157009 -0.027956  0.004767 -0.000849 -0.018603  0.003312

                                   1 2px     1 2px     1 2px     1 2px     1 2px     1 2px     1 2px     1 2px     1 2px     1 2px  
                                   1 2px     1 2px     1 2px     1 2px     1 2px     1 2px  

   1.2   2   -74.1482 -253.7653  0.000531  0.003568  0.019015  0.077861  0.227695  0.412553  0.355989  0.092914 -0.000531  0.003235
                                -0.017430 -0.000559  0.000118 -0.000054  0.016721  0.000018

   2.2   2   -11.3011  -82.4815 -0.000222 -0.001506 -0.008078 -0.034049 -0.103833 -0.203249 -0.145638  0.271954  0.577975  0.285841
                                 0.035988 -0.000554  0.000220 -0.000103 -0.015372  0.000034

   3.2   2    -1.5819  -28.5270  0.000072  0.000489  0.002604  0.011124  0.033753  0.068101  0.043895 -0.109931 -0.277331 -0.074339
                                 0.496039  0.552881  0.048423 -0.011154  0.056103  0.003184

   4.2   0    -0.2820   -8.9314 -0.000018 -0.000124 -0.000667 -0.002825 -0.008678 -0.017227 -0.011697  0.030229  0.069152  0.029650
                                -0.608085 -0.308768  0.496695  0.697570  0.468996 -0.044522

   5.2   0    -0.1439   -4.6617  0.000011  0.000076  0.000410  0.001717  0.005344  0.010398  0.007524 -0.019580 -0.039609 -0.026070
                                 0.662422  0.255858 -0.588226 -0.207471 -0.594762  1.112449

                                   1 2py     1 2py     1 2py     1 2py     1 2py     1 2py     1 2py     1 2py     1 2py     1 2py  
                                   1 2py     1 2py     1 2py     1 2py     1 2py     1 2py  

   1.3   2   -74.1482 -253.7653  0.000531  0.003568  0.019015  0.077861  0.227695  0.412553  0.355989  0.092914 -0.000531  0.003235
                                -0.017430 -0.000559  0.000118 -0.000054  0.016721  0.000018

   2.3   2   -11.3011  -82.4815 -0.000222 -0.001506 -0.008078 -0.034049 -0.103833 -0.203249 -0.145638  0.271954  0.577975  0.285841
                                 0.035988 -0.000554  0.000220 -0.000103 -0.015372  0.000034

   3.3   2    -1.5819  -28.5270  0.000072  0.000489  0.002604  0.011124  0.033753  0.068101  0.043895 -0.109931 -0.277331 -0.074339
                                 0.496039  0.552881  0.048423 -0.011154  0.056103  0.003184

   4.3   0    -0.2820   -8.9314 -0.000018 -0.000124 -0.000667 -0.002825 -0.008678 -0.017227 -0.011697  0.030229  0.069152  0.029650
                                -0.608085 -0.308768  0.496695  0.697570  0.468996 -0.044522

   5.3   0    -0.1439   -4.6617  0.000011  0.000076  0.000410  0.001717  0.005344  0.010398  0.007524 -0.019580 -0.039609 -0.026070
                                 0.662422  0.255858 -0.588226 -0.207471 -0.594762  1.112449

                                   1 3d2-    1 3d2-    1 3d2-    1 3d2-    1 3d2-    1 3d2-    1 3d2-    1 3d2-    1 3d2-    1 3d2- 
                                   1 3d2-    1 3d2-    1 3d2- 

   1.4   2    -6.0849  -72.5564  0.002290  0.018870  0.081325  0.209111  0.338093  0.362160  0.216421  0.049788  0.002396 -0.000232
                                 0.000092 -0.004030 -0.000037

   2.4   0    -0.3064  -14.7403 -0.000363 -0.002979 -0.013018 -0.033474 -0.053633 -0.052086 -0.004058  0.161925  0.407448  0.547461
                                 0.159478  0.004842 -0.018896

   3.4   0    -0.1556   -6.3146  0.000187  0.001520  0.006703  0.017048  0.027815  0.025712  0.003662 -0.096380 -0.245917 -0.237726
                                 0.720545  0.017927  0.394108

                                   1 2pz     1 2pz     1 2pz     1 2pz     1 2pz     1 2pz     1 2pz     1 2pz     1 2pz     1 2pz  
                                   1 2pz     1 2pz     1 2pz     1 2pz     1 2pz     1 2pz  

   1.5   2   -74.1482 -253.7653  0.000531  0.003568  0.019015  0.077861  0.227695  0.412553  0.355989  0.092914 -0.000531  0.003235
                                -0.017430 -0.000559  0.000118 -0.000054  0.016721  0.000018

   2.5   2   -11.3011  -82.4815 -0.000222 -0.001506 -0.008078 -0.034049 -0.103833 -0.203249 -0.145638  0.271954  0.577975  0.285841
                                 0.035988 -0.000554  0.000220 -0.000103 -0.015372  0.000034

   3.5   2    -1.5819  -28.5270  0.000072  0.000489  0.002604  0.011124  0.033753  0.068101  0.043895 -0.109931 -0.277331 -0.074339
                                 0.496039  0.552881  0.048423 -0.011154  0.056103  0.003184

   4.5   0    -0.2820   -8.9314 -0.000018 -0.000124 -0.000667 -0.002825 -0.008678 -0.017227 -0.011697  0.030229  0.069152  0.029650
                                -0.608085 -0.308768  0.496695  0.697570  0.468996 -0.044522

   5.5   0    -0.1439   -4.6617  0.000011  0.000076  0.000410  0.001717  0.005344  0.010398  0.007524 -0.019580 -0.039609 -0.026070
                                 0.662422  0.255858 -0.588226 -0.207471 -0.594762  1.112449

                                   1 3d1+    1 3d1+    1 3d1+    1 3d1+    1 3d1+    1 3d1+    1 3d1+    1 3d1+    1 3d1+    1 3d1+ 
                                   1 3d1+    1 3d1+    1 3d1+ 

   1.6   2    -6.0849  -72.5564  0.002290  0.018870  0.081325  0.209111  0.338093  0.362160  0.216421  0.049788  0.002396 -0.000232
                                 0.000092 -0.004030 -0.000037

   2.6   0    -0.3064  -14.7403 -0.000363 -0.002979 -0.013018 -0.033474 -0.053633 -0.052086 -0.004058  0.161925  0.407448  0.547461
                                 0.159478  0.004842 -0.018896

   3.6   0    -0.1556   -6.3146  0.000187  0.001520  0.006703  0.017048  0.027815  0.025712  0.003662 -0.096380 -0.245917 -0.237726
                                 0.720545  0.017927  0.394108

                                   1 3d1-    1 3d1-    1 3d1-    1 3d1-    1 3d1-    1 3d1-    1 3d1-    1 3d1-    1 3d1-    1 3d1- 
                                   1 3d1-    1 3d1-    1 3d1- 

   1.7   2    -6.0849  -72.5564  0.002290  0.018870  0.081325  0.209111  0.338093  0.362160  0.216421  0.049788  0.002396 -0.000232
                                 0.000092 -0.004030 -0.000037

   2.7   0    -0.3064  -14.7403 -0.000363 -0.002979 -0.013018 -0.033474 -0.053633 -0.052086 -0.004058  0.161925  0.407448  0.547461
                                 0.159478  0.004842 -0.018896

   3.7   0    -0.1556   -6.3146  0.000187  0.001520  0.006703  0.017048  0.027815  0.025712  0.003662 -0.096380 -0.245917 -0.237726
                                 0.720545  0.017927  0.394108

 HOMO      3.2    -1.581864 =     -43.0447eV
 LUMO      7.1    -0.382785 =     -10.4161eV
 LUMO-HOMO         1.199079 =      32.6286eV


 **********************************************************************************************************************************
 DATASETS  * FILE   NREC   LENGTH (MB)   RECORD NAMES
              1      23       29.29       500      610      700      900      950      970     1000      129      960     1700   
                                          VAR    BASINP    GEOM    SYMINP    ZMAT    AOBASIS   BASIS     P2S    ABASIS    OPER   
                                         1101     1401     1411     1412     1650     1100     1400     1410     1200     1210   
                                          SR      EKINR    POTR     PVPR    MOLCAS      S      EKIN      POT      H0       H01  
                                         1080     1600     1380   
                                         AOSYM     SMH     JKOP   

              2      11       18.69       200      700     1000      520     4202     5202     2102     5202(1)  2104     2106   
                                        OPTIONS   GEOM     BASIS   MCVARS     RHF     MCSCF     RHF     MCSCF     RHF      RHF  
                                         2108   
                                          RHF  

 PROGRAMS   *        TOTAL       RHF  RCCSD(T)       RHF     MULTI       POP       RHF  RCCSD(T)       RHF     MULTI       POP
 CPU TIMES  *        13.31      0.24      0.70      0.04      0.64      0.00      0.27      0.52      0.04      0.24      0.00
 REAL TIME  *        42.00 SEC
 DISK USED  *       476.52 MB      
 SF USED    *        49.13 MB      
 GA USED    *         0.00 MB       (max)       0.00 MB       (current)
 **********************************************************************************************************************************
 SETTING SCF(6)         =     -3176.79425765  AU                              
 SETTING _CC_NORM_MAX   =         2.00000000                                  


 PROGRAM * CCSD (Restricted open-shell coupled cluster)     Authors: C. Hampel, H.-J. Werner, 1991, M. Deegan, P.J. Knowles, 1992


 Convergence thresholds:  THRVAR = 1.00D-08  THRDEN = 1.00D-06

 CCSD(T)     terms to be evaluated (factor= 1.000)


 Number of core orbitals:          14 (   5   2   2   1   2   1   1 )
 Number of closed-shell orbitals:   4 (   1   1   1   0   1   0   0 )
 Number of external orbitals:     117 (  42  13  13  12  13  12  12 )

 Memory could be reduced to 3.02 Mwords without degradation in triples

 Number of N-1 electron functions:               8
 Number of N-2 electron functions:              28
 Number of singly external CSFs:               162
 Number of doubly external CSFs:             40962
 Total number of CSFs:                       41124

 Molecular orbitals read from record     4202.2  Type=RHF/CANONICAL (state 1.1)

 Integral transformation finished. Total CPU:   0.08 sec, npass=  1  Memory used:   0.44 MW

 Starting RMP2 calculation

 Wavefunction is spin-projected

 ITER.      SQ.NORM     CORR.ENERGY   TOTAL ENERGY   ENERGY CHANGE        DEN1      VAR(S)    VAR(P)  DIIS     TIME
   1      1.03881467    -0.14796828 -3176.94222593    -0.14796828    -0.00038787  0.16D-17  0.12D-03  1  1     0.13
   2      1.03907559    -0.14837912 -3176.94263677    -0.00041084    -0.00000008  0.33D-20  0.21D-07  2  2     0.14
   3      1.03907745    -0.14838083 -3176.94263848    -0.00000171    -0.00000000  0.10D-22  0.53D-11  3  3     0.14
   4      1.03907746    -0.14838083 -3176.94263848    -0.00000000    -0.00000000  0.36D-25  0.18D-14  4  4     0.14

 Norm of t1 vector:      0.00000002      S-energy:    -0.00000000      T1 diagnostic:  0.00000000
 Norm of t2 vector:      0.19768018      P-energy:    -0.14838083
                                         Alpha-Beta:  -0.10843805
                                         Alpha-Alpha: -0.01997139
                                         Beta-Beta:   -0.01997139

 Spin contamination <S**2-Sz**2-Sz>     0.00000000
  Reference energy                  -3176.794257650574
  RHF-RMP2 correlation energy          -0.148380829960
 !RHF-RMP2 energy                   -3176.942638480534
 (NB above energy spin projected)

 Starting RCCSD calculation

 ITER.      SQ.NORM     CORR.ENERGY   TOTAL ENERGY   ENERGY CHANGE        DEN1      VAR(S)    VAR(P)  DIIS     TIME
   1      1.04325155    -0.15596229 -3176.95021994    -0.15596229    -0.00225587  0.14D-04  0.57D-03  1  1     0.16
   2      1.04482917    -0.15833675 -3176.95259440    -0.00237446    -0.00004467  0.43D-06  0.12D-04  2  2     0.18
   3      1.04500871    -0.15851721 -3176.95277486    -0.00018047    -0.00000062  0.12D-07  0.16D-06  3  3     0.20
   4      1.04502474    -0.15852823 -3176.95278588    -0.00001101    -0.00000002  0.13D-09  0.41D-08  4  4     0.22
   5      1.04502717    -0.15853012 -3176.95278777    -0.00000190    -0.00000000  0.15D-10  0.45D-10  5  5     0.25
   6      1.04502719    -0.15853006 -3176.95278771     0.00000007    -0.00000000  0.45D-12  0.50D-12  6  6     0.27

 Norm of t1 vector:      0.00451251      S-energy:     0.00000000      T1 diagnostic:  0.00112813
                                                                       D1 diagnostic:  0.00301430
 Norm of t2 vector:      0.21214812      P-energy:    -0.15853006
                                         Alpha-Beta:  -0.11943942
                                         Alpha-Alpha: -0.01954532
                                         Beta-Beta:   -0.01954532

 Spin contamination <S**2-Sz**2-Sz>     0.00000000

 Memory could be reduced to 2.94 Mwords without degradation in triples
 

  Correlated core orbitals:             6.1       3.2       3.3       3.5
  Orbital energies:                    -2.4338   -1.5819   -1.5819   -1.5819
 
  RCCSD core-core energy               -0.158530056688
 

 RESULTS
 =======

  Reference energy                  -3176.794257650574
  RCCSD singles energy                  0.000000000082
  RCCSD pair energy                    -0.158530056770
  RCCSD correlation energy             -0.158530056688
  Triples (T) contribution             -0.001941099928
  Total correlation energy             -0.160471156616
 
  RHF-RCCSD energy                  -3176.952787707262
  RHF-RCCSD[T] energy               -3176.954732793368
  RHF-RCCSD-T energy                -3176.954728601680
 !RHF-RCCSD(T) energy               -3176.954728807190

 Program statistics:

 Available memory in ccsd:               511999732
 Min. memory needed in ccsd:                193792
 Max. memory used in ccsd:                  233917
 Max. memory used in cckext:                263465 ( 6 integral passes)
 Max. memory used in cckint:                441163 ( 1 integral passes)



 **********************************************************************************************************************************
 DATASETS  * FILE   NREC   LENGTH (MB)   RECORD NAMES
              1      23       29.29       500      610      700      900      950      970     1000      129      960     1700   
                                          VAR    BASINP    GEOM    SYMINP    ZMAT    AOBASIS   BASIS     P2S    ABASIS    OPER   
                                         1101     1401     1411     1412     1650     1100     1400     1410     1200     1210   
                                          SR      EKINR    POTR     PVPR    MOLCAS      S      EKIN      POT      H0       H01  
                                         1080     1600     1380   
                                         AOSYM     SMH     JKOP   

              2      11       18.69       200      700     1000      520     4202     5202     2102     5202(1)  2104     2106   
                                        OPTIONS   GEOM     BASIS   MCVARS     RHF     MCSCF     RHF     MCSCF     RHF      RHF  
                                         2108   
                                          RHF  

 PROGRAMS   *        TOTAL  RCCSD(T)       RHF  RCCSD(T)       RHF     MULTI       POP       RHF  RCCSD(T)       RHF     MULTI
 CPU TIMES  *        13.79      0.48      0.24      0.70      0.04      0.64      0.00      0.27      0.52      0.04      0.24
 REAL TIME  *        43.27 SEC
 DISK USED  *       476.52 MB      
 SF USED    *        49.13 MB      
 GA USED    *         0.00 MB       (max)       0.00 MB       (current)
 **********************************************************************************************************************************
 SETTING CCSD(6)        =     -3176.95472881  AU                              
 Output type csv         
                                                                                                                                                                                                                                                                

         SCF,CCSD
   -3177.352457,   -3177.561369
   -3177.313848,   -3177.495628
   -3177.282212,   -3177.460826
   -3177.177849,   -3177.355351
   -3177.105321,   -3177.267480
   -3176.794258,   -3176.954729
                                                  

 RCCSD(T)/USERDEF energy=  -3176.954728807190

        RCCSD(T)        RHF-SCF         RCCSD(T)        RHF-SCF         MULTI           RHF-SCF         RCCSD(T)        RHF-SCF 
  -3176.95472881  -3176.79425765  -3177.26747971  -3177.10532061  -3177.10532061  -3177.10549964  -3177.35535087  -3177.17784881
 **********************************************************************************************************************************
 Molpro calculation terminated
 Variable memory released
