
 Primary working directories    : /global/cscratch1/sd/gwang18
 Secondary working directories  : /global/cscratch1/sd/gwang18
 Wavefunction directory         : /global/homes/g/gwang18/wfu/
 Main file repository           : /global/cscratch1/sd/gwang18/

 SHA1      : 19cd028119e0e09f93f0674bd8af7968d9b3eff6
 NAME      : 2015.1.36
 ARCHNAME  : linux/x86_64
 FC        : /opt/cray/pe/craype/2.5.14/bin/ftn
 BLASLIB   : -L/opt/intel/compilers_and_libraries_2018.1.163/linux/mkl/lib/intel64 -Wl,-_start-group -lmkl_intel_ilp64 -lmkl_intel_thread -lmkl_core -Wl,-_end-group -liomp5
 id        : lbl

 Nodes     nprocs
 nid00990     7
 Number of processes for MPI-2 version of Molpro:   nprocs(total)=    8   nprocs(compute)=    7   nprocs(helper)=    1

 Using customized tuning parameters: mindgm=7; mindgv=16; mindgc=1; mindgr=1; noblas=0; minvec=7
 default implementation of scratch files=sf  

 ***,Calculation for Ag atom, singlet and triplet
 memory,512,m
 geometry={
 1
 Sr
 Sr  0.0 0.0 0.0
 }
 
 basis={
 Including file /global/u2/g/gwang18/projects/heavy-element-ecp/sr/atom/uc/basis/aug-cc-pwCVTZ.basis
 }
 
 
 set,dkroll=1,dkho=10,dkhp=4
 
 Including file /global/u2/g/gwang18/projects/heavy-element-ecp/sr/atom/uc/basis/states.proc
 
 do i=1,6
     if (i.eq.1) then
         I5s2
     else if (i.eq.2) then
         Is5s5p
     else if (i.eq.3) then
         I5s4d
     else if (i.eq.4) then
         II5s1
     else if (i.eq.5) then
         II4d
     else if (i.eq.6) then
         III4p6
     endif
     scf(i)=energy
     _CC_NORM_MAX=2.0
     {rccsd(t),maxit=100;core,5,2,2,1,2,1,1,0}
     ccsd(i)=energy
 enddo
 
 table,scf,ccsd
 type,csv
 save

 Variables initialized (889), CPU time= 0.01 sec
 Commands  initialized (702), CPU time= 0.01 sec, 572 directives.
 Default parameters read. Elapsed time= 0.16 sec

 Checking input...
 Passed
1


                                         ***  PROGRAM SYSTEM MOLPRO  ***
                                       Copyright, TTI GmbH Stuttgart, 2015
                                    Version 2015.1 linked Dec 29 2018 15:55:43


 **********************************************************************************************************************************
 LABEL *   Calculation for Ag atom, singlet and triplet                                  
  64 bit mpp version                                                                     DATE: 09-Sep-19          TIME: 19:07:09  
 **********************************************************************************************************************************

 SHA1:             19cd028119e0e09f93f0674bd8af7968d9b3eff6
 **********************************************************************************************************************************

Geometry recognized as XYZ


 Variable memory set to  512000000 words,  buffer space   230000 words

 SETTING BASIS          =    USERDEF
 SETTING DKROLL         =         1.00000000                                  
 SETTING DKHO           =        10.00000000                                  
 SETTING DKHP           =         4.00000000                                  

 DO I                   =         1.00000000   

 Running procedure=I5S2


 Recomputing integrals since basis changed


 Using spherical harmonics



 PROGRAM * SEWARD (Integral evaluation for generally contracted gaussian basis sets)     Author: Roland Lindh, 1990

 Geometry written to block  1 of record 700

 Orientation using atomic masses  
 Molecule type: Atom
 Symmetry elements: X,Y,Z
 Rotational constants:       0.0000000      0.0000000      0.0000000 GHz  (calculated with average atomic masses)

 Point group  D2h 



 ATOMIC COORDINATES

 NR  ATOM    CHARGE       X              Y              Z

   1  SR     38.00    0.000000000    0.000000000    0.000000000

 NUCLEAR CHARGE:                   38
 NUMBER OF PRIMITIVE AOS:         232
 NUMBER OF SYMMETRY AOS:          205
 NUMBER OF CONTRACTIONS:          205   (  67Ag  +  27B3u +  27B2u +  18B1g +  27B1u +  18B2g +  18B3g +   3Au  )
 NUMBER OF CORE ORBITALS:          18   (   6Ag  +   3B3u +   3B2u +   1B1g +   3B1u +   1B2g +   1B3g +   0Au  )
 NUMBER OF VALENCE ORBITALS:        1   (   1Ag  +   0B3u +   0B2u +   0B1g +   0B1u +   0B2g +   0B3g +   0Au  )


 NUCLEAR REPULSION ENERGY    0.00000000

 One-electron integrals computed with SEWARD

 10nd-order Douglas-Kroll-Hess method activated. McWeeny DKH parametrization is used.

 Computing Douglas-Kroll / X2C integrals

 AO integral compression algorithm  1   Integral accuracy      1.0D-11

     209.191 MB (compressed) written to integral file ( 34.4%)

     Node minimum: 14.680 MB, node maximum: 53.215 MB


 NUMBER OF SORTED TWO-ELECTRON INTEGRALS:    4281649.     BUFFER LENGTH:  32768
 NUMBER OF SEGMENTS:   1  SEGMENT LENGTH:    4281649      RECORD LENGTH: 524288

 Memory used in sort:       4.84 MW

 SORT1 READ    75897679. AND WROTE     2787915. INTEGRALS IN      8 RECORDS. CPU TIME:     1.11 SEC, REAL TIME:     1.25 SEC
 SORT2 READ    19529476. AND WROTE    29978491. INTEGRALS IN    441 RECORDS. CPU TIME:     0.09 SEC, REAL TIME:     0.26 SEC

 Node minimum:     4246276.  Node maximum:     4323967. integrals

 OPERATOR DM      FOR CENTER  0  COORDINATES:    0.000000    0.000000    0.000000

 EXTRA SYMMETRY OF AOS IN SYMMETRY 1:   1 1 1 1 1 1 1 1 1 1   1 1 1 1 1 1 1 1 1 1   1 1 1 1 1 1 1 1 1 1   1 2 3 2 3 2 3 2 3 2
                                        3 2 3 2 3 2 3 2 3 2   3 2 3 2 3 2 3 2 3 2   3 2 3 2 3 2 3
 EXTRA SYMMETRY OF AOS IN SYMMETRY 2:   1 1 1 1 1 1 1 1 1 1   1 1 1 1 1 1 1 1 1 1   1 2 3 2 3 2 3
 EXTRA SYMMETRY OF AOS IN SYMMETRY 3:   1 1 1 1 1 1 1 1 1 1   1 1 1 1 1 1 1 1 1 1   1 2 3 2 3 2 3
 EXTRA SYMMETRY OF AOS IN SYMMETRY 5:   1 1 1 1 1 1 1 1 1 1   1 1 1 1 1 1 1 1 1 1   1 2 3 2 3 2 3

 Eigenvalues of metric

         1 0.139E-06 0.917E-05 0.404E-04 0.404E-04 0.620E-04 0.175E-03 0.424E-03 0.479E-03
         2 0.693E-03 0.223E-02 0.552E-02 0.104E-01 0.186E-01 0.327E-01 0.575E-01 0.972E-01
         3 0.693E-03 0.223E-02 0.552E-02 0.104E-01 0.186E-01 0.327E-01 0.575E-01 0.972E-01
         4 0.404E-04 0.479E-03 0.272E-02 0.814E-02 0.182E-01 0.368E-01 0.670E-01 0.135E+00
         5 0.693E-03 0.223E-02 0.552E-02 0.104E-01 0.186E-01 0.327E-01 0.575E-01 0.972E-01
         6 0.404E-04 0.479E-03 0.272E-02 0.814E-02 0.182E-01 0.368E-01 0.670E-01 0.135E+00
         7 0.404E-04 0.479E-03 0.272E-02 0.814E-02 0.182E-01 0.368E-01 0.670E-01 0.135E+00
         8 0.275E+00 0.899E+00 0.183E+01


 **********************************************************************************************************************************
 DATASETS  * FILE   NREC   LENGTH (MB)   RECORD NAMES
              1      22       20.47       500      610      700      900      950      970     1000      129      960     1700   
                                          VAR    BASINP    GEOM    SYMINP    ZMAT    AOBASIS   BASIS     P2S    ABASIS    OPER   
                                         1101     1401     1411     1412     1650     1100     1400     1410     1200     1210   
                                          SR      EKINR    POTR     PVPR    MOLCAS      S      EKIN      POT      H0       H01  
                                         1080     1600   
                                         AOSYM     SMH  

 PROGRAMS   *        TOTAL       INT
 CPU TIMES  *        23.29     23.10
 REAL TIME  *        28.13 SEC
 DISK USED  *       433.72 MB      
 GA USED    *         0.00 MB       (max)       0.00 MB       (current)
 **********************************************************************************************************************************


 PROGRAM * RHF-SCF (CLOSED SHELL)       Authors: W. Meyer, H.-J. Werner


 NUMBER OF ELECTRONS:      19+   19-    SPACE SYMMETRY=1    SPIN SYMMETRY: Singlet 
 CONVERGENCE THRESHOLDS:    1.00E-05 (Density)    1.00E-07 (Energy)
 MAX. NUMBER OF ITERATIONS:       60
 INTERPOLATION TYPE:            DIIS
 INTERPOLATION STEPS:              2 (START)      1 (STEP)
 LEVEL SHIFTS:                  0.00 (CLOSED)  0.00 (OPEN) 

 Number of closed-shell orbitals:   19 (   7   3   3   1   3   1   1   0 )


 
 Extra symmetries of mos in symmetry 1:   1   1   1   3   2   1   1
 Orbital guess generated from atomic densities. Full valence occupancy:    7   3   3   1   3   1   1   0


 Molecular orbital dump at record        4202.2

 ITERATION    DDIFF          GRAD             ENERGY        2-EL.EN.            DIPOLE MOMENTS         DIIS   ORB.
    1      0.000D+00      0.000D+00     -3111.62635264   3127.305177    0.00000    0.00000    0.00000    0    start
    2      0.000D+00      0.986D+00     -2957.56331390   1122.012016    0.00000    0.00000    0.00000    1    diag
    3      0.388D+01      0.654D+00     -3152.97063898   2856.479191    0.00000    0.00000    0.00000    2    diag
    4      0.156D+01      0.463D+00     -3175.39961620   2555.607778    0.00000    0.00000    0.00000    3    diag
    5      0.470D+01      0.956D-01     -3177.27997145   2460.536063    0.00000    0.00000    0.00000    4    diag
    6      0.565D+01      0.151D-01     -3177.35705246   2443.051566    0.00000    0.00000    0.00000    5    diag
    7      0.703D+00      0.240D-02     -3177.36253946   2439.223885    0.00000    0.00000    0.00000    6    diag
    8      0.181D-01      0.260D-03     -3177.36290616   2438.712311    0.00000    0.00000    0.00000    7    diag
    9      0.623D-02      0.678D-04     -3177.36292149   2438.698218    0.00000    0.00000    0.00000    8    diag
   10      0.109D-02      0.179D-04     -3177.36292165   2438.677972    0.00000    0.00000    0.00000    9    orth
   11      0.353D-03      0.197D-05     -3177.36292166   2438.675402    0.00000    0.00000    0.00000    9    diag
   12      0.700D-04      0.452D-06     -3177.36292166   2438.675411    0.00000    0.00000    0.00000    9    diag
   13      0.697D-05      0.222D-07     -3177.36292166   2438.675384    0.00000    0.00000    0.00000    0    orth

 Final occupancy:   7   3   3   1   3   1   1   0

 !RHF STATE 1.1 Energy              -3177.362921659873
 Nuclear energy                         0.00000000
 One-electron energy                -4396.70061359
 Two-electron energy                 1219.33769193
 Virial quotient                       -0.91946455
 !RHF STATE 1.1 Dipole moment           0.00000000     0.00000000     0.00000000
 Dipole moment /Debye                   0.00000000     0.00000000     0.00000000

 ELECTRON ORBITALS
 =================


   Orb  Occ    Energy  Couls-En    Coefficients

                                   1 1s      1 1s      1 1s      1 1s      1 1s      1 1s      1 1s      1 1s      1 1s      1 1s   
                                   1 1s      1 1s      1 1s      1 1s      1 1s      1 1s      1 1s      1 1s      1 1s      1 1s   
                                   1 1s      1 1s      1 1s      1 1s      1 1s      1 1s      1 1s      1 1s      1 1s      1 1s   
                                   1 1s      1 3d0     1 3d2+    1 3d0     1 3d2+    1 3d0     1 3d2+    1 3d0     1 3d2+    1 3d0  
                                   1 3d2+    1 3d0     1 3d2+    1 3d0     1 3d2+    1 3d0     1 3d2+    1 3d0     1 3d2+    1 3d0  
                                   1 3d2+    1 3d0     1 3d2+    1 3d0     1 3d2+    1 3d0     1 3d2+    1 3d0     1 3d2+    1 3d0  
                                   1 3d2+    1 3d0     1 3d2+    1 3d0     1 3d2+    1 3d0     1 3d2+ 

   1.1   2  -595.2433-1331.5009  0.000048  0.000073  0.000195  0.000393  0.000837  0.001680  0.003396  0.006826  0.013908  0.028556
                                 0.058335  0.114024  0.200183  0.285696  0.281268  0.147430  0.025265 -0.000224  0.000650 -0.000409
                                 0.000262 -0.000360  0.002163 -0.000549  0.000027 -0.000005  0.000004 -0.000002 -0.002390  0.000968
                                 0.000000 -0.000000 -0.000000 -0.000000 -0.000000  0.000000  0.000000 -0.000000 -0.000000  0.000000
                                 0.000000 -0.000000 -0.000000  0.000000 -0.000000 -0.000000  0.000000  0.000000 -0.000000 -0.000000
                                 0.000000 -0.000000  0.000000 -0.000000  0.000000  0.000000 -0.000000 -0.000000  0.000000 -0.000000
                                -0.000000  0.000000 -0.000000  0.000000 -0.000000  0.000000  0.000000

   2.1   2   -83.1085 -265.8815 -0.000016 -0.000024 -0.000064 -0.000129 -0.000274 -0.000552 -0.001120 -0.002263 -0.004655 -0.009698
                                -0.020366 -0.041756 -0.080373 -0.135048 -0.174185 -0.097583  0.204709  0.514298  0.379656  0.081956
                                 0.001600  0.003089 -0.011172  0.002294 -0.000117  0.000018 -0.000014  0.000007  0.011835 -0.004264
                                -0.000002  0.000000  0.000000 -0.000000 -0.000000  0.000000  0.000000 -0.000000 -0.000000  0.000000
                                 0.000000 -0.000000 -0.000000  0.000000  0.000000 -0.000000 -0.000000  0.000000  0.000000 -0.000000
                                -0.000000  0.000000 -0.000000  0.000000 -0.000000 -0.000000  0.000000  0.000000 -0.000000 -0.000000
                                 0.000000 -0.000000  0.000000 -0.000000  0.000000  0.000000 -0.000000

   3.1   2   -13.9546  -88.0025  0.000006  0.000010  0.000026  0.000053  0.000113  0.000226  0.000460  0.000929  0.001914  0.003996
                                 0.008424  0.017379  0.033892  0.058282  0.078445  0.046126 -0.118400 -0.393678 -0.393216  0.151966
                                 0.683753  0.438365 -0.044883  0.023707 -0.000520  0.000175 -0.000130  0.000061  0.105316 -0.039505
                                -0.000016  0.000000  0.000000 -0.000000 -0.000000 -0.000000  0.000000  0.000000 -0.000000 -0.000000
                                 0.000000  0.000000 -0.000000 -0.000000 -0.000000  0.000000 -0.000000 -0.000000 -0.000000  0.000000
                                 0.000000  0.000000  0.000000  0.000000  0.000000 -0.000000 -0.000000  0.000000  0.000000 -0.000000
                                -0.000000 -0.000000 -0.000000 -0.000000 -0.000000  0.000000  0.000000

   4.1   2    -5.5870  -72.0523  0.000000  0.000000 -0.000000  0.000000 -0.000000  0.000000 -0.000000  0.000000 -0.000000  0.000000
                                -0.000000  0.000000 -0.000000  0.000000 -0.000000  0.000000 -0.000000  0.000000 -0.000000  0.000000
                                -0.000000  0.000000 -0.000001  0.000000 -0.000000  0.000000 -0.000000  0.000000  0.000001 -0.000000
                                -0.000000  0.000088  0.000134  0.000784  0.001192  0.004550  0.006911  0.018036  0.027395  0.050708
                                 0.077021  0.104733  0.159081  0.157099  0.238621  0.174769  0.265459  0.130585  0.198348  0.054189
                                 0.082309  0.009429  0.014321  0.001234  0.001874 -0.000139 -0.000211  0.000049  0.000075 -0.000018
                                -0.000028 -0.001921 -0.002918 -0.002280 -0.003464  0.000005  0.000007

   5.1   2    -5.5870  -72.0523 -0.000000  0.000000 -0.000000  0.000000 -0.000000  0.000000 -0.000000  0.000000 -0.000000  0.000000
                                -0.000000  0.000000 -0.000000  0.000000 -0.000000  0.000000 -0.000000  0.000000 -0.000000  0.000000
                                -0.000000  0.000000 -0.000001  0.000000 -0.000000  0.000000 -0.000000  0.000000  0.000001 -0.000001
                                -0.000000  0.000134 -0.000088  0.001192 -0.000784  0.006911 -0.004550  0.027395 -0.018036  0.077021
                                -0.050708  0.159081 -0.104733  0.238621 -0.157099  0.265459 -0.174769  0.198348 -0.130585  0.082309
                                -0.054189  0.014321 -0.009429  0.001874 -0.001234 -0.000211  0.000139  0.000075 -0.000049 -0.000028
                                 0.000018 -0.002918  0.001921 -0.003464  0.002280  0.000007 -0.000005

   6.1   2    -1.9484  -32.3396 -0.000002 -0.000003 -0.000009 -0.000019 -0.000040 -0.000081 -0.000164 -0.000331 -0.000682 -0.001421
                                -0.003004 -0.006188 -0.012134 -0.020853 -0.028470 -0.016558  0.043974  0.157643  0.160756 -0.068905
                                -0.424812 -0.466757 -0.043671  0.774065  0.362359  0.015581 -0.007519  0.002981  0.275417 -0.045530
                                -0.000735  0.000000 -0.000000 -0.000000 -0.000000  0.000000 -0.000000 -0.000000 -0.000000  0.000000
                                -0.000000 -0.000000 -0.000000  0.000000 -0.000000 -0.000000 -0.000000  0.000000 -0.000000 -0.000000
                                 0.000000  0.000000  0.000000  0.000000  0.000000 -0.000000 -0.000000  0.000000 -0.000000 -0.000000
                                 0.000000  0.000000 -0.000000 -0.000000  0.000000  0.000000 -0.000000

   7.1   2    -0.1812  -10.0077  0.000001  0.000001  0.000002  0.000005  0.000010  0.000021  0.000042  0.000086  0.000177  0.000368
                                 0.000779  0.001604  0.003147  0.005409  0.007395  0.004300 -0.011468 -0.041465 -0.042430  0.018275
                                 0.119088  0.142826 -0.038097 -0.286785 -0.310457  0.366742  0.620862  0.219647 -0.033567 -0.016251
                                 0.001009  0.000000  0.000000 -0.000000  0.000000  0.000000  0.000000 -0.000000  0.000000  0.000000
                                 0.000000 -0.000000  0.000000  0.000000  0.000000 -0.000000  0.000000  0.000000  0.000000 -0.000000
                                 0.000000 -0.000000 -0.000000 -0.000000 -0.000000  0.000000 -0.000000 -0.000000  0.000000  0.000000
                                -0.000000  0.000000 -0.000000  0.000000 -0.000000 -0.000000  0.000000

   8.1   0     0.0174   -3.0656 -0.000000 -0.000000 -0.000001 -0.000001 -0.000002 -0.000005 -0.000009 -0.000019 -0.000037 -0.000084
                                -0.000157 -0.000380 -0.000602 -0.001368 -0.001169 -0.001846  0.004524  0.004608  0.018072 -0.023520
                                 0.023779 -0.204641  3.075501 -2.700780  0.518221 -0.812410  1.694708 -3.482963 -4.073536  3.605239
                                 2.931320 -0.000000 -0.000000  0.000000 -0.000000 -0.000000 -0.000000  0.000000 -0.000000 -0.000000
                                -0.000000  0.000000 -0.000000 -0.000000 -0.000000  0.000000 -0.000000 -0.000000 -0.000000  0.000000
                                 0.000000  0.000000  0.000000 -0.000000  0.000000  0.000000 -0.000000 -0.000000  0.000000 -0.000000
                                -0.000000 -0.000000 -0.000000 -0.000000 -0.000000  0.000000  0.000000

   9.1   0     0.0344   -3.2070  0.000000  0.000000  0.000000  0.000000  0.000000 -0.000000  0.000000 -0.000000  0.000000 -0.000000
                                 0.000000 -0.000000  0.000000 -0.000000  0.000000 -0.000000  0.000000 -0.000000  0.000000 -0.000000
                                 0.000000 -0.000001  0.000017 -0.000009  0.000001 -0.000000  0.000000 -0.000000 -0.000021  0.000013
                                 0.000000 -0.000002  0.000001 -0.000012  0.000006 -0.000104  0.000056 -0.000278  0.000148 -0.001217
                                 0.000649 -0.001363  0.000726 -0.004736  0.002524  0.001154 -0.000615 -0.013873  0.007392  0.082506
                                -0.043964  0.212666 -0.113321  0.289591 -0.154311 -0.156798  0.083551  0.297543 -0.158548 -0.429812
                                 0.229029 -0.142617  0.075995 -0.319836  0.170427  1.084721 -0.578003

                                   1 2px     1 2px     1 2px     1 2px     1 2px     1 2px     1 2px     1 2px     1 2px     1 2px  
                                   1 2px     1 2px     1 2px     1 2px     1 2px     1 2px     1 2px     1 2px     1 2px     1 2px  
                                   1 2px     1 4f1+    1 4f3+    1 4f1+    1 4f3+    1 4f1+    1 4f3+ 

   1.2   2   -73.6489 -253.2670  0.000024  0.000109  0.000476  0.002003  0.007933  0.028143  0.084515  0.199995  0.339367  0.347019
                                 0.158277  0.021307  0.002803 -0.000580 -0.000226 -0.000052  0.000033 -0.000015  0.000458  0.000112
                                 0.000005 -0.000000  0.000000  0.000000 -0.000000  0.000000 -0.000000

   2.2   2   -10.8032  -81.9799 -0.000010 -0.000046 -0.000200 -0.000842 -0.003362 -0.012058 -0.037224 -0.091661 -0.165254 -0.165878
                                 0.058283  0.383216  0.463187  0.203707  0.002551  0.000240 -0.000176  0.000079  0.025494 -0.000589
                                -0.000024 -0.000000 -0.000000  0.000000  0.000000  0.000000  0.000000

   3.2   2    -1.0951  -27.8762 -0.000003 -0.000015 -0.000064 -0.000270 -0.001082 -0.003869 -0.012053 -0.029678 -0.054511 -0.053457
                                 0.028256  0.163143  0.213614  0.087662 -0.542464 -0.047308  0.010284 -0.005343 -0.328999 -0.278878
                                 0.001580 -0.000000 -0.000000 -0.000000 -0.000000  0.000000  0.000000

   4.2   0     0.0098   -4.1554  0.000000  0.000001  0.000006  0.000024  0.000095  0.000347  0.001057  0.002675  0.004735  0.005025
                                -0.003244 -0.013290 -0.022735 -0.001433  0.078455  0.029656 -0.356818  0.240558  0.023574  0.014160
                                -1.023812 -0.000000  0.000000  0.000000 -0.000000  0.000000 -0.000000

   5.2   0     0.0356   -4.6581  0.000000  0.000002  0.000008  0.000034  0.000142  0.000485  0.001589  0.003689  0.007358  0.006001
                                -0.001684 -0.025972 -0.018719 -0.030250  0.030900 -0.333852  0.442968 -2.012518  0.080181  0.166318
                                 1.587676  0.000000 -0.000000 -0.000000  0.000000 -0.000000  0.000000

                                   1 2py     1 2py     1 2py     1 2py     1 2py     1 2py     1 2py     1 2py     1 2py     1 2py  
                                   1 2py     1 2py     1 2py     1 2py     1 2py     1 2py     1 2py     1 2py     1 2py     1 2py  
                                   1 2py     1 4f1-    1 4f3-    1 4f1-    1 4f3-    1 4f1-    1 4f3- 

   1.3   2   -73.6489 -253.2670  0.000024  0.000109  0.000476  0.002003  0.007933  0.028143  0.084515  0.199995  0.339367  0.347019
                                 0.158277  0.021307  0.002803 -0.000580 -0.000226 -0.000052  0.000033 -0.000015  0.000458  0.000112
                                 0.000005 -0.000000 -0.000000  0.000000  0.000000  0.000000  0.000000

   2.3   2   -10.8032  -81.9799 -0.000010 -0.000046 -0.000200 -0.000842 -0.003362 -0.012058 -0.037224 -0.091661 -0.165254 -0.165878
                                 0.058283  0.383216  0.463187  0.203707  0.002551  0.000240 -0.000176  0.000079  0.025494 -0.000589
                                -0.000024 -0.000000  0.000000  0.000000  0.000000  0.000000 -0.000000

   3.3   2    -1.0951  -27.8762 -0.000003 -0.000015 -0.000064 -0.000270 -0.001082 -0.003869 -0.012053 -0.029678 -0.054511 -0.053457
                                 0.028256  0.163143  0.213614  0.087662 -0.542464 -0.047308  0.010284 -0.005343 -0.328999 -0.278878
                                 0.001580 -0.000000 -0.000000 -0.000000 -0.000000  0.000000  0.000000

   4.3   0     0.0098   -4.1554  0.000000  0.000001  0.000006  0.000024  0.000095  0.000347  0.001057  0.002675  0.004735  0.005025
                                -0.003244 -0.013290 -0.022735 -0.001433  0.078455  0.029656 -0.356818  0.240558  0.023574  0.014160
                                -1.023812 -0.000000 -0.000000  0.000000  0.000000  0.000000 -0.000000

   5.3   0     0.0356   -4.6581  0.000000  0.000002  0.000008  0.000034  0.000142  0.000485  0.001589  0.003689  0.007358  0.006001
                                -0.001684 -0.025972 -0.018719 -0.030250  0.030900 -0.333852  0.442968 -2.012518  0.080181  0.166318
                                 1.587676  0.000000  0.000000 -0.000000 -0.000000 -0.000000 -0.000000

                                   1 3d2-    1 3d2-    1 3d2-    1 3d2-    1 3d2-    1 3d2-    1 3d2-    1 3d2-    1 3d2-    1 3d2- 
                                   1 3d2-    1 3d2-    1 3d2-    1 3d2-    1 3d2-    1 3d2-    1 3d2-    1 3d2- 

   1.4   2    -5.5870  -72.0523  0.000161  0.001427  0.008274  0.032799  0.092214  0.190462  0.285692  0.317825  0.237475  0.098545
                                 0.017147  0.002244 -0.000252  0.000090 -0.000033 -0.003494 -0.004147  0.000008

   2.4   0     0.0344   -3.2070 -0.000002 -0.000013 -0.000118 -0.000315 -0.001379 -0.001544 -0.005367  0.001307 -0.015720  0.093488
                                 0.240974  0.328138 -0.177669  0.337149 -0.487024 -0.161601 -0.362409  1.229108

   3.4   0     0.0860   -7.2635  0.000010  0.000106  0.000540  0.002437  0.005998  0.014911  0.016100  0.030225 -0.015629  0.145793
                                 0.351636  0.468724 -0.541448  0.415502 -1.464280 -0.312077 -0.691106  0.839501

                                   1 2pz     1 2pz     1 2pz     1 2pz     1 2pz     1 2pz     1 2pz     1 2pz     1 2pz     1 2pz  
                                   1 2pz     1 2pz     1 2pz     1 2pz     1 2pz     1 2pz     1 2pz     1 2pz     1 2pz     1 2pz  
                                   1 2pz     1 4f0     1 4f2+    1 4f0     1 4f2+    1 4f0     1 4f2+ 

   1.5   2   -73.6489 -253.2670  0.000024  0.000109  0.000476  0.002003  0.007933  0.028143  0.084515  0.199995  0.339367  0.347019
                                 0.158277  0.021307  0.002803 -0.000580 -0.000226 -0.000052  0.000033 -0.000015  0.000458  0.000112
                                 0.000005 -0.000000 -0.000000  0.000000 -0.000000  0.000000 -0.000000

   2.5   2   -10.8032  -81.9799 -0.000010 -0.000046 -0.000200 -0.000842 -0.003362 -0.012058 -0.037224 -0.091661 -0.165254 -0.165878
                                 0.058283  0.383216  0.463187  0.203707  0.002551  0.000240 -0.000176  0.000079  0.025494 -0.000589
                                -0.000024 -0.000000  0.000000  0.000000  0.000000  0.000000 -0.000000

   3.5   2    -1.0951  -27.8762 -0.000003 -0.000015 -0.000064 -0.000270 -0.001082 -0.003869 -0.012053 -0.029678 -0.054511 -0.053457
                                 0.028256  0.163143  0.213614  0.087662 -0.542464 -0.047308  0.010284 -0.005343 -0.328999 -0.278878
                                 0.001580 -0.000000 -0.000000  0.000000 -0.000000 -0.000000  0.000000

   4.5   0     0.0098   -4.1554  0.000000  0.000001  0.000006  0.000024  0.000095  0.000347  0.001057  0.002675  0.004735  0.005025
                                -0.003244 -0.013290 -0.022735 -0.001433  0.078455  0.029656 -0.356818  0.240558  0.023574  0.014160
                                -1.023812 -0.000000  0.000000 -0.000000  0.000000 -0.000000 -0.000000

   5.5   0     0.0356   -4.6581  0.000000  0.000002  0.000008  0.000034  0.000142  0.000485  0.001589  0.003689  0.007358  0.006001
                                -0.001684 -0.025972 -0.018719 -0.030250  0.030900 -0.333852  0.442968 -2.012518  0.080181  0.166318
                                 1.587676  0.000000  0.000000 -0.000000  0.000000 -0.000000 -0.000000

                                   1 3d1+    1 3d1+    1 3d1+    1 3d1+    1 3d1+    1 3d1+    1 3d1+    1 3d1+    1 3d1+    1 3d1+ 
                                   1 3d1+    1 3d1+    1 3d1+    1 3d1+    1 3d1+    1 3d1+    1 3d1+    1 3d1+ 

   1.6   2    -5.5870  -72.0523  0.000161  0.001427  0.008274  0.032799  0.092214  0.190462  0.285692  0.317825  0.237475  0.098545
                                 0.017147  0.002244 -0.000252  0.000090 -0.000033 -0.003494 -0.004147  0.000008

   2.6   0     0.0344   -3.2070 -0.000002 -0.000013 -0.000118 -0.000315 -0.001379 -0.001544 -0.005367  0.001307 -0.015720  0.093488
                                 0.240974  0.328138 -0.177669  0.337149 -0.487024 -0.161601 -0.362409  1.229108

   3.6   0     0.0860   -7.2635  0.000010  0.000106  0.000540  0.002437  0.005998  0.014911  0.016100  0.030225 -0.015629  0.145793
                                 0.351636  0.468724 -0.541448  0.415502 -1.464280 -0.312077 -0.691106  0.839501

                                   1 3d1-    1 3d1-    1 3d1-    1 3d1-    1 3d1-    1 3d1-    1 3d1-    1 3d1-    1 3d1-    1 3d1- 
                                   1 3d1-    1 3d1-    1 3d1-    1 3d1-    1 3d1-    1 3d1-    1 3d1-    1 3d1- 

   1.7   2    -5.5870  -72.0523  0.000161  0.001427  0.008274  0.032799  0.092214  0.190462  0.285692  0.317825  0.237475  0.098545
                                 0.017147  0.002244 -0.000252  0.000090 -0.000033 -0.003494 -0.004147  0.000008

   2.7   0     0.0344   -3.2070 -0.000002 -0.000013 -0.000118 -0.000315 -0.001379 -0.001544 -0.005367  0.001307 -0.015720  0.093488
                                 0.240974  0.328138 -0.177669  0.337149 -0.487024 -0.161601 -0.362409  1.229108

   3.7   0     0.0860   -7.2635  0.000010  0.000106  0.000540  0.002437  0.005998  0.014911  0.016100  0.030225 -0.015629  0.145793
                                 0.351636  0.468724 -0.541448  0.415502 -1.464280 -0.312077 -0.691106  0.839501

                                   1 4f2-    1 4f2-    1 4f2- 

   1.8   0     0.2736   -6.5808 -0.156404  0.039984  1.088971

   2.8   0     0.7430  -10.4543 -1.257923 -0.043197  0.701058

 HOMO      7.1    -0.181218 =      -4.9312eV
 LUMO      4.2     0.009840 =       0.2678eV
 LUMO-HOMO         0.191058 =       5.1990eV


 **********************************************************************************************************************************
 DATASETS  * FILE   NREC   LENGTH (MB)   RECORD NAMES
              1      22       20.47       500      610      700      900      950      970     1000      129      960     1700   
                                          VAR    BASINP    GEOM    SYMINP    ZMAT    AOBASIS   BASIS     P2S    ABASIS    OPER   
                                         1101     1401     1411     1412     1650     1100     1400     1410     1200     1210   
                                          SR      EKINR    POTR     PVPR    MOLCAS      S      EKIN      POT      H0       H01  
                                         1080     1600   
                                         AOSYM     SMH  

              2       5        5.52       200      700     1000      520     4202   
                                        OPTIONS   GEOM     BASIS   MCVARS     RHF  

 PROGRAMS   *        TOTAL       RHF       INT
 CPU TIMES  *        23.78      0.49     23.10
 REAL TIME  *        29.16 SEC
 DISK USED  *       620.06 MB      
 SF USED    *         0.03 MB      
 GA USED    *         0.00 MB       (max)       0.00 MB       (current)
 **********************************************************************************************************************************
 SETTING SCF(1)         =     -3177.36292166  AU                              
 SETTING _CC_NORM_MAX   =         2.00000000                                  


 PROGRAM * CCSD (Restricted open-shell coupled cluster)     Authors: C. Hampel, H.-J. Werner, 1991, M. Deegan, P.J. Knowles, 1992


 Convergence thresholds:  THRVAR = 1.00D-08  THRDEN = 1.00D-06

 CCSD(T)     terms to be evaluated (factor= 1.000)


 Number of core orbitals:          14 (   5   2   2   1   2   1   1   0 )
 Number of closed-shell orbitals:   5 (   2   1   1   0   1   0   0   0 )
 Number of external orbitals:     186 (  60  24  24  17  24  17  17   3 )

 Memory could be reduced to 11.32 Mwords without degradation in triples

 Number of N-1 electron functions:              10
 Number of N-2 electron functions:              45
 Number of singly external CSFs:               384
 Number of doubly external CSFs:            167724
 Total number of CSFs:                      168108

 Molecular orbitals read from record     4202.2  Type=RHF/CANONICAL (state 1.1)

 Integral transformation finished. Total CPU:   0.32 sec, npass=  1  Memory used:   1.62 MW

 Starting RMP2 calculation

 Wavefunction is spin-projected

 ITER.      SQ.NORM     CORR.ENERGY   TOTAL ENERGY   ENERGY CHANGE        DEN1      VAR(S)    VAR(P)  DIIS     TIME
   1      1.08858401    -0.22864394 -3177.59156560    -0.22864394    -0.00162682  0.85D-13  0.16D-02  1  1     0.36
   2      1.09314628    -0.23044680 -3177.59336846    -0.00180286    -0.00004325  0.11D-13  0.64D-04  2  2     0.37
   3      1.09425494    -0.23069781 -3177.59361947    -0.00025102    -0.00000023  0.57D-15  0.31D-06  3  3     0.41
   4      1.09429540    -0.23070295 -3177.59362461    -0.00000514    -0.00000000  0.48D-16  0.54D-08  4  4     0.42
   5      1.09429644    -0.23070293 -3177.59362459     0.00000002    -0.00000000  0.30D-17  0.38D-10  5  5     0.43

 Norm of t1 vector:      0.00000119      S-energy:    -0.00000000      T1 diagnostic:  0.00000027
 Norm of t2 vector:      0.30707726      P-energy:    -0.23070293
                                         Alpha-Beta:  -0.17117500
                                         Alpha-Alpha: -0.02976397
                                         Beta-Beta:   -0.02976397

 Spin contamination <S**2-Sz**2-Sz>     0.00000000
  Reference energy                  -3177.362921659874
  RHF-RMP2 correlation energy          -0.230702930421
 !RHF-RMP2 energy                   -3177.593624590295
 (NB above energy spin projected)

 Starting RCCSD calculation

 ITER.      SQ.NORM     CORR.ENERGY   TOTAL ENERGY   ENERGY CHANGE        DEN1      VAR(S)    VAR(P)  DIIS     TIME
   1      1.09558018    -0.23606210 -3177.59898376    -0.23606210    -0.00573744  0.16D-02  0.30D-02  1  1     0.63
   2      1.11146617    -0.24221347 -3177.60513513    -0.00615137    -0.00060867  0.36D-03  0.50D-03  2  2     0.72
   3      1.12195947    -0.24387713 -3177.60679879    -0.00166366    -0.00008972  0.72D-04  0.72D-04  3  3     0.82
   4      1.12791824    -0.24457644 -3177.60749810    -0.00069932    -0.00000665  0.46D-05  0.54D-05  4  4     0.93
   5      1.12924613    -0.24468536 -3177.60760702    -0.00010892    -0.00000085  0.43D-06  0.85D-06  5  5     1.03
   6      1.12955592    -0.24470208 -3177.60762374    -0.00001671    -0.00000013  0.22D-07  0.15D-06  6  6     1.13
   7      1.12963439    -0.24470528 -3177.60762694    -0.00000320    -0.00000001  0.17D-08  0.17D-07  6  1     1.24
   8      1.12964265    -0.24470551 -3177.60762717    -0.00000023    -0.00000000  0.16D-08  0.21D-08  6  2     1.35

 Norm of t1 vector:      0.09880702      S-energy:     0.00000001      T1 diagnostic:  0.02209392
                                                                       D1 diagnostic:  0.06967448
 Norm of t2 vector:      0.34623665      P-energy:    -0.24470552
                                         Alpha-Beta:  -0.18774189
                                         Alpha-Alpha: -0.02848182
                                         Beta-Beta:   -0.02848182

 Singles amplitudes (print threshold =  0.500E-01):

         I         SYM. A    A   T(IA) [Alpha-Alpha]

         2         1         6      0.05000791
 
         I         SYM. A    A   T(IA) [Beta-Beta]

         2         1         6      0.05000791

 Doubles amplitudes (print threshold =  0.500E-01):

         I         J         SYM. A    SYM. B    A         B      T(IJ, AB) [Alpha-Beta]

         2         2         2         2         2         2     -0.05040702
         2         2         3         3         2         2     -0.05040702
         2         2         5         5         2         2     -0.05040702

 Spin contamination <S**2-Sz**2-Sz>     0.00000000

 Memory could be reduced to 11.36 Mwords without degradation in triples
 

  Correlated core orbitals:             6.1       3.2       3.3       3.5
  Orbital energies:                    -1.9484   -1.0951   -1.0951   -1.0951
 
  RCCSD core-core energy               -0.190010174253
  RCCSD core-valence energy            -0.032622692855
  RCCSD valence correlation energy     -0.022072641331
 

 RESULTS
 =======

  Reference energy                  -3177.362921659874
  RCCSD singles energy                  0.000000014234
  RCCSD pair energy                    -0.244705522673
  RCCSD correlation energy             -0.244705508439
  Triples (T) contribution             -0.008593340897
  Total correlation energy             -0.253298849336
 
  RHF-RCCSD energy                  -3177.607627168313
  RHF-RCCSD[T] energy               -3177.616488642183
  RHF-RCCSD-T energy                -3177.616184879312
 !RHF-RCCSD(T) energy               -3177.616220509210

 Program statistics:

 Available memory in ccsd:               511999650
 Min. memory needed in ccsd:                637085
 Max. memory used in ccsd:                  818406
 Max. memory used in cckext:                796506 ( 8 integral passes)
 Max. memory used in cckint:               1616128 ( 1 integral passes)



 **********************************************************************************************************************************
 DATASETS  * FILE   NREC   LENGTH (MB)   RECORD NAMES
              1      22       20.47       500      610      700      900      950      970     1000      129      960     1700   
                                          VAR    BASINP    GEOM    SYMINP    ZMAT    AOBASIS   BASIS     P2S    ABASIS    OPER   
                                         1101     1401     1411     1412     1650     1100     1400     1410     1200     1210   
                                          SR      EKINR    POTR     PVPR    MOLCAS      S      EKIN      POT      H0       H01  
                                         1080     1600   
                                         AOSYM     SMH  

              2       5        5.52       200      700     1000      520     4202   
                                        OPTIONS   GEOM     BASIS   MCVARS     RHF  

 PROGRAMS   *        TOTAL  RCCSD(T)       RHF       INT
 CPU TIMES  *        26.31      2.51      0.49     23.10
 REAL TIME  *        34.02 SEC
 DISK USED  *       759.86 MB      
 SF USED    *       126.41 MB      
 GA USED    *         0.00 MB       (max)       0.00 MB       (current)
 **********************************************************************************************************************************
 SETTING CCSD(1)        =     -3177.61622051  AU                              

 DO I                   =         2.00000000   

 Running procedure=IS5S5P


 PROGRAM * RHF-SCF (OPEN SHELL)       Authors: W. Meyer, H.-J. Werner


 NUMBER OF ELECTRONS:      20+   18-    SPACE SYMMETRY=2    SPIN SYMMETRY: Triplet 
 CONVERGENCE THRESHOLDS:    1.00E-05 (Density)    1.00E-07 (Energy)
 MAX. NUMBER OF ITERATIONS:       60
 INTERPOLATION TYPE:            DIIS
 INTERPOLATION STEPS:              2 (START)      1 (STEP)
 LEVEL SHIFTS:                 -0.60 (CLOSED) -0.30 (OPEN) 

 Number of closed-shell orbitals:   18 (   6   3   3   1   3   1   1   0 )
 Number of open-shell orbitals:      2 (   1   1   0   0   0   0   0   0 )

 Singly occupied orbitals:      7.1       4.2
 
 Extra symmetries of mos in symmetry 1:   1   1   1   3   2   1   1
 Orbital guess generated from atomic densities. Full valence occupancy:    7   3   3   1   3   1   1   0


 Molecular orbital dump at record        4202.2

 ITERATION    DDIFF          GRAD             ENERGY        2-EL.EN.            DIPOLE MOMENTS         DIIS   ORB.
    1      0.000D+00      0.000D+00     -3111.33035799   3126.855887    0.00000    0.00000    0.00000    0    start
    2      0.000D+00      0.944D+00     -2967.83303349   1147.105628    0.00000    0.00000    0.00000    1    diag,B
    3      0.211D+01      0.633D+00     -3154.08355525   2844.629435    0.00000    0.00000    0.00000    2    diag,B
    4      0.743D+00      0.429D+00     -3174.79130862   2566.463929    0.00000    0.00000    0.00000    3    diag,B
    5      0.170D+01      0.983D-01     -3177.04599431   2472.232268    0.00000    0.00000    0.00000    4    diag,B
    6      0.493D+00      0.187D-01     -3177.26940209   2446.145260    0.00000    0.00000    0.00000    5    diag,B
    7      0.222D+01      0.299D-02     -3177.30811248   2440.343945    0.00000    0.00000    0.00000    6    fixocc
    8      0.220D+00      0.123D-02     -3177.32205721   2438.140781    0.00000    0.00000    0.00000    7    diag,B
    9      0.278D-01      0.567D-03     -3177.32610692   2436.859593    0.00000    0.00000    0.00000    8    diag,B
   10      0.484D-01      0.218D-03     -3177.32684940   2436.397767    0.00000    0.00000    0.00000    9    orth
   11      0.547D-02      0.106D-03     -3177.32707002   2436.138782    0.00000    0.00000    0.00000    9    diag,B
   12      0.477D-02      0.446D-04     -3177.32710815   2436.075701    0.00000    0.00000    0.00000    9    diag,B
   13      0.685D-03      0.216D-04     -3177.32711812   2436.053406    0.00000    0.00000    0.00000    9    diag,B
   14      0.642D-03      0.107D-04     -3177.32712058   2436.049240    0.00000    0.00000    0.00000    9    diag,B
   15      0.411D-03      0.420D-05     -3177.32712085   2436.048475    0.00000    0.00000    0.00000    9    diag,B
   16      0.792D-04      0.212D-05     -3177.32712092   2436.048575    0.00000    0.00000    0.00000    9    diag,B
   17      0.599D-04      0.122D-05     -3177.32712094   2436.048494    0.00000    0.00000    0.00000    9    diag,B
   18      0.177D-04      0.543D-06     -3177.32712095   2436.048363    0.00000    0.00000    0.00000    9    diag,B
   19      0.512D-05      0.219D-06     -3177.32712095   2436.048387    0.00000    0.00000    0.00000    0    orth

 Final alpha occupancy:   7   4   3   1   3   1   1   0
 Final beta  occupancy:   6   3   3   1   3   1   1   0

 !RHF STATE 1.2 Energy              -3177.327120948143
 Nuclear energy                         0.00000000
 One-electron energy                -4395.35131461
 Two-electron energy                 1218.02419366
 Virial quotient                       -0.91946952
 !RHF STATE 1.2 Dipole moment           0.00000000     0.00000000     0.00000000
 Dipole moment /Debye                   0.00000000     0.00000000     0.00000000

 ELECTRON ORBITALS
 =================


   Orb  Occ    Energy  Couls-En    Coefficients

                                   1 1s      1 1s      1 1s      1 1s      1 1s      1 1s      1 1s      1 1s      1 1s      1 1s   
                                   1 1s      1 1s      1 1s      1 1s      1 1s      1 1s      1 1s      1 1s      1 1s      1 1s   
                                   1 1s      1 1s      1 1s      1 1s      1 1s      1 1s      1 1s      1 1s      1 1s      1 1s   
                                   1 1s      1 3d0     1 3d2+    1 3d0     1 3d2+    1 3d0     1 3d2+    1 3d0     1 3d2+    1 3d0  
                                   1 3d2+    1 3d0     1 3d2+    1 3d0     1 3d2+    1 3d0     1 3d2+    1 3d0     1 3d2+    1 3d0  
                                   1 3d2+    1 3d0     1 3d2+    1 3d0     1 3d2+    1 3d0     1 3d2+    1 3d0     1 3d2+    1 3d0  
                                   1 3d2+    1 3d0     1 3d2+    1 3d0     1 3d2+    1 3d0     1 3d2+ 

   1.1   2  -595.2779-1331.5355  0.000048  0.000073  0.000195  0.000393  0.000837  0.001680  0.003396  0.006826  0.013908  0.028556
                                 0.058335  0.114024  0.200183  0.285695  0.281268  0.147430  0.025265 -0.000224  0.000649 -0.000409
                                 0.000262 -0.000360  0.002163 -0.000549  0.000027 -0.000005  0.000004 -0.000002 -0.002390  0.000968
                                 0.000000  0.000000 -0.000000  0.000000 -0.000000 -0.000000  0.000000 -0.000000  0.000000  0.000000
                                -0.000000  0.000000 -0.000000  0.000000 -0.000000 -0.000000  0.000000 -0.000000  0.000000 -0.000000
                                 0.000000 -0.000000  0.000000 -0.000000  0.000000  0.000000 -0.000000  0.000000 -0.000000  0.000000
                                -0.000000  0.000000 -0.000000  0.000000 -0.000000 -0.000000  0.000000

   2.1   2   -83.1429 -265.9156 -0.000016 -0.000024 -0.000064 -0.000129 -0.000274 -0.000552 -0.001120 -0.002263 -0.004655 -0.009698
                                -0.020366 -0.041756 -0.080372 -0.135046 -0.174182 -0.097583  0.204701  0.514288  0.379663  0.081964
                                 0.001604  0.003087 -0.011165  0.002289 -0.000117  0.000018 -0.000014  0.000007  0.011825 -0.004257
                                -0.000002 -0.000000  0.000000 -0.000000  0.000000  0.000000 -0.000000  0.000000 -0.000000  0.000001
                                -0.000002  0.000001 -0.000002 -0.000000  0.000001  0.000000 -0.000000  0.000000 -0.000000  0.000001
                                -0.000001  0.000000 -0.000000 -0.000000  0.000000 -0.000000  0.000000 -0.000000  0.000000 -0.000000
                                 0.000000 -0.000000  0.000001 -0.000000  0.000000  0.000000 -0.000000

   3.1   2   -13.9887  -88.0346  0.000006  0.000010  0.000026  0.000053  0.000113  0.000226  0.000460  0.000929  0.001914  0.003996
                                 0.008423  0.017378  0.033890  0.058278  0.078440  0.046122 -0.118386 -0.393640 -0.393172  0.151857
                                 0.683660  0.438516 -0.045546  0.023953 -0.000539  0.000164 -0.000130  0.000059  0.106097 -0.039846
                                -0.000016  0.000000 -0.000000  0.000000 -0.000000  0.000000 -0.000001  0.000002 -0.000003  0.000005
                                -0.000008  0.000010 -0.000017  0.000014 -0.000024  0.000026 -0.000045  0.000033 -0.000057 -0.000006
                                 0.000010 -0.000006  0.000011  0.000000 -0.000001  0.000003 -0.000005  0.000001 -0.000002  0.000000
                                -0.000001  0.000009 -0.000015  0.000005 -0.000008 -0.000000  0.000000

   4.1   2    -5.6212  -72.0887  0.000000  0.000000  0.000000  0.000000  0.000000  0.000000  0.000000  0.000000  0.000000  0.000001
                                 0.000002  0.000003  0.000007  0.000011  0.000015  0.000009 -0.000023 -0.000081 -0.000088  0.000030
                                 0.000221  0.000078 -0.000465  0.000153 -0.000103 -0.000021  0.000035  0.000002  0.000548 -0.000314
                                 0.000001 -0.000080  0.000139 -0.000713  0.001236 -0.004137  0.007166 -0.016400  0.028406 -0.046110
                                 0.079865 -0.095238  0.164957 -0.142855  0.247432 -0.158926  0.275268 -0.118725  0.205637 -0.049220
                                 0.085252 -0.008562  0.014829 -0.001107  0.001917  0.000136 -0.000235 -0.000041  0.000070  0.000016
                                -0.000028  0.001715 -0.002970  0.002061 -0.003570 -0.000004  0.000007

   5.1   2    -5.6227  -72.0866  0.000000 -0.000000 -0.000000  0.000000 -0.000000  0.000000 -0.000000  0.000000  0.000000 -0.000000
                                 0.000000 -0.000000  0.000000 -0.000000  0.000000 -0.000000  0.000000 -0.000000  0.000000 -0.000000
                                 0.000000 -0.000000  0.000000 -0.000000 -0.000000  0.000000 -0.000000  0.000000 -0.000000  0.000000
                                -0.000000  0.000139  0.000080  0.001235  0.000713  0.007165  0.004137  0.028403  0.016399  0.079856
                                 0.046105  0.164938  0.095227  0.247401  0.142837  0.275248  0.158915  0.205681  0.118750  0.085274
                                 0.049233  0.014868  0.008584  0.001940  0.001120 -0.000216 -0.000125  0.000077  0.000045 -0.000028
                                -0.000016 -0.002961 -0.001710 -0.003563 -0.002057  0.000007  0.000004

   6.1   2    -1.9815  -32.3467 -0.000002 -0.000003 -0.000009 -0.000019 -0.000040 -0.000080 -0.000163 -0.000330 -0.000681 -0.001419
                                -0.002999 -0.006178 -0.012115 -0.020819 -0.028426 -0.016528  0.043894  0.157393  0.160450 -0.068678
                                -0.424026 -0.465285 -0.053647  0.788598  0.363037  0.015120 -0.006453  0.002913  0.287764 -0.064935
                                -0.000685 -0.000000  0.000000 -0.000001  0.000001 -0.000004  0.000007 -0.000016  0.000028 -0.000046
                                 0.000079 -0.000094  0.000163 -0.000138  0.000240 -0.000142  0.000245 -0.000101  0.000175  0.000154
                                -0.000266  0.000575 -0.000996  0.001115 -0.001931  0.000124 -0.000214 -0.000092  0.000159 -0.000016
                                 0.000027 -0.000129  0.000224  0.000336 -0.000583 -0.000003  0.000005

   7.1   +    -0.2429  -10.2597  0.000001  0.000001  0.000002  0.000005  0.000010  0.000021  0.000043  0.000087  0.000179  0.000373
                                 0.000787  0.001626  0.003179  0.005487  0.007456  0.004410 -0.011736 -0.041671 -0.043501  0.019758
                                 0.117018  0.156071 -0.254165 -0.054835 -0.376115  0.421911  0.661460  0.129505  0.256860 -0.298160
                                 0.001221  0.000001 -0.000001  0.000007 -0.000013  0.000042 -0.000073  0.000167 -0.000290  0.000475
                                -0.000823  0.000982 -0.001701  0.001448 -0.002508  0.001518 -0.002629  0.000795 -0.001377 -0.001761
                                 0.003049 -0.005789  0.010027 -0.007953  0.013775 -0.013044  0.022593 -0.035618  0.061692 -0.023971
                                 0.041519 -0.000063  0.000109  0.000487 -0.000843 -0.000890  0.001542

   8.1   0     0.0147   -3.1658  0.000000  0.000000  0.000001  0.000001  0.000002  0.000005  0.000009  0.000019  0.000037  0.000084
                                 0.000159  0.000378  0.000614  0.001350  0.001227  0.001743 -0.004296 -0.005165 -0.017077  0.021252
                                -0.017858  0.184796 -2.723485  2.392043 -0.478446  0.757160 -1.416818  3.023118  3.606019 -3.198896
                                -2.720429  0.000000 -0.000001  0.000003 -0.000006  0.000021 -0.000036  0.000074 -0.000128  0.000233
                                -0.000404  0.000420 -0.000728  0.000768 -0.001330  0.000473 -0.000819  0.001033 -0.001788 -0.005167
                                 0.008949 -0.013945  0.024153 -0.019725  0.034165  0.005092 -0.008820 -0.022249  0.038536  0.021474
                                -0.037194  0.007801 -0.013511  0.018170 -0.031472 -0.091843  0.159076

   9.1   0     0.0294   -3.8388 -0.000000 -0.000000 -0.000000 -0.000000 -0.000000 -0.000000 -0.000000 -0.000000  0.000000 -0.000000
                                 0.000000 -0.000000  0.000000 -0.000000  0.000000 -0.000000  0.000000 -0.000000  0.000000 -0.000000
                                 0.000000 -0.000001  0.000013 -0.000007  0.000001 -0.000000  0.000000 -0.000000 -0.000016  0.000011
                                 0.000000 -0.000004 -0.000002 -0.000031 -0.000018 -0.000207 -0.000120 -0.000719 -0.000415 -0.002369
                                -0.001368 -0.004024 -0.002323 -0.008006 -0.004622 -0.003761 -0.002171 -0.012960 -0.007482  0.068349
                                 0.039462  0.180692  0.104322  0.248981  0.143749 -0.087036 -0.050250  0.277639  0.160295 -0.265190
                                -0.153107 -0.108163 -0.062448 -0.245486 -0.141731  0.950604  0.548832

                                   1 2px     1 2px     1 2px     1 2px     1 2px     1 2px     1 2px     1 2px     1 2px     1 2px  
                                   1 2px     1 2px     1 2px     1 2px     1 2px     1 2px     1 2px     1 2px     1 2px     1 2px  
                                   1 2px     1 4f1+    1 4f3+    1 4f1+    1 4f3+    1 4f1+    1 4f3+ 

   1.2   2   -73.6837 -253.3021  0.000024  0.000109  0.000476  0.002003  0.007933  0.028144  0.084516  0.199998  0.339371  0.347018
                                 0.158272  0.021304  0.002803 -0.000578 -0.000226 -0.000053  0.000033 -0.000015  0.000459  0.000111
                                 0.000005 -0.000000  0.000000  0.000000 -0.000000  0.000000 -0.000000

   2.2   2   -10.8378  -82.0192 -0.000010 -0.000046 -0.000200 -0.000843 -0.003362 -0.012060 -0.037230 -0.091675 -0.165280 -0.165897
                                 0.058312  0.383303  0.463283  0.203570  0.002530  0.000260 -0.000157  0.000087  0.025390 -0.000571
                                -0.000024 -0.000004  0.000005  0.000022 -0.000028  0.000004 -0.000005

   3.2   2    -1.1261  -28.0400  0.000003  0.000015  0.000065  0.000272  0.001089  0.003896  0.012134  0.029885  0.054876  0.053847
                                -0.028541 -0.164187 -0.215523 -0.087386  0.550897  0.039092 -0.012244  0.003179  0.331084  0.273809
                                -0.001363  0.001749 -0.002258  0.001371 -0.001770 -0.000653  0.000843

   4.2   +    -0.1450   -8.1014 -0.000001 -0.000003 -0.000014 -0.000060 -0.000242 -0.000864 -0.002693 -0.006636 -0.012198 -0.011959
                                 0.006563  0.037249  0.049792  0.018845 -0.157227  0.218363  0.636698  0.283209 -0.086514 -0.130170
                                 0.001752 -0.001388  0.001792 -0.000527  0.000680 -0.004390  0.005668

   5.2   0     0.0232   -2.6897  0.000000  0.000001  0.000003  0.000013  0.000056  0.000183  0.000633  0.001379  0.002995  0.001971
                                 0.000182 -0.011981 -0.003348 -0.019588 -0.010045 -0.256194  0.373539 -1.339365  0.044424  0.108511
                                 1.743436 -0.000163  0.000210  0.000147 -0.000190  0.000208 -0.000268

   6.2   0     0.1036   -4.5779  0.000000  0.000002  0.000009  0.000041  0.000150  0.000601  0.001651  0.004712  0.007013  0.010341
                                -0.010241 -0.011253 -0.060778  0.043433  0.273228  0.632912 -2.689672  3.399031 -0.033677 -0.207130
                                -1.372425 -0.002219  0.002865  0.000576 -0.000744  0.002244 -0.002897

                                   1 2py     1 2py     1 2py     1 2py     1 2py     1 2py     1 2py     1 2py     1 2py     1 2py  
                                   1 2py     1 2py     1 2py     1 2py     1 2py     1 2py     1 2py     1 2py     1 2py     1 2py  
                                   1 2py     1 4f1-    1 4f3-    1 4f1-    1 4f3-    1 4f1-    1 4f3- 

   1.3   2   -73.6838 -253.3017  0.000024  0.000109  0.000476  0.002003  0.007933  0.028143  0.084515  0.199994  0.339365  0.347019
                                 0.158280  0.021306  0.002803 -0.000579 -0.000226 -0.000052  0.000033 -0.000015  0.000459  0.000111
                                 0.000005 -0.000000  0.000000  0.000000 -0.000000  0.000000 -0.000000

   2.3   2   -10.8386  -82.0151 -0.000010 -0.000046 -0.000200 -0.000842 -0.003362 -0.012058 -0.037224 -0.091660 -0.165252 -0.165877
                                 0.058282  0.383178  0.463245  0.203695  0.002566  0.000258 -0.000174  0.000080  0.025455 -0.000569
                                -0.000025 -0.000001  0.000004  0.000007 -0.000028  0.000001 -0.000005

   3.3   2    -1.1323  -27.9405 -0.000003 -0.000015 -0.000064 -0.000270 -0.001083 -0.003873 -0.012062 -0.029708 -0.054549 -0.053528
                                 0.028341  0.163131  0.214071  0.087134 -0.544787 -0.041757  0.010676 -0.004907 -0.327773 -0.280712
                                 0.001464 -0.000600  0.002323 -0.000455  0.001764  0.000206 -0.000796

   4.3   0    -0.0024   -5.8220 -0.000000 -0.000002 -0.000009 -0.000039 -0.000158 -0.000565 -0.001755 -0.004344 -0.007934 -0.007885
                                 0.004449  0.023861  0.033231  0.010697 -0.104460  0.074829  0.393895  0.221351 -0.052806 -0.073193
                                 0.500181 -0.000597  0.002313 -0.000062  0.000240 -0.000466  0.001806

   5.3   0     0.0259   -3.6768 -0.000000 -0.000002 -0.000007 -0.000028 -0.000119 -0.000405 -0.001330 -0.003081 -0.006162 -0.004994
                                 0.001356  0.021863  0.015419  0.025856 -0.024130  0.299990 -0.314806  1.694868 -0.068352 -0.147916
                                -1.740338 -0.000260  0.001006 -0.000059  0.000230 -0.000072  0.000279

                                   1 3d2-    1 3d2-    1 3d2-    1 3d2-    1 3d2-    1 3d2-    1 3d2-    1 3d2-    1 3d2-    1 3d2- 
                                   1 3d2-    1 3d2-    1 3d2-    1 3d2-    1 3d2-    1 3d2-    1 3d2-    1 3d2- 

   1.4   2    -5.6216  -72.0881  0.000161  0.001427  0.008274  0.032800  0.092217  0.190470  0.285700  0.317846  0.237463  0.098448
                                 0.017135  0.002219 -0.000267  0.000080 -0.000035 -0.003426 -0.004120  0.000008

   2.4   0     0.0287   -4.5726 -0.000006 -0.000051 -0.000323 -0.001184 -0.003676 -0.006762 -0.011967 -0.008105 -0.014802  0.071071
                                 0.191446  0.264285 -0.050622  0.334199 -0.165833 -0.103574 -0.237031  0.964751

   3.4   0     0.0601   -7.3320 -0.000012 -0.000116 -0.000614 -0.002679 -0.006853 -0.016228 -0.019108 -0.030979  0.009565 -0.111596
                                -0.261477 -0.343222  0.487079 -0.215445  1.200141  0.255647  0.559906 -1.052493

                                   1 2pz     1 2pz     1 2pz     1 2pz     1 2pz     1 2pz     1 2pz     1 2pz     1 2pz     1 2pz  
                                   1 2pz     1 2pz     1 2pz     1 2pz     1 2pz     1 2pz     1 2pz     1 2pz     1 2pz     1 2pz  
                                   1 2pz     1 4f0     1 4f2+    1 4f0     1 4f2+    1 4f0     1 4f2+ 

   1.5   2   -73.6838 -253.3017  0.000024  0.000109  0.000476  0.002003  0.007933  0.028143  0.084515  0.199994  0.339365  0.347019
                                 0.158280  0.021306  0.002803 -0.000579 -0.000226 -0.000052  0.000033 -0.000015  0.000459  0.000111
                                 0.000005 -0.000000  0.000000  0.000000 -0.000000  0.000000 -0.000000

   2.5   2   -10.8386  -82.0151 -0.000010 -0.000046 -0.000200 -0.000842 -0.003362 -0.012058 -0.037224 -0.091660 -0.165252 -0.165877
                                 0.058282  0.383178  0.463245  0.203695  0.002566  0.000258 -0.000174  0.000080  0.025455 -0.000569
                                -0.000025 -0.000003  0.000004  0.000018 -0.000023  0.000003 -0.000004

   3.5   2    -1.1323  -27.9405 -0.000003 -0.000015 -0.000064 -0.000270 -0.001083 -0.003873 -0.012062 -0.029708 -0.054549 -0.053528
                                 0.028341  0.163131  0.214071  0.087134 -0.544787 -0.041757  0.010676 -0.004907 -0.327773 -0.280712
                                 0.001464 -0.001469  0.001896 -0.001115  0.001440  0.000503 -0.000650

   4.5   0    -0.0024   -5.8220 -0.000000 -0.000002 -0.000009 -0.000039 -0.000158 -0.000565 -0.001755 -0.004344 -0.007934 -0.007885
                                 0.004449  0.023861  0.033231  0.010697 -0.104460  0.074829  0.393895  0.221351 -0.052806 -0.073193
                                 0.500181 -0.001463  0.001889 -0.000152  0.000196 -0.001142  0.001475

   5.5   0     0.0259   -3.6768 -0.000000 -0.000002 -0.000007 -0.000028 -0.000119 -0.000405 -0.001330 -0.003081 -0.006162 -0.004994
                                 0.001356  0.021863  0.015419  0.025856 -0.024130  0.299990 -0.314806  1.694868 -0.068352 -0.147916
                                -1.740338 -0.000637  0.000822 -0.000145  0.000188 -0.000177  0.000228

                                   1 3d1+    1 3d1+    1 3d1+    1 3d1+    1 3d1+    1 3d1+    1 3d1+    1 3d1+    1 3d1+    1 3d1+ 
                                   1 3d1+    1 3d1+    1 3d1+    1 3d1+    1 3d1+    1 3d1+    1 3d1+    1 3d1+ 

   1.6   2    -5.6216  -72.0881  0.000161  0.001427  0.008274  0.032800  0.092217  0.190470  0.285700  0.317846  0.237463  0.098448
                                 0.017135  0.002219 -0.000267  0.000080 -0.000035 -0.003426 -0.004120  0.000008

   2.6   0     0.0287   -4.5726 -0.000006 -0.000051 -0.000323 -0.001184 -0.003676 -0.006762 -0.011967 -0.008105 -0.014802  0.071071
                                 0.191446  0.264285 -0.050622  0.334199 -0.165833 -0.103574 -0.237031  0.964751

   3.6   0     0.0601   -7.3320 -0.000012 -0.000116 -0.000614 -0.002679 -0.006853 -0.016228 -0.019108 -0.030979  0.009565 -0.111596
                                -0.261477 -0.343222  0.487080 -0.215445  1.200141  0.255647  0.559906 -1.052493

                                   1 3d1-    1 3d1-    1 3d1-    1 3d1-    1 3d1-    1 3d1-    1 3d1-    1 3d1-    1 3d1-    1 3d1- 
                                   1 3d1-    1 3d1-    1 3d1-    1 3d1-    1 3d1-    1 3d1-    1 3d1-    1 3d1- 

   1.7   2    -5.6227  -72.0866  0.000161  0.001427  0.008273  0.032797  0.092210  0.190454  0.285674  0.317829  0.237500  0.098466
                                 0.017168  0.002240 -0.000249  0.000089 -0.000033 -0.003419 -0.004114  0.000008

   2.7   0     0.0294   -3.8388 -0.000005 -0.000036 -0.000239 -0.000831 -0.002735 -0.004646 -0.009245 -0.004343 -0.014965  0.078923
                                 0.208644  0.287499 -0.100501  0.320590 -0.306214 -0.124896 -0.283462  1.097663

   3.7   0     0.0634   -8.2335 -0.000013 -0.000129 -0.000689 -0.002961 -0.007702 -0.017853 -0.021818 -0.033123  0.006789 -0.099354
                                -0.227933 -0.294568  0.485596 -0.192159  1.175562  0.239567  0.523451 -0.901841

                                   1 4f2-    1 4f2-    1 4f2- 

   1.8   0     0.2518   -6.6598 -0.132859  0.038621  1.075885

   2.8   0     0.7121  -10.4403 -1.259026 -0.044677  0.719483

 HOMO      4.2    -0.144980 =      -3.9451eV
 LUMO      4.3    -0.002377 =      -0.0647eV
 LUMO-HOMO         0.142603 =       3.8804eV


 **********************************************************************************************************************************
 DATASETS  * FILE   NREC   LENGTH (MB)   RECORD NAMES
              1      22       20.47       500      610      700      900      950      970     1000      129      960     1700   
                                          VAR    BASINP    GEOM    SYMINP    ZMAT    AOBASIS   BASIS     P2S    ABASIS    OPER   
                                         1101     1401     1411     1412     1650     1100     1400     1410     1200     1210   
                                          SR      EKINR    POTR     PVPR    MOLCAS      S      EKIN      POT      H0       H01  
                                         1080     1600   
                                         AOSYM     SMH  

              2       5        5.58       200      700     1000      520     4202   
                                        OPTIONS   GEOM     BASIS   MCVARS     RHF  

 PROGRAMS   *        TOTAL       RHF  RCCSD(T)       RHF       INT
 CPU TIMES  *        26.99      0.68      2.51      0.49     23.10
 REAL TIME  *        37.73 SEC
 DISK USED  *       759.86 MB      
 SF USED    *       126.41 MB      
 GA USED    *         0.00 MB       (max)       0.00 MB       (current)
 **********************************************************************************************************************************


 PROGRAM * POP (Mulliken population analysis)

 
 Density matrix read from record         4202.2  Type=RHF/CHARGE (state 1.2)
 
 Population analysis by basis function type

 Unique atom        s        p        d        f        g    Total    Charge
   1  SR      8.97953 18.99984 10.02047  0.00016  0.00000 38.00000  + 0.00000


 **********************************************************************************************************************************
 DATASETS  * FILE   NREC   LENGTH (MB)   RECORD NAMES
              1      22       20.47       500      610      700      900      950      970     1000      129      960     1700   
                                          VAR    BASINP    GEOM    SYMINP    ZMAT    AOBASIS   BASIS     P2S    ABASIS    OPER   
                                         1101     1401     1411     1412     1650     1100     1400     1410     1200     1210   
                                          SR      EKINR    POTR     PVPR    MOLCAS      S      EKIN      POT      H0       H01  
                                         1080     1600   
                                         AOSYM     SMH  

              2       5        5.58       200      700     1000      520     4202   
                                        OPTIONS   GEOM     BASIS   MCVARS     RHF  

 PROGRAMS   *        TOTAL       POP       RHF  RCCSD(T)       RHF       INT
 CPU TIMES  *        27.00      0.01      0.68      2.51      0.49     23.10
 REAL TIME  *        37.78 SEC
 DISK USED  *       759.86 MB      
 SF USED    *       126.41 MB      
 GA USED    *         0.00 MB       (max)       0.00 MB       (current)
 **********************************************************************************************************************************


 PROGRAM * MULTI (Direct Multiconfiguration SCF)       Authors: P.J. Knowles, H.-J. Werner (1984)     S.T. Elbert (1988)


 Number of closed-shell orbitals:  18 (   6   3   3   1   3   1   1   0 )
 Number of active  orbitals:        4 (   1   1   1   0   1   0   0   0 )
 Number of external orbitals:     183 (  60  23  23  17  23  17  17   3 )

 State symmetry 1

 Orbital occupancy restrictions for symmetry 2
  1      1       2000                            

 Number of electrons:     2    Spin symmetry=Triplet   Space symmetry=2
 Number of states:        1
 Number of CSFs:          1

 State symmetry 2

 Orbital occupancy restrictions for symmetry 3
  1      1       2000                            

 Number of electrons:     2    Spin symmetry=Triplet   Space symmetry=3
 Number of states:        1
 Number of CSFs:          1

 State symmetry 3

 Orbital occupancy restrictions for symmetry 5
  1      1       2000                            

 Number of electrons:     2    Spin symmetry=Triplet   Space symmetry=5
 Number of states:        1
 Number of CSFs:          1
 
 Maximum number of shells:             1
 Maximum number of spin couplings:     1

 Storage for configuration lists      14, coupling coefficients      2, address lists     69

 Molecular orbitals read from record     4202.2  Type=RHF/CANONICAL (state 1.2)
 *** IN SYMMETRY 1 ORBITAL  3 SYMMETRY CONTAMINATION OF 0.125D-03 HAS BEEN REMOVED
 *** IN SYMMETRY 1 ORBITAL  4 SYMMETRY CONTAMINATION OF 0.367D+00 HAS BEEN REMOVED
 *** IN SYMMETRY 1 ORBITAL  5 SYMMETRY CONTAMINATION OF 0.366D+00 HAS BEEN REMOVED
 *** IN SYMMETRY 1 ORBITAL  6 SYMMETRY CONTAMINATION OF 0.281D-02 HAS BEEN REMOVED
 *** IN SYMMETRY 1 ORBITAL  7 SYMMETRY CONTAMINATION OF 0.830D-01 HAS BEEN REMOVED

 EXTRA SYMMETRY OF MOS IN SYMMETRY 1:   1 1 1 3 2 1 1 1 2 3   3 2 1 2 3 1 2 3 2 3   1 2 3 1 2 3 1 2 3 2   3 1 2 3 1 2 3 1 2 3
                                        1 2 3 1 2 3 1 2 3 1   2 3 1 1 2 3 1 1 1 1   1 1 1 1 1 1 1
 *** IN SYMMETRY 2 ORBITAL  2 SYMMETRY CONTAMINATION OF 0.412D-04 HAS BEEN REMOVED
 *** IN SYMMETRY 2 ORBITAL  3 SYMMETRY CONTAMINATION OF 0.462D-02 HAS BEEN REMOVED
 *** IN SYMMETRY 2 ORBITAL  4 SYMMETRY CONTAMINATION OF 0.862D-02 HAS BEEN REMOVED
 EXTRA SYMMETRY OF MOS IN SYMMETRY 2:   1 1 1 1 1 1 2 3 1 2   3 1 2 3 1 1 1 1 1 1   1 1 1 1 1 1 1
 *** IN SYMMETRY 3 ORBITAL  2 SYMMETRY CONTAMINATION OF 0.291D-04 HAS BEEN REMOVED
 *** IN SYMMETRY 3 ORBITAL  3 SYMMETRY CONTAMINATION OF 0.329D-02 HAS BEEN REMOVED
 *** IN SYMMETRY 3 ORBITAL  4 SYMMETRY CONTAMINATION OF 0.361D-02 HAS BEEN REMOVED
 EXTRA SYMMETRY OF MOS IN SYMMETRY 3:   1 1 1 1 1 1 2 3 1 2   3 1 2 3 1 1 1 1 1 1   1 1 1 1 1 1 1
 *** IN SYMMETRY 5 ORBITAL  2 SYMMETRY CONTAMINATION OF 0.335D-04 HAS BEEN REMOVED
 *** IN SYMMETRY 5 ORBITAL  3 SYMMETRY CONTAMINATION OF 0.379D-02 HAS BEEN REMOVED
 *** IN SYMMETRY 5 ORBITAL  4 SYMMETRY CONTAMINATION OF 0.415D-02 HAS BEEN REMOVED
 EXTRA SYMMETRY OF MOS IN SYMMETRY 5:   1 1 1 1 1 1 2 3 1 2   3 1 2 3 1 1 1 1 1 1   1 1 1 1 1 1 1

 Wavefunction dump at record             5202.2

 Convergence thresholds  0.10E-01 (gradient)  0.10E-05 (energy)  0.10E-02 (step length)

 Weight factors for state symmetry  1:    0.33333
 Weight factors for state symmetry  2:    0.33333
 Weight factors for state symmetry  3:    0.33333

 Number of orbital rotations:      762   (    15 Core/Active    618 Core/Virtual   0 Active/Active    129 Active/Virtual)
 Total number of variables:        765


 ITER. MIC  NCI  NEG     ENERGY(VAR)     ENERGY(PROJ)   ENERGY CHANGE     GRAD(0)  GRAD(ORB)   GRAD(CI)     STEP       TIME

   1   22   21    0   -3177.31306634   -3177.32454940   -0.01148306    0.02325716 0.00000000 0.00000000  0.62D+00      0.36
   2   18   24    0   -3177.32453897   -3177.32454209   -0.00000311    0.00150185 0.00000000 0.00000000  0.34D-02      0.71
   3   16   15    0   -3177.32454209   -3177.32454209   -0.00000000    0.00000086 0.00000000 0.00000000  0.55D-05      0.96

 ** WVFN ****  CONVERGENCE REACHED, FINAL GRADIENT:  0.13D-09



 Results for state 1.2
 =====================

 !MCSCF STATE 1.2 Energy            -3177.324542088765
 Nuclear energy                         0.00000000
 Kinetic energy                      3455.60722947
 One electron energy                -4395.30534511
 Two electron energy                 1217.98080302
 Virial ratio                           1.91946924

 !MCSCF STATE 1.2 Dipole moment         0.00000000     0.00000000     0.00000000
 Dipole moment /Debye                   0.00000000     0.00000000     0.00000000



 Results for state 1.3
 =====================

 !MCSCF STATE 1.3 Energy            -3177.324542088765
 Nuclear energy                         0.00000000
 Kinetic energy                      3455.60722947
 One electron energy                -4395.30534511
 Two electron energy                 1217.98080302
 Virial ratio                           1.91946924

 !MCSCF STATE 1.3 Dipole moment         0.00000000     0.00000000     0.00000000
 Dipole moment /Debye                   0.00000000     0.00000000     0.00000000



 Results for state 1.5
 =====================

 !MCSCF STATE 1.5 Energy            -3177.324542088762
 Nuclear energy                         0.00000000
 Kinetic energy                      3455.60722947
 One electron energy                -4395.30534511
 Two electron energy                 1217.98080302
 Virial ratio                           1.91946924

 !MCSCF STATE 1.5 Dipole moment         0.00000000     0.00000000     0.00000000
 Dipole moment /Debye                   0.00000000     0.00000000     0.00000000

 State-averaged charge density matrix saved on record  5202.2 (density set 1)


 NATURAL ORBITALS (state averaged)
 =================================

   Orb     Occ        Energy       Coefficients

                                   1 1s      1 1s      1 1s      1 1s      1 1s      1 1s      1 1s      1 1s      1 1s      1 1s   
                                   1 1s      1 1s      1 1s      1 1s      1 1s      1 1s      1 1s      1 1s      1 1s      1 1s   
                                   1 1s      1 1s      1 1s      1 1s      1 1s      1 1s      1 1s      1 1s      1 1s      1 1s   
                                   1 1s      1 3d0     1 3d2+    1 3d0     1 3d2+    1 3d0     1 3d2+    1 3d0     1 3d2+    1 3d0  
                                   1 3d2+    1 3d0     1 3d2+    1 3d0     1 3d2+    1 3d0     1 3d2+    1 3d0     1 3d2+    1 3d0  
                                   1 3d2+    1 3d0     1 3d2+    1 3d0     1 3d2+    1 3d0     1 3d2+    1 3d0     1 3d2+    1 3d0  
                                   1 3d2+    1 3d0     1 3d2+    1 3d0     1 3d2+    1 3d0     1 3d2+ 

   1.1  2.00000  -595.279293     0.000048  0.000073  0.000195  0.000393  0.000837  0.001680  0.003396  0.006826  0.013908  0.028556
                                 0.058335  0.114024  0.200183  0.285695  0.281268  0.147430  0.025265 -0.000224  0.000649 -0.000409
                                 0.000262 -0.000360  0.002163 -0.000549  0.000027 -0.000005  0.000004 -0.000002 -0.002390  0.000968
                                 0.000000  0.000000 -0.000000  0.000000 -0.000000  0.000000 -0.000000  0.000000 -0.000000  0.000000
                                -0.000000  0.000000 -0.000000  0.000000 -0.000000  0.000000 -0.000000  0.000000 -0.000000  0.000000
                                -0.000000  0.000000 -0.000000  0.000000 -0.000000 -0.000000  0.000000  0.000000 -0.000000 -0.000000
                                 0.000000 -0.000000  0.000000 -0.000000  0.000000  0.000000 -0.000000

   2.1  2.00000   -83.144262    -0.000016 -0.000024 -0.000064 -0.000129 -0.000274 -0.000552 -0.001120 -0.002263 -0.004655 -0.009698
                                -0.020366 -0.041756 -0.080372 -0.135047 -0.174183 -0.097583  0.204702  0.514289  0.379663  0.081963
                                 0.001604  0.003087 -0.011165  0.002289 -0.000117  0.000018 -0.000014  0.000007  0.011825 -0.004258
                                -0.000002 -0.000000  0.000000 -0.000000  0.000000 -0.000000  0.000000 -0.000000  0.000000 -0.000000
                                 0.000000 -0.000000  0.000000 -0.000000  0.000000 -0.000000  0.000000 -0.000000  0.000000 -0.000000
                                 0.000000 -0.000000  0.000000 -0.000000  0.000000  0.000000 -0.000000 -0.000000  0.000000  0.000000
                                -0.000000  0.000000 -0.000000  0.000000 -0.000000 -0.000000  0.000000

   3.1  2.00000   -13.990051     0.000006  0.000010  0.000026  0.000053  0.000113  0.000226  0.000460  0.000929  0.001914  0.003996
                                 0.008423  0.017378  0.033890  0.058278  0.078440  0.046123 -0.118387 -0.393641 -0.393174  0.151861
                                 0.683664  0.438508 -0.045517  0.023943 -0.000538  0.000164 -0.000131  0.000059  0.106063 -0.039831
                                -0.000016  0.000000 -0.000000  0.000000 -0.000000  0.000000 -0.000000  0.000000 -0.000000  0.000000
                                -0.000000  0.000000 -0.000000  0.000000 -0.000000  0.000000 -0.000000  0.000000 -0.000000  0.000000
                                -0.000000  0.000000 -0.000000  0.000000 -0.000000 -0.000000  0.000000  0.000000 -0.000000 -0.000000
                                 0.000000 -0.000000  0.000000 -0.000000  0.000000  0.000000 -0.000000

   4.1  2.00000    -5.623294     0.000000  0.000000  0.000000  0.000000  0.000000  0.000000  0.000000  0.000000  0.000000  0.000000
                                 0.000000  0.000000  0.000000  0.000000  0.000000  0.000000 -0.000000 -0.000000 -0.000000  0.000000
                                 0.000000  0.000000 -0.000000  0.000000 -0.000000  0.000000 -0.000000  0.000000  0.000000 -0.000000
                                -0.000000  0.000161 -0.000000  0.001427 -0.000000  0.008274 -0.000000  0.032799 -0.000000  0.092215
                                -0.000000  0.190465 -0.000000  0.285691 -0.000000  0.317840 -0.000000  0.237475 -0.000000  0.098457
                                -0.000000  0.017146 -0.000000  0.002226 -0.000000 -0.000261  0.000000  0.000083 -0.000000 -0.000034
                                 0.000000 -0.003426  0.000000 -0.004119  0.000000  0.000008 -0.000000

   5.1  2.00000    -5.623294    -0.000000 -0.000000 -0.000000 -0.000000 -0.000000 -0.000000 -0.000000 -0.000000 -0.000000 -0.000000
                                -0.000000 -0.000000 -0.000000 -0.000000 -0.000000 -0.000000  0.000000  0.000000  0.000000 -0.000000
                                -0.000000 -0.000000  0.000000 -0.000000  0.000000 -0.000000  0.000000 -0.000000 -0.000000  0.000000
                                 0.000000  0.000000  0.000161  0.000000  0.001427  0.000000  0.008274  0.000000  0.032799  0.000000
                                 0.092215  0.000000  0.190465  0.000000  0.285691  0.000000  0.317840  0.000000  0.237475  0.000000
                                 0.098457  0.000000  0.017146  0.000000  0.002226  0.000000 -0.000261  0.000000  0.000083  0.000000
                                -0.000034  0.000000 -0.003426  0.000000 -0.004119  0.000000  0.000008

   6.1  2.00000    -1.982871    -0.000002 -0.000003 -0.000009 -0.000019 -0.000040 -0.000080 -0.000163 -0.000330 -0.000681 -0.001419
                                -0.002999 -0.006178 -0.012116 -0.020820 -0.028428 -0.016529  0.043896  0.157404  0.160458 -0.068679
                                -0.424072 -0.465272 -0.054443  0.789322  0.362753  0.015137 -0.006326  0.002920  0.288863 -0.065740
                                -0.000681 -0.000000  0.000000 -0.000000  0.000000 -0.000000  0.000000 -0.000000  0.000000 -0.000000
                                 0.000000 -0.000000  0.000000 -0.000000  0.000000 -0.000000  0.000000 -0.000000  0.000000 -0.000000
                                 0.000000 -0.000000  0.000000 -0.000000  0.000000  0.000000 -0.000000 -0.000000  0.000000  0.000000
                                -0.000000  0.000000 -0.000000  0.000000 -0.000000 -0.000000  0.000000

   7.1  1.00000    -0.120332     0.000001  0.000001  0.000002  0.000005  0.000011  0.000022  0.000044  0.000088  0.000182  0.000380
                                 0.000801  0.001654  0.003236  0.005582  0.007591  0.004480 -0.011924 -0.042444 -0.044188  0.019932
                                 0.119543  0.157244 -0.228884 -0.087559 -0.375936  0.435335  0.659710  0.131456  0.221187 -0.264780
                                 0.001103  0.000000 -0.000000  0.000000 -0.000000  0.000000 -0.000000  0.000000 -0.000000  0.000000
                                -0.000000  0.000000 -0.000000  0.000000 -0.000000  0.000000 -0.000000  0.000000 -0.000000  0.000000
                                -0.000000  0.000000 -0.000000  0.000000 -0.000000 -0.000000  0.000000  0.000000 -0.000000 -0.000000
                                 0.000000 -0.000000  0.000000 -0.000000  0.000000  0.000000 -0.000000

                                   1 2px     1 2px     1 2px     1 2px     1 2px     1 2px     1 2px     1 2px     1 2px     1 2px  
                                   1 2px     1 2px     1 2px     1 2px     1 2px     1 2px     1 2px     1 2px     1 2px     1 2px  
                                   1 2px     1 4f1+    1 4f3+    1 4f1+    1 4f3+    1 4f1+    1 4f3+ 

   1.2  2.00000   -73.685091     0.000024  0.000109  0.000476  0.002003  0.007933  0.028143  0.084515  0.199995  0.339367  0.347019
                                 0.158277  0.021305  0.002803 -0.000579 -0.000226 -0.000052  0.000033 -0.000015  0.000459  0.000111
                                 0.000005  0.000000  0.000000  0.000000  0.000000  0.000000  0.000000

   2.2  2.00000   -10.839667    -0.000010 -0.000046 -0.000200 -0.000842 -0.003362 -0.012059 -0.037226 -0.091665 -0.165261 -0.165883
                                 0.058292  0.383220  0.463255  0.203655  0.002554  0.000257 -0.000172  0.000081  0.025436 -0.000570
                                -0.000024  0.000000  0.000000  0.000000  0.000000  0.000000  0.000000

   3.2  2.00000    -1.131410     0.000003  0.000015  0.000064  0.000270  0.001084  0.003879  0.012083  0.029759  0.054644  0.053621
                                -0.028399 -0.163443 -0.214495 -0.087206  0.546633  0.041108 -0.010363  0.004686  0.328797  0.278239
                                -0.001427  0.000000  0.000000  0.000000  0.000000  0.000000  0.000000

   4.2  0.33333     0.007058    -0.000001 -0.000003 -0.000014 -0.000061 -0.000243 -0.000870 -0.002712 -0.006682 -0.012282 -0.012043
                                 0.006602  0.037472  0.050080  0.018975 -0.156869  0.206668  0.626149  0.302304 -0.086643 -0.129387
                                 0.004428  0.000000  0.000000  0.000000  0.000000  0.000000  0.000000

                                   1 2py     1 2py     1 2py     1 2py     1 2py     1 2py     1 2py     1 2py     1 2py     1 2py  
                                   1 2py     1 2py     1 2py     1 2py     1 2py     1 2py     1 2py     1 2py     1 2py     1 2py  
                                   1 2py     1 4f1-    1 4f3-    1 4f1-    1 4f3-    1 4f1-    1 4f3- 

   1.3  2.00000   -73.685091     0.000024  0.000109  0.000476  0.002003  0.007933  0.028143  0.084515  0.199995  0.339367  0.347019
[...]
                                -0.000000 -0.000020  0.000015 -0.000180  0.000135 -0.001048  0.000784 -0.004176  0.003122 -0.011816
                                 0.008835 -0.024580  0.018379 -0.035934  0.026868 -0.038441  0.028743 -0.018066  0.013508  0.038936
                                -0.029113  0.136995 -0.102433  0.220281 -0.164707  0.289060 -0.216135  0.240103 -0.179528  0.058042
                                -0.043399  0.018162 -0.013580  0.018192 -0.013602 -0.001221  0.000913

                                   1 2px     1 2px     1 2px     1 2px     1 2px     1 2px     1 2px     1 2px     1 2px     1 2px  
                                   1 2px     1 2px     1 2px     1 2px     1 2px     1 2px     1 2px     1 2px     1 2px     1 2px  
                                   1 2px     1 4f1+    1 4f3+    1 4f1+    1 4f3+    1 4f1+    1 4f3+ 

   1.2   2   -74.1483 -253.7666  0.000024  0.000109  0.000476  0.002003  0.007933  0.028144  0.084516  0.199998  0.339368  0.347019
                                 0.158275  0.021302  0.002804 -0.000579 -0.000226 -0.000053  0.000033 -0.000015  0.000459  0.000111
                                 0.000005 -0.000000  0.000000  0.000000 -0.000000  0.000000 -0.000000

   2.2   2   -11.3010  -82.4821 -0.000010 -0.000046 -0.000200 -0.000843 -0.003362 -0.012060 -0.037229 -0.091674 -0.165274 -0.165896
                                 0.058314  0.383236  0.463363  0.203607  0.002551  0.000277 -0.000171  0.000080  0.025284 -0.000544
                                -0.000024 -0.000000 -0.000000  0.000000  0.000000  0.000000  0.000000

   3.2   2    -1.5820  -28.5275  0.000003  0.000015  0.000065  0.000272  0.001090  0.003901  0.012146  0.029924  0.054921  0.053943
                                -0.028660 -0.164157 -0.216157 -0.086740  0.553015  0.029021 -0.008760  0.003596  0.329998  0.277068
                                -0.001053  0.000000 -0.000000  0.000000 -0.000000 -0.000000 -0.000000

   4.2   0    -0.2827   -8.9515 -0.000001 -0.000004 -0.000016 -0.000069 -0.000277 -0.000988 -0.003084 -0.007580 -0.013979 -0.013608
                                 0.007364  0.043020  0.056294  0.022846 -0.177003  0.333733  0.710754  0.103460 -0.102180 -0.162767
                                -0.003080  0.000000  0.000000 -0.000000  0.000000 -0.000000 -0.000000

   5.2   0    -0.1463   -4.8951  0.000001  0.000002  0.000010  0.000043  0.000171  0.000612  0.001911  0.004699  0.008662  0.008443
                                -0.004607 -0.026703 -0.035184 -0.013919  0.114911 -0.327851 -0.819845  1.085228  0.064492  0.117133
                                 0.366294 -0.000000  0.000000  0.000000 -0.000000  0.000000 -0.000000

                                   1 2py     1 2py     1 2py     1 2py     1 2py     1 2py     1 2py     1 2py     1 2py     1 2py  
                                   1 2py     1 2py     1 2py     1 2py     1 2py     1 2py     1 2py     1 2py     1 2py     1 2py  
                                   1 2py     1 4f1-    1 4f3-    1 4f1-    1 4f3-    1 4f1-    1 4f3- 

   1.3   2   -74.1483 -253.7666  0.000024  0.000109  0.000476  0.002003  0.007933  0.028144  0.084516  0.199998  0.339368  0.347019
                                 0.158275  0.021302  0.002804 -0.000579 -0.000226 -0.000053  0.000033 -0.000015  0.000459  0.000111
                                 0.000005 -0.000000 -0.000000  0.000000  0.000000  0.000000  0.000000

   2.3   2   -11.3010  -82.4821 -0.000010 -0.000046 -0.000200 -0.000843 -0.003362 -0.012060 -0.037229 -0.091674 -0.165274 -0.165896
                                 0.058314  0.383236  0.463363  0.203607  0.002551  0.000277 -0.000171  0.000080  0.025284 -0.000544
                                -0.000024 -0.000000  0.000000  0.000000 -0.000000  0.000000 -0.000000

   3.3   2    -1.5820  -28.5275  0.000003  0.000015  0.000065  0.000272  0.001090  0.003901  0.012146  0.029924  0.054921  0.053943
                                -0.028660 -0.164157 -0.216157 -0.086740  0.553015  0.029021 -0.008760  0.003596  0.329998  0.277068
                                -0.001053  0.000000  0.000000  0.000000  0.000000 -0.000000  0.000000

   4.3   0    -0.2827   -8.9515 -0.000001 -0.000004 -0.000016 -0.000069 -0.000277 -0.000988 -0.003084 -0.007580 -0.013979 -0.013608
                                 0.007364  0.043020  0.056294  0.022846 -0.177003  0.333733  0.710754  0.103460 -0.102180 -0.162767
                                -0.003080  0.000000 -0.000000 -0.000000 -0.000000 -0.000000  0.000000

   5.3   0    -0.1463   -4.8951  0.000001  0.000002  0.000010  0.000043  0.000171  0.000612  0.001911  0.004699  0.008662  0.008443
                                -0.004607 -0.026703 -0.035184 -0.013919  0.114911 -0.327851 -0.819845  1.085228  0.064492  0.117133
                                 0.366294 -0.000000 -0.000000  0.000000  0.000000  0.000000  0.000000

                                   1 3d2-    1 3d2-    1 3d2-    1 3d2-    1 3d2-    1 3d2-    1 3d2-    1 3d2-    1 3d2-    1 3d2- 
                                   1 3d2-    1 3d2-    1 3d2-    1 3d2-    1 3d2-    1 3d2-    1 3d2-    1 3d2- 

   1.4   2    -6.0848  -72.5567  0.000161  0.001427  0.008275  0.032806  0.092233  0.190502  0.285733  0.317889  0.237482  0.098247
                                 0.017046  0.002204 -0.000246  0.000088 -0.000032 -0.003410 -0.004073  0.000008

   2.4   0    -0.3067  -14.7550 -0.000025 -0.000225 -0.001309 -0.005214 -0.014754 -0.030691 -0.044868 -0.047998 -0.022558  0.048617
                                 0.171056  0.275050  0.360929  0.299799  0.072473  0.022677  0.022715 -0.001525

   3.4   0    -0.1558   -6.3406  0.000013  0.000115  0.000675  0.002666  0.007619  0.015653  0.023328  0.023862  0.013350 -0.039928
                                -0.126023 -0.202057 -0.178445 -0.061488  0.760472  0.012967  0.044811  0.337937

                                   1 2pz     1 2pz     1 2pz     1 2pz     1 2pz     1 2pz     1 2pz     1 2pz     1 2pz     1 2pz  
                                   1 2pz     1 2pz     1 2pz     1 2pz     1 2pz     1 2pz     1 2pz     1 2pz     1 2pz     1 2pz  
                                   1 2pz     1 4f0     1 4f2+    1 4f0     1 4f2+    1 4f0     1 4f2+ 

   1.5   2   -74.1483 -253.7666  0.000024  0.000109  0.000476  0.002003  0.007933  0.028144  0.084516  0.199998  0.339368  0.347019
                                 0.158275  0.021302  0.002804 -0.000579 -0.000226 -0.000053  0.000033 -0.000015  0.000459  0.000111
                                 0.000005 -0.000000 -0.000000  0.000000  0.000000  0.000000  0.000000

   2.5   2   -11.3010  -82.4821 -0.000010 -0.000046 -0.000200 -0.000843 -0.003362 -0.012060 -0.037229 -0.091674 -0.165274 -0.165896
                                 0.058314  0.383236  0.463363  0.203607  0.002551  0.000277 -0.000171  0.000080  0.025284 -0.000544
                                -0.000024 -0.000000 -0.000000  0.000000  0.000000  0.000000  0.000000

   3.5   2    -1.5820  -28.5275  0.000003  0.000015  0.000065  0.000272  0.001090  0.003901  0.012146  0.029924  0.054921  0.053943
                                -0.028660 -0.164157 -0.216157 -0.086740  0.553015  0.029021 -0.008760  0.003596  0.329998  0.277068
                                -0.001053  0.000000  0.000000 -0.000000  0.000000  0.000000  0.000000

   4.5   0    -0.2827   -8.9515 -0.000001 -0.000004 -0.000016 -0.000069 -0.000277 -0.000988 -0.003084 -0.007580 -0.013979 -0.013608
                                 0.007364  0.043020  0.056294  0.022846 -0.177003  0.333733  0.710754  0.103460 -0.102180 -0.162767
                                -0.003080 -0.000000  0.000000  0.000000 -0.000000  0.000000  0.000000

   5.5   0    -0.1463   -4.8951  0.000001  0.000002  0.000010  0.000043  0.000171  0.000612  0.001911  0.004699  0.008662  0.008443
                                -0.004607 -0.026703 -0.035184 -0.013919  0.114911 -0.327851 -0.819845  1.085228  0.064492  0.117133
                                 0.366294  0.000000 -0.000000  0.000000  0.000000 -0.000000  0.000000

                                   1 3d1+    1 3d1+    1 3d1+    1 3d1+    1 3d1+    1 3d1+    1 3d1+    1 3d1+    1 3d1+    1 3d1+ 
                                   1 3d1+    1 3d1+    1 3d1+    1 3d1+    1 3d1+    1 3d1+    1 3d1+    1 3d1+ 

   1.6   2    -6.0848  -72.5567  0.000161  0.001427  0.008275  0.032806  0.092233  0.190502  0.285733  0.317889  0.237482  0.098247
                                 0.017046  0.002204 -0.000246  0.000088 -0.000032 -0.003410 -0.004073  0.000008

   2.6   0    -0.3067  -14.7550 -0.000025 -0.000225 -0.001309 -0.005214 -0.014754 -0.030691 -0.044868 -0.047998 -0.022558  0.048617
                                 0.171056  0.275050  0.360929  0.299799  0.072473  0.022677  0.022715 -0.001525

   3.6   0    -0.1558   -6.3406  0.000013  0.000115  0.000675  0.002666  0.007619  0.015653  0.023328  0.023862  0.013350 -0.039928
                                -0.126023 -0.202057 -0.178445 -0.061488  0.760472  0.012967  0.044811  0.337937

                                   1 3d1-    1 3d1-    1 3d1-    1 3d1-    1 3d1-    1 3d1-    1 3d1-    1 3d1-    1 3d1-    1 3d1- 
                                   1 3d1-    1 3d1-    1 3d1-    1 3d1-    1 3d1-    1 3d1-    1 3d1-    1 3d1- 

   1.7   2    -6.0848  -72.5567  0.000161  0.001427  0.008275  0.032806  0.092233  0.190502  0.285733  0.317889  0.237482  0.098247
                                 0.017046  0.002204 -0.000246  0.000088 -0.000032 -0.003410 -0.004073  0.000008

   2.7   0    -0.3067  -14.7550 -0.000025 -0.000225 -0.001309 -0.005214 -0.014754 -0.030691 -0.044868 -0.047998 -0.022558  0.048617
                                 0.171056  0.275050  0.360929  0.299799  0.072473  0.022677  0.022715 -0.001525

   3.7   0    -0.1558   -6.3406  0.000013  0.000115  0.000675  0.002666  0.007619  0.015653  0.023328  0.023862  0.013350 -0.039928
                                -0.126023 -0.202057 -0.178445 -0.061488  0.760472  0.012967  0.044811  0.337937

                                   1 4f2-    1 4f2-    1 4f2- 

   1.8   0    -0.0679   -7.2801 -0.026099  0.038223  1.011861

   2.8   0     0.3174  -10.6682  1.250039  0.064504 -0.798894

 HOMO      3.2    -1.582049 =     -43.0497eV
 LUMO      7.1    -0.382841 =     -10.4176eV
 LUMO-HOMO         1.199207 =      32.6321eV


 **********************************************************************************************************************************
 DATASETS  * FILE   NREC   LENGTH (MB)   RECORD NAMES
              1      23       41.18       500      610      700      900      950      970     1000      129      960     1700   
                                          VAR    BASINP    GEOM    SYMINP    ZMAT    AOBASIS   BASIS     P2S    ABASIS    OPER   
                                         1101     1401     1411     1412     1650     1100     1400     1410     1200     1210   
                                          SR      EKINR    POTR     PVPR    MOLCAS      S      EKIN      POT      H0       H01  
                                         1080     1600     1380   
                                         AOSYM     SMH     JKOP   

              2      11       19.67       200      700     1000      520     4202     5202     2102     5202(1)  2104     2106   
                                        OPTIONS   GEOM     BASIS   MCVARS     RHF     MCSCF     RHF     MCSCF     RHF      RHF  
                                         2108   
                                          RHF  

 PROGRAMS   *        TOTAL       RHF  RCCSD(T)       RHF     MULTI       POP       RHF  RCCSD(T)       RHF     MULTI       POP
 CPU TIMES  *        44.26      0.50      1.69      0.05      1.48      0.00      0.57      2.02      0.07      0.44      0.00
 REAL TIME  *        89.35 SEC
 DISK USED  *       968.33 MB      
 SF USED    *       151.49 MB      
 GA USED    *         0.00 MB       (max)       0.00 MB       (current)
 **********************************************************************************************************************************
 SETTING SCF(6)         =     -3176.80472628  AU                              
 SETTING _CC_NORM_MAX   =         2.00000000                                  


 PROGRAM * CCSD (Restricted open-shell coupled cluster)     Authors: C. Hampel, H.-J. Werner, 1991, M. Deegan, P.J. Knowles, 1992


 Convergence thresholds:  THRVAR = 1.00D-08  THRDEN = 1.00D-06

 CCSD(T)     terms to be evaluated (factor= 1.000)


 Number of core orbitals:          14 (   5   2   2   1   2   1   1   0 )
 Number of closed-shell orbitals:   4 (   1   1   1   0   1   0   0   0 )
 Number of external orbitals:     187 (  61  24  24  17  24  17  17   3 )

 Memory could be reduced to 10.43 Mwords without degradation in triples

 Number of N-1 electron functions:               8
 Number of N-2 electron functions:              28
 Number of singly external CSFs:               266
 Number of doubly external CSFs:            102790
 Total number of CSFs:                      103056

 Molecular orbitals read from record     4202.2  Type=RHF/CANONICAL (state 1.1)

 Integral transformation finished. Total CPU:   0.39 sec, npass=  1  Memory used:   1.46 MW

 Starting RMP2 calculation

 Wavefunction is spin-projected

 ITER.      SQ.NORM     CORR.ENERGY   TOTAL ENERGY   ENERGY CHANGE        DEN1      VAR(S)    VAR(P)  DIIS     TIME
   1      1.04460918    -0.18027949 -3176.98500577    -0.18027949    -0.00042678  0.10D-15  0.12D-03  1  1     0.42
   2      1.04488541    -0.18073035 -3176.98545663    -0.00045086    -0.00000010  0.41D-19  0.28D-07  2  2     0.42
   3      1.04488772    -0.18073247 -3176.98545874    -0.00000212    -0.00000000  0.72D-22  0.60D-11  3  3     0.43
   4      1.04488773    -0.18073247 -3176.98545874    -0.00000000    -0.00000000  0.24D-24  0.20D-14  4  4     0.49

 Norm of t1 vector:      0.00000019      S-energy:    -0.00000000      T1 diagnostic:  0.00000005
 Norm of t2 vector:      0.21186725      P-energy:    -0.18073247
                                         Alpha-Beta:  -0.13546842
                                         Alpha-Alpha: -0.02263202
                                         Beta-Beta:   -0.02263202

 Spin contamination <S**2-Sz**2-Sz>     0.00000000
  Reference energy                  -3176.804726275142
  RHF-RMP2 correlation energy          -0.180732467628
 !RHF-RMP2 energy                   -3176.985458742769
 (NB above energy spin projected)

 Starting RCCSD calculation

 ITER.      SQ.NORM     CORR.ENERGY   TOTAL ENERGY   ENERGY CHANGE        DEN1      VAR(S)    VAR(P)  DIIS     TIME
   1      1.05032189    -0.19152382 -3176.99625009    -0.19152382    -0.00342493  0.11D-04  0.77D-03  1  1     0.57
   2      1.05262327    -0.19522264 -3176.99994892    -0.00369882    -0.00004651  0.28D-06  0.12D-04  2  2     0.65
   3      1.05281368    -0.19541267 -3177.00013895    -0.00019003    -0.00000126  0.33D-08  0.34D-06  3  3     0.73
   4      1.05284138    -0.19543269 -3177.00015896    -0.00002002    -0.00000002  0.31D-09  0.56D-08  4  4     0.80
   5      1.05284366    -0.19543439 -3177.00016067    -0.00000171    -0.00000000  0.49D-11  0.90D-10  5  5     0.88
   6      1.05284360    -0.19543424 -3177.00016051     0.00000016    -0.00000000  0.46D-12  0.14D-11  6  6     0.96

 Norm of t1 vector:      0.00348561      S-energy:     0.00000000      T1 diagnostic:  0.00087140
                                                                       D1 diagnostic:  0.00241361
 Norm of t2 vector:      0.22985092      P-energy:    -0.19543424
                                         Alpha-Beta:  -0.15069957
                                         Alpha-Alpha: -0.02236734
                                         Beta-Beta:   -0.02236734

 Spin contamination <S**2-Sz**2-Sz>     0.00000000

 Memory could be reduced to 10.27 Mwords without degradation in triples
 

  Correlated core orbitals:             6.1       3.2       3.3       3.5
  Orbital energies:                    -2.4339   -1.5820   -1.5820   -1.5820
 
  RCCSD core-core energy               -0.195434239643
 

 RESULTS
 =======

  Reference energy                  -3176.804726275142
  RCCSD singles energy                  0.000000001358
  RCCSD pair energy                    -0.195434241001
  RCCSD correlation energy             -0.195434239643
  Triples (T) contribution             -0.004563413624
  Total correlation energy             -0.199997653267
 
  RHF-RCCSD energy                  -3177.000160514785
  RHF-RCCSD[T] energy               -3177.004726547144
  RHF-RCCSD-T energy                -3177.004722888051
 !RHF-RCCSD(T) energy               -3177.004723928409

 Program statistics:

 Available memory in ccsd:               511999732
 Min. memory needed in ccsd:                459301
 Max. memory used in ccsd:                  563295
 Max. memory used in cckext:                580150 ( 6 integral passes)
 Max. memory used in cckint:               1459378 ( 1 integral passes)



 **********************************************************************************************************************************
 DATASETS  * FILE   NREC   LENGTH (MB)   RECORD NAMES
              1      23       41.18       500      610      700      900      950      970     1000      129      960     1700   
                                          VAR    BASINP    GEOM    SYMINP    ZMAT    AOBASIS   BASIS     P2S    ABASIS    OPER   
                                         1101     1401     1411     1412     1650     1100     1400     1410     1200     1210   
                                          SR      EKINR    POTR     PVPR    MOLCAS      S      EKIN      POT      H0       H01  
                                         1080     1600     1380   
                                         AOSYM     SMH     JKOP   

              2      11       19.67       200      700     1000      520     4202     5202     2102     5202(1)  2104     2106   
                                        OPTIONS   GEOM     BASIS   MCVARS     RHF     MCSCF     RHF     MCSCF     RHF      RHF  
                                         2108   
                                          RHF  

 PROGRAMS   *        TOTAL  RCCSD(T)       RHF  RCCSD(T)       RHF     MULTI       POP       RHF  RCCSD(T)       RHF     MULTI
 CPU TIMES  *        45.80      1.54      0.50      1.69      0.05      1.48      0.00      0.57      2.02      0.07      0.44
 REAL TIME  *        93.56 SEC
 DISK USED  *       968.33 MB      
 SF USED    *       151.49 MB      
 GA USED    *         0.00 MB       (max)       0.00 MB       (current)
 **********************************************************************************************************************************
 SETTING CCSD(6)        =     -3177.00472393  AU                              
 Output type csv         
                                                                                                                                                                                                                                                                

         SCF,CCSD
   -3177.362922,   -3177.616221
   -3177.324542,   -3177.549655
   -3177.292882,   -3177.529369
   -3177.188388,   -3177.408163
   -3177.116148,   -3177.336296
   -3176.804726,   -3177.004724
                                                  

 RCCSD(T)/USERDEF energy=  -3177.004723928409

        RCCSD(T)        RHF-SCF         RCCSD(T)        RHF-SCF         MULTI           RHF-SCF         RCCSD(T)        RHF-SCF 
  -3177.00472393  -3176.80472628  -3177.33629636  -3177.11614816  -3177.11614816  -3177.11694372  -3177.40816293  -3177.18838753
 **********************************************************************************************************************************
 Molpro calculation terminated
 Variable memory released
