
 Primary working directories    : /global/cscratch1/sd/gwang18
 Secondary working directories  : /global/cscratch1/sd/gwang18
 Wavefunction directory         : /global/homes/g/gwang18/wfu/
 Main file repository           : /global/cscratch1/sd/gwang18/

 SHA1      : 19cd028119e0e09f93f0674bd8af7968d9b3eff6
 NAME      : 2015.1.36
 ARCHNAME  : linux/x86_64
 FC        : /opt/cray/pe/craype/2.5.14/bin/ftn
 BLASLIB   : -L/opt/intel/compilers_and_libraries_2018.1.163/linux/mkl/lib/intel64 -Wl,-_start-group -lmkl_intel_ilp64 -lmkl_intel_thread -lmkl_core -Wl,-_end-group -liomp5
 id        : lbl

 Nodes     nprocs
 nid01184    15
 Number of processes for MPI-2 version of Molpro:   nprocs(total)=   16   nprocs(compute)=   15   nprocs(helper)=    1

 Using customized tuning parameters: mindgm=7; mindgv=16; mindgc=1; mindgr=1; noblas=0; minvec=7
 default implementation of scratch files=sf  

 ***,I
 memory,512,m
 
 gthresh,twoint=1.e-12
 gprint,basis,orbitals
 
 angstrom
 geometry={
 1                                                                               ! Number of atoms
 I 0.0 0.0 0.0
 }
 
 
 basis={
 Including file /global/u2/g/gwang18/projects/cc-so-ecp/i/basis/plot-check/aug-cc-basis/ecp.molpro
 Including file /global/u2/g/gwang18/projects/cc-so-ecp/i/basis/plot-check/aug-cc-basis/../../basis/I.aug-cc-pV5Z.molpro
 }
 
 {rhf
  start,atden
  wf,7,5,1
  occ,1,1,1,0,1,0,0,0
  closed,1,1,1,0,0,0,0,0
  orbital,4202.2
 }
 pop
 {multi
  start,4202.2
  occ,1,1,1,0,1,0,0,0
  closed,1,0,0,0,0,0,0,0
  wf,7,2,1;state,1
  wf,7,3,1;state,1
  wf,7,5,1;state,1
  natorb,ci,print
  orbital,5202.2
 }
 {rhf,nitord=1,maxit=0
  start,5202.2
  wf,7,5,1
  occ,1,1,1,0,1,0,0,0
  closed,1,1,1,0,0,0,0,0
  print,orbitals=2
 }
 scf(1)=energy
 {uccsd(t);maxit,100;core}
 ccsd(1)=energy
 
 
 table,scf,ccsd
 save
 type,csv
 

 Variables initialized (889), CPU time= 0.01 sec
 Commands  initialized (702), CPU time= 0.02 sec, 572 directives.
 Default parameters read. Elapsed time= 0.13 sec

 Checking input...
 Passed
1


                                         ***  PROGRAM SYSTEM MOLPRO  ***
                                       Copyright, TTI GmbH Stuttgart, 2015
                                    Version 2015.1 linked Dec 29 2018 15:55:43


 **********************************************************************************************************************************
 LABEL *   I                                                                             
  64 bit mpp version                                                                     DATE: 16-Dec-21          TIME: 12:33:04  
 **********************************************************************************************************************************

 SHA1:             19cd028119e0e09f93f0674bd8af7968d9b3eff6
 **********************************************************************************************************************************

 THRESHOLDS:

 ZERO    =  1.00D-12  ONEINT  =  1.00D-12  TWOINT  =  1.00D-12  PREFAC  =  1.00D-14  LOCALI  =  1.00D-09  EORDER  =  1.00D-04
 ENERGY  =  0.00D+00  ETEST   =  0.00D+00  EDENS   =  0.00D+00  THRDEDEF=  1.00D-06  GRADIENT=  1.00D-02  STEP    =  1.00D-03
 ORBITAL =  1.00D-05  CIVEC   =  1.00D-05  COEFF   =  1.00D-04  PRINTCI =  5.00D-02  PUNCHCI =  9.90D+01  OPTGRAD =  3.00D-04
 OPTENERG=  1.00D-06  OPTSTEP =  3.00D-04  THRGRAD =  1.00D-10  COMPRESS=  1.00D-11  VARMIN  =  1.00D-07  VARMAX  =  1.00D-03
 THRDOUB =  0.00D+00  THRDIV  =  1.00D-05  THRRED  =  1.00D-07  THRPSP  =  1.00D+00  THRDC   =  1.00D-10  THRCS   =  1.00D-10
 THRNRM  =  1.00D-08  THREQ   =  0.00D+00  THRDE   =  1.00D+00  THRREF  =  1.00D-05  SPARFAC =  1.00D+00  THRDLP  =  1.00D-07
 THRDIA  =  1.00D-10  THRDLS  =  1.00D-07  THRGPS  =  0.00D+00  THRKEX  =  0.00D+00  THRDIS  =  2.00D-01  THRVAR  =  1.00D-10
 THRLOC  =  1.00D-06  THRGAP  =  1.00D-06  THRLOCT = -1.00D+00  THRGAPT = -1.00D+00  THRORB  =  1.00D-06  THRMLTP =  0.00D+00
 THRCPQCI=  1.00D-10  KEXTA   =  0.00D+00  THRCOARS=  0.00D+00  SYMTOL  =  1.00D-06  GRADTOL =  1.00D-06  THROVL  =  1.00D-08
 THRORTH =  1.00D-08  GRID    =  1.00D-06  GRIDMAX =  1.00D-03  DTMAX   =  0.00D+00  THROCCDE=  1.00D-01  THROCCDE=  1.00D-01



 ZUNIT=ANG
 

Geometry recognized as XYZ


 Variable memory set to  512000000 words,  buffer space   230000 words

 SETTING BASIS          =    USERDEF


 Recomputing integrals since basis changed


 Using spherical harmonics



 PROGRAM * SEWARD (Integral evaluation for generally contracted gaussian basis sets)     Author: Roland Lindh, 1990

 Geometry written to block  1 of record 700

 Orientation using atomic masses  
 Molecule type: Atom
 Symmetry elements: X,Y,Z
 Rotational constants:       0.0000000      0.0000000      0.0000000 GHz  (calculated with average atomic masses)

 Point group  D2h 



 ATOMIC COORDINATES

 NR  ATOM    CHARGE       X              Y              Z

   1  I       7.00    0.000000000    0.000000000    0.000000000


          I   CORE POTENTIAL

          f POTENTIAL

 POWERS             1              3              2              2
 EXPONENTIALS   12.00134       12.03588       3.022296      0.9779056    
 COEFFICIENTS   7.000000       84.00936      -3.998559      -3.050310    

          s - f POTENTIAL

 POWERS             2              2
 EXPONENTIALS   3.150276       1.008080    
 COEFFICIENTS   114.0238       1.974146    

          p - f POTENTIAL

 POWERS             2              2
 EXPONENTIALS   2.954190      0.7308215    
 COEFFICIENTS   111.4666       1.710240    

          d - f POTENTIAL

 POWERS             2              2
 EXPONENTIALS   2.604979      0.8995931    
 COEFFICIENTS   45.30084       8.704290    


 BASIS DATA

   Nr Sym  Nuc  Type         Exponents   Contraction coefficients

    1.1 Ag    1  1s          61.701593     0.000480
                             29.837151    -0.002928
                             14.428405     0.013931
                              6.977170    -0.077260
                              3.373963     0.362021
                              1.631553    -0.697646
                              0.788973    -0.135463
                              0.381525     0.575037
                              0.184495     0.592546
                              0.089216     0.182295
    2.1 Ag    1  1s           1.262805     1.000000
    3.1 Ag    1  1s           0.575758     1.000000
    4.1 Ag    1  1s           0.262509     1.000000
    5.1 Ag    1  1s           0.119687     1.000000
    6.1 Ag    1  1s           0.047875     1.000000
    7.1 Ag    1  3d0          1.259407     1.000000
    8.1 Ag    1  3d2+         1.259407     1.000000
    9.1 Ag    1  3d0          0.613337     1.000000
   10.1 Ag    1  3d2+         0.613337     1.000000
   11.1 Ag    1  3d0          0.298698     1.000000
   12.1 Ag    1  3d2+         0.298698     1.000000
   13.1 Ag    1  3d0          0.145467     1.000000
   14.1 Ag    1  3d2+         0.145467     1.000000
   15.1 Ag    1  3d0          0.058187     1.000000
   16.1 Ag    1  3d2+         0.058187     1.000000
   17.1 Ag    1  5g0          0.726611     1.000000
   18.1 Ag    1  5g4+         0.726611     1.000000
   19.1 Ag    1  5g2+         0.726611     1.000000
   20.1 Ag    1  5g0          0.329675     1.000000
   21.1 Ag    1  5g4+         0.329675     1.000000
   22.1 Ag    1  5g2+         0.329675     1.000000
   23.1 Ag    1  5g0          0.131870     1.000000
   24.1 Ag    1  5g4+         0.131870     1.000000
   25.1 Ag    1  5g2+         0.131870     1.000000
    1.2 B3u   1  2px         33.795456    -0.000318
                             16.225632     0.002086
                              7.790134    -0.012949
                              3.740143     0.080672
                              1.795691    -0.242571
                              0.862134     0.014118
                              0.413922     0.351558
                              0.198729     0.473120
                              0.095412     0.278425
                              0.045809     0.052566
    2.2 B3u   1  2px          1.459730     1.000000
    3.2 B3u   1  2px          0.576726     1.000000
    4.2 B3u   1  2px          0.227859     1.000000
    5.2 B3u   1  2px          0.090025     1.000000
    6.2 B3u   1  2px          0.036010     1.000000
    7.2 B3u   1  4f1+         0.803709     1.000000
    8.2 B3u   1  4f3+         0.803709     1.000000
    9.2 B3u   1  4f1+         0.395153     1.000000
   10.2 B3u   1  4f3+         0.395153     1.000000
   11.2 B3u   1  4f1+         0.194282     1.000000
   12.2 B3u   1  4f3+         0.194282     1.000000
   13.2 B3u   1  4f1+         0.077713     1.000000
   14.2 B3u   1  4f3+         0.077713     1.000000
   15.2 B3u   1  6h1+         0.605896     1.000000
   16.2 B3u   1  6h3+         0.605896     1.000000
   17.2 B3u   1  6h5+         0.605896     1.000000
   18.2 B3u   1  6h1+         0.242358     1.000000
   19.2 B3u   1  6h3+         0.242358     1.000000
   20.2 B3u   1  6h5+         0.242358     1.000000
    1.3 B2u   1  2py         33.795456    -0.000318
                             16.225632     0.002086
                              7.790134    -0.012949
                              3.740143     0.080672
                              1.795691    -0.242571
                              0.862134     0.014118
                              0.413922     0.351558
                              0.198729     0.473120
                              0.095412     0.278425
                              0.045809     0.052566
    2.3 B2u   1  2py          1.459730     1.000000
    3.3 B2u   1  2py          0.576726     1.000000
    4.3 B2u   1  2py          0.227859     1.000000
    5.3 B2u   1  2py          0.090025     1.000000
    6.3 B2u   1  2py          0.036010     1.000000
    7.3 B2u   1  4f1-         0.803709     1.000000
    8.3 B2u   1  4f3-         0.803709     1.000000
    9.3 B2u   1  4f1-         0.395153     1.000000
   10.3 B2u   1  4f3-         0.395153     1.000000
   11.3 B2u   1  4f1-         0.194282     1.000000
   12.3 B2u   1  4f3-         0.194282     1.000000
   13.3 B2u   1  4f1-         0.077713     1.000000
   14.3 B2u   1  4f3-         0.077713     1.000000
   15.3 B2u   1  6h1-         0.605896     1.000000
   16.3 B2u   1  6h3-         0.605896     1.000000
   17.3 B2u   1  6h5-         0.605896     1.000000
   18.3 B2u   1  6h1-         0.242358     1.000000
   19.3 B2u   1  6h3-         0.242358     1.000000
   20.3 B2u   1  6h5-         0.242358     1.000000
    1.4 B1g   1  3d2-         1.259407     1.000000
    2.4 B1g   1  3d2-         0.613337     1.000000
    3.4 B1g   1  3d2-         0.298698     1.000000
    4.4 B1g   1  3d2-         0.145467     1.000000
    5.4 B1g   1  3d2-         0.058187     1.000000
    6.4 B1g   1  5g2-         0.726611     1.000000
    7.4 B1g   1  5g4-         0.726611     1.000000
    8.4 B1g   1  5g2-         0.329675     1.000000
    9.4 B1g   1  5g4-         0.329675     1.000000
   10.4 B1g   1  5g2-         0.131870     1.000000
   11.4 B1g   1  5g4-         0.131870     1.000000
    1.5 B1u   1  2pz         33.795456    -0.000318
                             16.225632     0.002086
                              7.790134    -0.012949
                              3.740143     0.080672
                              1.795691    -0.242571
                              0.862134     0.014118
                              0.413922     0.351558
                              0.198729     0.473120
                              0.095412     0.278425
                              0.045809     0.052566
    2.5 B1u   1  2pz          1.459730     1.000000
    3.5 B1u   1  2pz          0.576726     1.000000
    4.5 B1u   1  2pz          0.227859     1.000000
    5.5 B1u   1  2pz          0.090025     1.000000
    6.5 B1u   1  2pz          0.036010     1.000000
    7.5 B1u   1  4f0          0.803709     1.000000
    8.5 B1u   1  4f2+         0.803709     1.000000
    9.5 B1u   1  4f0          0.395153     1.000000
   10.5 B1u   1  4f2+         0.395153     1.000000
   11.5 B1u   1  4f0          0.194282     1.000000
   12.5 B1u   1  4f2+         0.194282     1.000000
   13.5 B1u   1  4f0          0.077713     1.000000
   14.5 B1u   1  4f2+         0.077713     1.000000
   15.5 B1u   1  6h2+         0.605896     1.000000
   16.5 B1u   1  6h4+         0.605896     1.000000
   17.5 B1u   1  6h0          0.605896     1.000000
   18.5 B1u   1  6h2+         0.242358     1.000000
   19.5 B1u   1  6h4+         0.242358     1.000000
   20.5 B1u   1  6h0          0.242358     1.000000
    1.6 B2g   1  3d1+         1.259407     1.000000
    2.6 B2g   1  3d1+         0.613337     1.000000
    3.6 B2g   1  3d1+         0.298698     1.000000
    4.6 B2g   1  3d1+         0.145467     1.000000
    5.6 B2g   1  3d1+         0.058187     1.000000
    6.6 B2g   1  5g1+         0.726611     1.000000
    7.6 B2g   1  5g3+         0.726611     1.000000
    8.6 B2g   1  5g1+         0.329675     1.000000
    9.6 B2g   1  5g3+         0.329675     1.000000
   10.6 B2g   1  5g1+         0.131870     1.000000
   11.6 B2g   1  5g3+         0.131870     1.000000
    1.7 B3g   1  3d1-         1.259407     1.000000
    2.7 B3g   1  3d1-         0.613337     1.000000
    3.7 B3g   1  3d1-         0.298698     1.000000
    4.7 B3g   1  3d1-         0.145467     1.000000
    5.7 B3g   1  3d1-         0.058187     1.000000
    6.7 B3g   1  5g1-         0.726611     1.000000
    7.7 B3g   1  5g3-         0.726611     1.000000
    8.7 B3g   1  5g1-         0.329675     1.000000
    9.7 B3g   1  5g3-         0.329675     1.000000
   10.7 B3g   1  5g1-         0.131870     1.000000
   11.7 B3g   1  5g3-         0.131870     1.000000
    1.8 Au    1  4f2-         0.803709     1.000000
    2.8 Au    1  4f2-         0.395153     1.000000
    3.8 Au    1  4f2-         0.194282     1.000000
    4.8 Au    1  4f2-         0.077713     1.000000
    5.8 Au    1  6h4-         0.605896     1.000000
    6.8 Au    1  6h2-         0.605896     1.000000
    7.8 Au    1  6h4-         0.242358     1.000000
    8.8 Au    1  6h2-         0.242358     1.000000

 NUCLEAR CHARGE:                    7
 NUMBER OF PRIMITIVE AOS:         217
 NUMBER OF SYMMETRY AOS:          162
 NUMBER OF CONTRACTIONS:          126   (  25Ag  +  20B3u +  20B2u +  11B1g +  20B1u +  11B2g +  11B3g +   8Au  )
 NUMBER OF CORE ORBITALS:           0   (   0Ag  +   0B3u +   0B2u +   0B1g +   0B1u +   0B2g +   0B3g +   0Au  )
 NUMBER OF VALENCE ORBITALS:        4   (   1Ag  +   1B3u +   1B2u +   0B1g +   1B1u +   0B2g +   0B3g +   0Au  )


 NUCLEAR REPULSION ENERGY    0.00000000

 EXTRA SYMMETRY OF AOS IN SYMMETRY 1:   1 1 1 1 1 1 2 3 2 3   2 3 2 3 2 3 4 5 6 4   5 6 4 5 6
 EXTRA SYMMETRY OF AOS IN SYMMETRY 2:   1 1 1 1 1 1 2 3 2 3   2 3 2 3 4 5 6 4 5 6
 EXTRA SYMMETRY OF AOS IN SYMMETRY 3:   1 1 1 1 1 1 2 3 2 3   2 3 2 3 4 5 6 4 5 6
 EXTRA SYMMETRY OF AOS IN SYMMETRY 4:   1 1 1 1 1 2 3 2 3 2   3
 EXTRA SYMMETRY OF AOS IN SYMMETRY 5:   1 1 1 1 1 1 2 3 2 3   2 3 2 3 4 5 6 4 5 6
 EXTRA SYMMETRY OF AOS IN SYMMETRY 6:   1 1 1 1 1 2 3 2 3 2   3
 EXTRA SYMMETRY OF AOS IN SYMMETRY 7:   1 1 1 1 1 2 3 2 3 2   3
 EXTRA SYMMETRY OF AOS IN SYMMETRY 8:   1 1 1 1 2 3 2 3

 Eigenvalues of metric

         1 0.126E-02 0.521E-02 0.197E-01 0.197E-01 0.394E-01 0.130E+00 0.130E+00 0.206E+00
         2 0.212E-03 0.295E-01 0.594E-01 0.594E-01 0.136E+00 0.363E+00 0.363E+00 0.483E+00
         3 0.212E-03 0.295E-01 0.594E-01 0.594E-01 0.136E+00 0.363E+00 0.363E+00 0.483E+00
         4 0.197E-01 0.130E+00 0.206E+00 0.206E+00 0.511E+00 0.836E+00 0.836E+00 0.139E+01
         5 0.212E-03 0.295E-01 0.594E-01 0.594E-01 0.136E+00 0.363E+00 0.363E+00 0.483E+00
         6 0.197E-01 0.130E+00 0.206E+00 0.206E+00 0.511E+00 0.836E+00 0.836E+00 0.139E+01
         7 0.197E-01 0.130E+00 0.206E+00 0.206E+00 0.511E+00 0.836E+00 0.836E+00 0.139E+01
         8 0.594E-01 0.363E+00 0.483E+00 0.483E+00 0.110E+01 0.152E+01 0.152E+01 0.248E+01


 Contracted 2-electron integrals neglected if value below      1.0D-12
 AO integral compression algorithm  1   Integral accuracy      1.0D-12

     31.457 MB (compressed) written to integral file ( 56.9%)

     Node minimum: 1.311 MB, node maximum: 2.884 MB


 NUMBER OF SORTED TWO-ELECTRON INTEGRALS:     277701.     BUFFER LENGTH:  32768
 NUMBER OF SEGMENTS:   1  SEGMENT LENGTH:     277701      RECORD LENGTH: 524288

 Memory used in sort:       0.83 MW

 SORT1 READ     6989366. AND WROTE      189983. INTEGRALS IN      1 RECORDS. CPU TIME:     0.30 SEC, REAL TIME:     0.41 SEC
 SORT2 READ     2907704. AND WROTE     4156552. INTEGRALS IN     90 RECORDS. CPU TIME:     0.07 SEC, REAL TIME:     0.09 SEC

 Node minimum:      262697.  Node maximum:      287556. integrals

 OPERATOR DM      FOR CENTER  0  COORDINATES:    0.000000    0.000000    0.000000


 **********************************************************************************************************************************
 DATASETS  * FILE   NREC   LENGTH (MB)   RECORD NAMES
              1      19       20.00       500      610      700      900      950      970     1000      129      960     1100   
                                          VAR    BASINP    GEOM    SYMINP    ZMAT    AOBASIS   BASIS     P2S    ABASIS      S 
                                         1400     1410     1420     1200     1210     1080     1600     1650     1700   
                                           T        V       ECP      H0       H01     AOSYM     SMH    MOLCAS    OPER   

 PROGRAMS   *        TOTAL       INT
 CPU TIMES  *         1.71      1.14
 REAL TIME  *         2.73 SEC
 DISK USED  *        84.99 MB      
 GA USED    *         0.00 MB       (max)       0.00 MB       (current)
 **********************************************************************************************************************************


 PROGRAM * RHF-SCF (OPEN SHELL)       Authors: W. Meyer, H.-J. Werner


 NUMBER OF ELECTRONS:       4+    3-    SPACE SYMMETRY=5    SPIN SYMMETRY: Doublet 
 CONVERGENCE THRESHOLDS:    1.00E-05 (Density)    1.00E-07 (Energy)
 MAX. NUMBER OF ITERATIONS:       60
 INTERPOLATION TYPE:            DIIS
 INTERPOLATION STEPS:              2 (START)      1 (STEP)
 LEVEL SHIFTS:                 -0.60 (CLOSED) -0.30 (OPEN) 

 Number of closed-shell orbitals:    3 (   1   1   1   0   0   0   0   0 )
 Number of open-shell orbitals:      1 (   0   0   0   0   1   0   0   0 )



   Atom=I  basis=ECP46MDF_GUESS    lmin=0  lmax=1

 Orbital guess generated from atomic densities. Full valence occupancy:    1   1   1   0   1   0   0   0


 Molecular orbital dump at record        4202.2

 ITERATION    DDIFF          GRAD             ENERGY        2-EL.EN.            DIPOLE MOMENTS         DIIS   ORB.
    1      0.000D+00      0.000D+00       -11.21416298     14.765307    0.00000    0.00000    0.00000    0    start
    2      0.000D+00      0.388D-02       -11.21667169     14.832889    0.00000    0.00000    0.00000    1    diag,B
    3      0.400D-02      0.134D-02       -11.21716686     14.867032    0.00000    0.00000    0.00000    2    diag,B
    4      0.137D-02      0.346D-03       -11.21720740     14.874848    0.00000    0.00000    0.00000    3    diag,B
    5      0.428D-03      0.908D-04       -11.21721043     14.876083    0.00000    0.00000    0.00000    4    diag,B
    6      0.159D-03      0.243D-04       -11.21721065     14.876511    0.00000    0.00000    0.00000    5    diag,B
    7      0.626D-04      0.574D-05       -11.21721066     14.876590    0.00000    0.00000    0.00000    6    fixocc
    8      0.134D-04      0.176D-05       -11.21721066     14.876625    0.00000    0.00000    0.00000    7    diag,B
    9      0.313D-05      0.601D-06       -11.21721066     14.876632    0.00000    0.00000    0.00000    0    orth

 Final alpha occupancy:   1   1   1   0   1   0   0   0
 Final beta  occupancy:   1   1   1   0   0   0   0   0

 !RHF STATE 1.5 Energy                -11.217210663537
 Nuclear energy                         0.00000000
 One-electron energy                  -18.65552671
 Two-electron energy                    7.43831605
 Virial quotient                       -3.15796603
 !RHF STATE 1.5 Dipole moment           0.00000000     0.00000000     0.00000000
 Dipole moment /Debye                   0.00000000     0.00000000     0.00000000

 ELECTRON ORBITALS
 =================


   Orb  Occ    Energy  Couls-En    Coefficients

                                   1 1s      1 1s      1 1s      1 1s      1 1s      1 1s      1 3d0     1 3d2+    1 3d0     1 3d2+ 
                                   1 3d0     1 3d2+    1 3d0     1 3d2+    1 3d0     1 3d2+    1 5g0     1 5g4+    1 5g2+    1 5g0  
                                   1 5g4+    1 5g2+    1 5g0     1 5g4+    1 5g2+ 

   1.1   2    -0.8798   -3.9594  0.999093  0.000324 -0.002702  0.005785 -0.004883  0.002538 -0.000168  0.000000  0.000762 -0.000000
                                -0.000168  0.000000 -0.005609 -0.000000 -0.001170 -0.000000  0.000017  0.000000 -0.000000  0.000001
                                -0.000000  0.000000 -0.000022  0.000000  0.000000

                                   1 2px     1 2px     1 2px     1 2px     1 2px     1 2px     1 4f1+    1 4f3+    1 4f1+    1 4f3+ 
                                   1 4f1+    1 4f3+    1 4f1+    1 4f3+    1 6h1+    1 6h3+    1 6h5+    1 6h1+    1 6h3+    1 6h5+ 


   1.2   2    -0.3912   -2.8860  0.994314 -0.000210  0.000916 -0.003834  0.007846  0.003546  0.002811  0.000000  0.004367  0.000000
                                 0.005344 -0.000000  0.001254  0.000000  0.000045 -0.000000 -0.000000  0.000059 -0.000000  0.000000

                                   1 2py     1 2py     1 2py     1 2py     1 2py     1 2py     1 4f1-    1 4f3-    1 4f1-    1 4f3- 
                                   1 4f1-    1 4f3-    1 4f1-    1 4f3-    1 6h1-    1 6h3-    1 6h5-    1 6h1-    1 6h3-    1 6h5- 


   1.3   2    -0.3912   -2.8860  0.994314 -0.000210  0.000916 -0.003834  0.007846  0.003546  0.002811 -0.000000  0.004367 -0.000000
                                 0.005344  0.000000  0.001254 -0.000000  0.000045  0.000000 -0.000000  0.000059  0.000000  0.000000

                                   1 2pz     1 2pz     1 2pz     1 2pz     1 2pz     1 2pz     1 4f0     1 4f2+    1 4f0     1 4f2+ 
                                   1 4f0     1 4f2+    1 4f0     1 4f2+    1 6h2+    1 6h4+    1 6h0     1 6h2+    1 6h4+    1 6h0  


   1.5   +    -0.4546   -2.9716  1.024886  0.001252 -0.004444  0.016093 -0.037053 -0.011892  0.008119 -0.000000  0.013103 -0.000000
                                 0.014258 -0.000000  0.002538 -0.000000 -0.000000 -0.000000  0.000366  0.000000  0.000000  0.000363

 HOMO      1.2    -0.391208 =     -10.6453eV
 LUMO      2.5     0.090664 =       2.4671eV
 LUMO-HOMO         0.481872 =      13.1124eV


 **********************************************************************************************************************************
 DATASETS  * FILE   NREC   LENGTH (MB)   RECORD NAMES
              1      19       20.01       500      610      700      900      950      970     1000      129      960     1100   
                                          VAR    BASINP    GEOM    SYMINP    ZMAT    AOBASIS   BASIS     P2S    ABASIS      S 
                                         1400     1410     1420     1200     1210     1080     1600     1650     1700   
                                           T        V       ECP      H0       H01     AOSYM     SMH    MOLCAS    OPER   

              2       4        2.83       700     1000      520     4202   
                                         GEOM     BASIS   MCVARS     RHF  

 PROGRAMS   *        TOTAL       RHF       INT
 CPU TIMES  *         1.82      0.11      1.14
 REAL TIME  *         3.03 SEC
 DISK USED  *       433.10 MB      
 SF USED    *         0.01 MB      
 GA USED    *         0.00 MB       (max)       0.00 MB       (current)
 **********************************************************************************************************************************


 PROGRAM * POP (Mulliken population analysis)

 
 Density matrix read from record         4202.2  Type=RHF/CHARGE (state 1.5)
 
 Population analysis by basis function type

 Unique atom        s        p        d        f        g    Total    Charge
   1  I       1.99992  4.99843  0.00008  0.00157  0.00000  7.00000  + 0.00000


 **********************************************************************************************************************************
 DATASETS  * FILE   NREC   LENGTH (MB)   RECORD NAMES
              1      19       20.01       500      610      700      900      950      970     1000      129      960     1100   
                                          VAR    BASINP    GEOM    SYMINP    ZMAT    AOBASIS   BASIS     P2S    ABASIS      S 
                                         1400     1410     1420     1200     1210     1080     1600     1650     1700   
                                           T        V       ECP      H0       H01     AOSYM     SMH    MOLCAS    OPER   

              2       4        2.83       700     1000      520     4202   
                                         GEOM     BASIS   MCVARS     RHF  

 PROGRAMS   *        TOTAL       POP       RHF       INT
 CPU TIMES  *         1.82      0.00      0.11      1.14
 REAL TIME  *         3.04 SEC
 DISK USED  *       433.10 MB      
 SF USED    *         0.01 MB      
 GA USED    *         0.00 MB       (max)       0.00 MB       (current)
 **********************************************************************************************************************************


 PROGRAM * MULTI (Direct Multiconfiguration SCF)       Authors: P.J. Knowles, H.-J. Werner (1984)     S.T. Elbert (1988)


 Number of closed-shell orbitals:   1 (   1   0   0   0   0   0   0   0 )
 Number of active  orbitals:        3 (   0   1   1   0   1   0   0   0 )
 Number of external orbitals:     122 (  24  19  19  11  19  11  11   8 )

 State symmetry 1

 Number of electrons:     5    Spin symmetry=Doublet   Space symmetry=2
 Number of states:        1
 Number of CSFs:          1   (1 determinants, 3 intermediate states)

 State symmetry 2

 Number of electrons:     5    Spin symmetry=Doublet   Space symmetry=3
 Number of states:        1
 Number of CSFs:          1   (1 determinants, 3 intermediate states)

 State symmetry 3

 Number of electrons:     5    Spin symmetry=Doublet   Space symmetry=5
 Number of states:        1
 Number of CSFs:          1   (1 determinants, 3 intermediate states)

 Molecular orbitals read from record     4202.2  Type=RHF/CANONICAL (state 1.5)
 *** IN SYMMETRY 1 ORBITAL  1 SYMMETRY CONTAMINATION OF 0.774D-02 HAS BEEN REMOVED

 EXTRA SYMMETRY OF MOS IN SYMMETRY 1:   1 1 2 3 2 3 1 4 6 5   2 3 4 6 5 1 2 3 4 6   5 2 3 1 1
 *** IN SYMMETRY 2 ORBITAL  1 SYMMETRY CONTAMINATION OF 0.135D-01 HAS BEEN REMOVED
 EXTRA SYMMETRY OF MOS IN SYMMETRY 2:   1 1 2 3 1 2 3 4 5 6   2 3 1 2 3 4 5 6 1 1
 *** IN SYMMETRY 3 ORBITAL  1 SYMMETRY CONTAMINATION OF 0.135D-01 HAS BEEN REMOVED
 EXTRA SYMMETRY OF MOS IN SYMMETRY 3:   1 1 2 3 1 2 3 4 5 6   2 3 1 2 3 4 5 6 1 1
 EXTRA SYMMETRY OF MOS IN SYMMETRY 4:   1 1 2 3 1 2 3 1 2 3   1
 *** IN SYMMETRY 5 ORBITAL  1 SYMMETRY CONTAMINATION OF 0.342D-01 HAS BEEN REMOVED
 EXTRA SYMMETRY OF MOS IN SYMMETRY 5:   1 1 2 3 1 2 3 6 4 5   2 3 1 2 3 6 4 5 1 1
 EXTRA SYMMETRY OF MOS IN SYMMETRY 6:   1 1 2 3 1 2 3 1 2 3   1
 EXTRA SYMMETRY OF MOS IN SYMMETRY 7:   1 1 2 3 1 2 3 1 2 3   1
 EXTRA SYMMETRY OF MOS IN SYMMETRY 8:   1 1 3 2 1 1 3 2

 Wavefunction dump at record             5202.2

 Convergence thresholds  0.10E-01 (gradient)  0.10E-05 (energy)  0.10E-02 (step length)

 Weight factors for state symmetry  1:    0.33333
 Weight factors for state symmetry  2:    0.33333
 Weight factors for state symmetry  3:    0.33333

 Number of orbital rotations:       81   (     0 Core/Active     24 Core/Virtual   0 Active/Active     57 Active/Virtual)
 Total number of variables:         84


 ITER. MIC  NCI  NEG     ENERGY(VAR)     ENERGY(PROJ)   ENERGY CHANGE     GRAD(0)  GRAD(ORB)   GRAD(CI)     STEP       TIME

   1   23   12    0     -11.21448659     -11.21512280   -0.00063620    0.02432626 0.00000000 0.00000000  0.29D-01      0.05
   2   13   12    0     -11.21512295     -11.21512296   -0.00000000    0.00006862 0.00000000 0.00000000  0.57D-04      0.08

 ** WVFN ****  CONVERGENCE REACHED, FINAL GRADIENT:  0.10D-08



 Results for state 1.2
 =====================

 !MCSCF STATE 1.2 Energy              -11.215122956824
 Nuclear energy                         0.00000000
 Kinetic energy                         3.54941064
 One electron energy                  -18.65708009
 Two electron energy                    7.44195713
 Virial ratio                           4.15971413

 !MCSCF STATE 1.2 Dipole moment         0.00000000     0.00000000     0.00000000
 Dipole moment /Debye                   0.00000000     0.00000000     0.00000000



 Results for state 1.3
 =====================

 !MCSCF STATE 1.3 Energy              -11.215122956824
 Nuclear energy                         0.00000000
 Kinetic energy                         3.54941064
 One electron energy                  -18.65708009
 Two electron energy                    7.44195713
 Virial ratio                           4.15971413

 !MCSCF STATE 1.3 Dipole moment         0.00000000     0.00000000     0.00000000
 Dipole moment /Debye                   0.00000000     0.00000000     0.00000000



 Results for state 1.5
 =====================

 !MCSCF STATE 1.5 Energy              -11.215122956825
 Nuclear energy                         0.00000000
 Kinetic energy                         3.54941064
 One electron energy                  -18.65708009
 Two electron energy                    7.44195713
 Virial ratio                           4.15971413

 !MCSCF STATE 1.5 Dipole moment         0.00000000     0.00000000     0.00000000
 Dipole moment /Debye                   0.00000000     0.00000000     0.00000000

 State-averaged charge density matrix saved on record  5202.2 (density set 1)


 NATURAL ORBITALS (state averaged)
 =================================

   Orb     Occ        Energy       Coefficients

                                   1 1s      1 1s      1 1s      1 1s      1 1s      1 1s      1 3d0     1 3d2+    1 3d0     1 3d2+ 
                                   1 3d0     1 3d2+    1 3d0     1 3d2+    1 3d0     1 3d2+    1 5g0     1 5g4+    1 5g2+    1 5g0  
                                   1 5g4+    1 5g2+    1 5g0     1 5g4+    1 5g2+ 

   1.1  2.00000    -0.879815     0.999092  0.000311 -0.002607  0.005556 -0.004700  0.002536  0.000000  0.000000  0.000000  0.000000
                                 0.000000  0.000000  0.000000  0.000000  0.000000  0.000000  0.000000  0.000000  0.000000  0.000000
                                 0.000000  0.000000  0.000000  0.000000  0.000000

                                   1 2px     1 2px     1 2px     1 2px     1 2px     1 2px     1 4f1+    1 4f3+    1 4f1+    1 4f3+ 
                                   1 4f1+    1 4f3+    1 4f1+    1 4f3+    1 6h1+    1 6h3+    1 6h5+    1 6h1+    1 6h3+    1 6h5+ 


   1.2  1.66667    -0.344623     1.000169  0.000044 -0.000080 -0.000040 -0.000144  0.000070  0.000000  0.000000  0.000000  0.000000
                                 0.000000  0.000000  0.000000  0.000000  0.000000  0.000000  0.000000  0.000000  0.000000  0.000000

                                   1 2py     1 2py     1 2py     1 2py     1 2py     1 2py     1 4f1-    1 4f3-    1 4f1-    1 4f3- 
                                   1 4f1-    1 4f3-    1 4f1-    1 4f3-    1 6h1-    1 6h3-    1 6h5-    1 6h1-    1 6h3-    1 6h5- 


   1.3  1.66667    -0.344623     1.000169  0.000044 -0.000080 -0.000040 -0.000144  0.000070  0.000000  0.000000  0.000000  0.000000
                                 0.000000  0.000000  0.000000  0.000000  0.000000  0.000000  0.000000  0.000000  0.000000  0.000000

                                   1 2pz     1 2pz     1 2pz     1 2pz     1 2pz     1 2pz     1 4f0     1 4f2+    1 4f0     1 4f2+ 
                                   1 4f0     1 4f2+    1 4f0     1 4f2+    1 6h2+    1 6h4+    1 6h0     1 6h2+    1 6h4+    1 6h0  


   1.5  1.66667    -0.344623     1.000169  0.000044 -0.000080 -0.000040 -0.000144  0.000070  0.000000  0.000000  0.000000  0.000000
                                 0.000000  0.000000  0.000000  0.000000  0.000000  0.000000  0.000000  0.000000  0.000000  0.000000
 

 EXTRA SYMMETRY OF MOS IN SYMMETRY 1:   1 1 2 3 2 3 1 4 5 6   2 3 4 5 6 1 2 3 6 4   5 3 2 1 1
 EXTRA SYMMETRY OF MOS IN SYMMETRY 2:   1 1 3 2 1 2 3 5 4 6   3 2 1 3 2 5 6 4 1 1
 EXTRA SYMMETRY OF MOS IN SYMMETRY 3:   1 1 3 2 1 2 3 5 4 6   3 2 1 3 2 5 6 4 1 1
 EXTRA SYMMETRY OF MOS IN SYMMETRY 4:   1 1 3 2 1 3 2 1 2 3   1
 EXTRA SYMMETRY OF MOS IN SYMMETRY 5:   1 1 2 3 1 2 3 4 5 6   3 2 1 3 2 5 4 6 1 1
 EXTRA SYMMETRY OF MOS IN SYMMETRY 6:   1 1 2 3 1 2 3 1 3 2   1
 EXTRA SYMMETRY OF MOS IN SYMMETRY 7:   1 1 2 3 1 2 3 1 3 2   1
 EXTRA SYMMETRY OF MOS IN SYMMETRY 8:   1 1 3 2 1 1 2 3

 Natural orbital dump (state averaged) at molpro section  5202.2    (Orbital set 2)


 CI vector for state symmetry 1
 ==============================

 a 2 2           1.0000000

 TOTAL ENERGIES                       -11.21512296

 CI vector for state symmetry 2
 ==============================

 2 a 2           1.0000000

 TOTAL ENERGIES                       -11.21512296

 CI vector for state symmetry 3
 ==============================

 2 2 a           1.0000000

 TOTAL ENERGIES                       -11.21512296



 **********************************************************************************************************************************
 DATASETS  * FILE   NREC   LENGTH (MB)   RECORD NAMES
              1      20       20.30       500      610      700      900      950      970     1000      129      960     1100   
                                          VAR    BASINP    GEOM    SYMINP    ZMAT    AOBASIS   BASIS     P2S    ABASIS      S 
                                         1400     1410     1420     1200     1210     1080     1600     1650     1700     1380   
                                           T        V       ECP      H0       H01     AOSYM     SMH    MOLCAS    OPER     JKOP   

              2       5        5.40       700     1000      520     4202     5202   
                                         GEOM     BASIS   MCVARS     RHF     MCSCF   

 PROGRAMS   *        TOTAL     MULTI       POP       RHF       INT
 CPU TIMES  *         1.94      0.11      0.00      0.11      1.14
 REAL TIME  *         3.67 SEC
 DISK USED  *       433.10 MB      
 SF USED    *         9.97 MB      
 GA USED    *         0.00 MB       (max)       0.00 MB       (current)
 **********************************************************************************************************************************


 PROGRAM * RHF-SCF (OPEN SHELL)       Authors: W. Meyer, H.-J. Werner


 NUMBER OF ELECTRONS:       4+    3-    SPACE SYMMETRY=5    SPIN SYMMETRY: Doublet 
 CONVERGENCE THRESHOLDS:    1.00E-05 (Density)    1.00E-07 (Energy)
 MAX. NUMBER OF ITERATIONS:        0
 INTERPOLATION TYPE:            DIIS
 INTERPOLATION STEPS:              2 (START)      1 (STEP)
 LEVEL SHIFTS:                 -0.60 (CLOSED) -0.30 (OPEN) 

 Number of closed-shell orbitals:    3 (   1   1   1   0   0   0   0   0 )
 Number of open-shell orbitals:      1 (   0   0   0   0   1   0   0   0 )


 Molecular orbitals read from record     5202.2  Type=MCSCF/NATURAL (state averaged)

 Molecular orbital dump at record        2101.2

 ITERATION    DDIFF          GRAD             ENERGY        2-EL.EN.            DIPOLE MOMENTS         DIIS   ORB.
    1      0.000D+00      0.000D+00       -11.21512296     14.883914    0.00000    0.00000    0.00000    0    start

 Final alpha occupancy:   1   1   1   0   1   0   0   0
 Final beta  occupancy:   1   1   1   0   0   0   0   0

 !RHF STATE 1.5 Energy                -11.215122956825
 Nuclear energy                         0.00000000
 One-electron energy                  -18.65708009
 Two-electron energy                    7.44195713
 Virial quotient                       -3.15971413
 !RHF STATE 1.5 Dipole moment           0.00000000     0.00000000     0.00000000
 Dipole moment /Debye                   0.00000000     0.00000000     0.00000000

 ELECTRON ORBITALS
 =================


   Orb  Occ    Energy  Couls-En    Coefficients

                                   1 1s      1 1s      1 1s      1 1s      1 1s      1 1s      1 3d0     1 3d2+    1 3d0     1 3d2+ 
                                   1 3d0     1 3d2+    1 3d0     1 3d2+    1 3d0     1 3d2+    1 5g0     1 5g4+    1 5g2+    1 5g0  
                                   1 5g4+    1 5g2+    1 5g0     1 5g4+    1 5g2+ 

   1.1   2    -0.8798   -3.9595  0.999092  0.000311 -0.002607  0.005556 -0.004700  0.002536  0.000000  0.000000  0.000000  0.000000
                                 0.000000  0.000000  0.000000  0.000000  0.000000  0.000000  0.000000  0.000000  0.000000  0.000000
                                 0.000000  0.000000  0.000000  0.000000  0.000000

   2.1   0     0.0963   -1.1865 -0.431323  0.058233 -0.420456  1.087880 -2.038812  2.182561  0.000000  0.000000  0.000000  0.000000
                                 0.000000  0.000000  0.000000  0.000000  0.000000  0.000000  0.000000  0.000000  0.000000  0.000000
                                 0.000000  0.000000  0.000000  0.000000  0.000000

   3.1   0     0.1553   -1.0262  0.000000  0.000000  0.000000  0.000000  0.000000  0.000000  0.007614  0.000000 -0.080849  0.000000
                                 0.289734  0.000000 -0.361155  0.000000  1.156014  0.000000  0.000000  0.000000  0.000000  0.000000
                                 0.000000  0.000000  0.000000  0.000000  0.000000

                                   1 2px     1 2px     1 2px     1 2px     1 2px     1 2px     1 4f1+    1 4f3+    1 4f1+    1 4f3+ 
                                   1 4f1+    1 4f3+    1 4f1+    1 4f3+    1 6h1+    1 6h3+    1 6h5+    1 6h1+    1 6h3+    1 6h5+ 


   1.2   2    -0.3446   -2.8442  1.000169  0.000044 -0.000080 -0.000040 -0.000144  0.000070  0.000000  0.000000  0.000000  0.000000
                                 0.000000  0.000000  0.000000  0.000000  0.000000  0.000000  0.000000  0.000000  0.000000  0.000000

   2.2   0     0.0976   -0.9044 -0.364664 -0.001792 -0.064180  0.319646 -0.839828  1.543109  0.000000  0.000000  0.000000  0.000000
                                 0.000000  0.000000  0.000000  0.000000  0.000000  0.000000  0.000000  0.000000  0.000000  0.000000

   3.2   0     0.3073   -0.6862  0.000000  0.000000  0.000000  0.000000  0.000000  0.000000  0.000000 -0.036738  0.000000  0.190500
                                 0.000000 -0.366341  0.000000  1.170020  0.000000  0.000000  0.000000  0.000000  0.000000  0.000000

                                   1 2py     1 2py     1 2py     1 2py     1 2py     1 2py     1 4f1-    1 4f3-    1 4f1-    1 4f3- 
                                   1 4f1-    1 4f3-    1 4f1-    1 4f3-    1 6h1-    1 6h3-    1 6h5-    1 6h1-    1 6h3-    1 6h5- 


   1.3   2    -0.3446   -2.8442  1.000169  0.000044 -0.000080 -0.000040 -0.000144  0.000070  0.000000  0.000000  0.000000  0.000000
                                 0.000000  0.000000  0.000000  0.000000  0.000000  0.000000  0.000000  0.000000  0.000000  0.000000

   2.3   0     0.0976   -0.9044 -0.364664 -0.001792 -0.064180  0.319646 -0.839828  1.543109  0.000000  0.000000  0.000000  0.000000
                                 0.000000  0.000000  0.000000  0.000000  0.000000  0.000000  0.000000  0.000000  0.000000  0.000000

   3.3   0     0.3073   -0.6862  0.000000  0.000000  0.000000  0.000000  0.000000  0.000000  0.000000 -0.036738  0.000000  0.190500
                                 0.000000 -0.366341  0.000000  1.170020  0.000000  0.000000  0.000000  0.000000  0.000000  0.000000

                                   1 3d2-    1 3d2-    1 3d2-    1 3d2-    1 3d2-    1 5g2-    1 5g4-    1 5g2-    1 5g4-    1 5g2- 
                                   1 5g4- 

   1.4   0     0.1553   -1.0262  0.007614 -0.080849  0.289734 -0.361155  1.156014  0.000000  0.000000  0.000000  0.000000  0.000000
                                 0.000000

   2.4   0     0.4242   -0.9976 -0.086181  0.261410 -0.508969  1.794392 -1.032707  0.000000  0.000000  0.000000  0.000000  0.000000
                                 0.000000

                                   1 2pz     1 2pz     1 2pz     1 2pz     1 2pz     1 2pz     1 4f0     1 4f2+    1 4f0     1 4f2+ 
                                   1 4f0     1 4f2+    1 4f0     1 4f2+    1 6h2+    1 6h4+    1 6h0     1 6h2+    1 6h4+    1 6h0  


   1.5   +    -0.3446   -2.8442  1.000169  0.000044 -0.000080 -0.000040 -0.000144  0.000070  0.000000  0.000000  0.000000  0.000000
                                 0.000000  0.000000  0.000000  0.000000  0.000000  0.000000  0.000000  0.000000  0.000000  0.000000

   2.5   0     0.0976   -0.9044 -0.364664 -0.001792 -0.064180  0.319646 -0.839828  1.543109  0.000000  0.000000  0.000000  0.000000
                                 0.000000  0.000000  0.000000  0.000000  0.000000  0.000000  0.000000  0.000000  0.000000  0.000000

   3.5   0     0.3073   -0.6862  0.000000  0.000000  0.000000  0.000000  0.000000  0.000000 -0.036738  0.000000  0.190500  0.000000
                                -0.366341  0.000000  1.170020  0.000000  0.000000  0.000000  0.000000  0.000000  0.000000  0.000000

                                   1 3d1+    1 3d1+    1 3d1+    1 3d1+    1 3d1+    1 5g1+    1 5g3+    1 5g1+    1 5g3+    1 5g1+ 
                                   1 5g3+ 

   1.6   0     0.1553   -1.0262  0.007614 -0.080849  0.289734 -0.361155  1.156014  0.000000  0.000000  0.000000  0.000000  0.000000
                                 0.000000

   2.6   0     0.4242   -0.9976 -0.086181  0.261410 -0.508969  1.794392 -1.032707  0.000000  0.000000  0.000000  0.000000  0.000000
                                 0.000000

                                   1 3d1-    1 3d1-    1 3d1-    1 3d1-    1 3d1-    1 5g1-    1 5g3-    1 5g1-    1 5g3-    1 5g1- 
                                   1 5g3- 

   1.7   0     0.1553   -1.0262  0.007614 -0.080849  0.289734 -0.361155  1.156014  0.000000  0.000000  0.000000  0.000000  0.000000
                                 0.000000

   2.7   0     0.4242   -0.9976 -0.086181  0.261410 -0.508969  1.794392 -1.032707  0.000000  0.000000  0.000000  0.000000  0.000000
                                 0.000000

                                   1 4f2-    1 4f2-    1 4f2-    1 4f2-    1 6h4-    1 6h2-    1 6h4-    1 6h2- 

   1.8   0     0.3073   -0.6862 -0.036738  0.190500 -0.366341  1.170020  0.000000  0.000000  0.000000  0.000000

   2.8   0     0.7806   -0.4765  0.262037 -0.386043  1.513743 -0.722863  0.000000  0.000000  0.000000  0.000000

 HOMO      1.2    -0.344623 =      -9.3777eV
 LUMO      2.1     0.096253 =       2.6192eV
 LUMO-HOMO         0.440877 =      11.9969eV


 **********************************************************************************************************************************
 DATASETS  * FILE   NREC   LENGTH (MB)   RECORD NAMES
              1      20       20.30       500      610      700      900      950      970     1000      129      960     1100   
                                          VAR    BASINP    GEOM    SYMINP    ZMAT    AOBASIS   BASIS     P2S    ABASIS      S 
                                         1400     1410     1420     1200     1210     1080     1600     1650     1700     1380   
                                           T        V       ECP      H0       H01     AOSYM     SMH    MOLCAS    OPER     JKOP   

              2       6        8.00       700     1000      520     4202     5202     2101   
                                         GEOM     BASIS   MCVARS     RHF     MCSCF     RHF  

 PROGRAMS   *        TOTAL       RHF     MULTI       POP       RHF       INT
 CPU TIMES  *         2.32      0.38      0.11      0.00      0.11      1.14
 REAL TIME  *         4.27 SEC
 DISK USED  *       433.10 MB      
 SF USED    *         9.97 MB      
 GA USED    *         0.00 MB       (max)       0.00 MB       (current)
 **********************************************************************************************************************************
 SETTING SCF(1)         =       -11.21512296  AU                              


 PROGRAM * CCSD (Unrestricted open-shell coupled cluster)     Authors: C. Hampel, H.-J. Werner, 1991, M. Deegan, P.J. Knowles, 1992


 Convergence thresholds:  THRVAR = 1.00D-08  THRDEN = 1.00D-06

 CCSD(T)     terms to be evaluated (factor= 1.000)


 Number of closed-shell orbitals:   3 (   1   1   1   0   0   0   0   0 )
 Number of active  orbitals:        1 (   0   0   0   0   1   0   0   0 )
 Number of external orbitals:     122 (  24  19  19  11  19  11  11   8 )

 Memory could be reduced to 2.82 Mwords without degradation in triples

 Number of N-1 electron functions:               7
 Number of N-2 electron functions:              21
 Number of singly external CSFs:               144
 Number of doubly external CSFs:             31947
 Total number of CSFs:                       32091

 Molecular orbitals read from record     2101.2  Type=RHF/CANONICAL (state 1.5)

 Integral transformation finished. Total CPU:   0.11 sec, npass=  1  Memory used:   0.44 MW

 Starting RMP2 calculation

 ITER.      SQ.NORM     CORR.ENERGY   TOTAL ENERGY   ENERGY CHANGE        DEN1      VAR(S)    VAR(P)  DIIS     TIME
   1      1.06681592    -0.15575724   -11.37088019    -0.15575724    -0.00102481  0.44D-04  0.49D-03  1  1     0.24
   2      1.06814589    -0.15689167   -11.37201463    -0.00113444    -0.00000171  0.28D-06  0.79D-06  2  2     0.24
   3      1.06818169    -0.15690746   -11.37203041    -0.00001579    -0.00000001  0.40D-08  0.17D-08  3  3     0.24
   4      1.06818252    -0.15690761   -11.37203056    -0.00000015    -0.00000000  0.47D-10  0.57D-11  4  4     0.25

 Norm of t1 vector:      0.06011454      S-energy:    -0.00450156      T1 diagnostic:  0.01033578
 Norm of t2 vector:      0.25410384      P-energy:    -0.15240605
                                         Alpha-Beta:  -0.12293612
                                         Alpha-Alpha: -0.01991515
                                         Beta-Beta:   -0.00955478

 Spin contamination <S**2-Sz**2-Sz>     0.00330658
  Reference energy                    -11.215122956825
  RHF-RMP2 correlation energy          -0.156907608107
 !RHF-RMP2 energy                     -11.372030564932

 Starting UCCSD calculation

 ITER.      SQ.NORM     CORR.ENERGY   TOTAL ENERGY   ENERGY CHANGE        DEN1      VAR(S)    VAR(P)  DIIS     TIME
   1      1.07648191    -0.16457569   -11.37969865    -0.16457569    -0.00521120  0.41D-03  0.20D-02  1  1     0.27
   2      1.08484078    -0.17061547   -11.38573843    -0.00603978    -0.00017756  0.13D-04  0.71D-04  2  2     0.29
   3      1.08624127    -0.17118745   -11.38631040    -0.00057197    -0.00001116  0.84D-06  0.53D-05  3  3     0.30
   4      1.08656835    -0.17128778   -11.38641073    -0.00010033    -0.00000089  0.45D-07  0.48D-06  4  4     0.32
   5      1.08664474    -0.17130733   -11.38643029    -0.00001956    -0.00000007  0.49D-08  0.42D-07  5  5     0.33
   6      1.08665041    -0.17130666   -11.38642962     0.00000067    -0.00000001  0.50D-09  0.48D-08  6  6     0.35

 Norm of t1 vector:      0.07724701      S-energy:    -0.00545380      T1 diagnostic:  0.01520721
                                                                       D1 diagnostic:  0.03302532
 Norm of t2 vector:      0.28404807      P-energy:    -0.16585286
                                         Alpha-Beta:  -0.13718724
                                         Alpha-Alpha: -0.01938355
                                         Beta-Beta:   -0.00928206

 Spin contamination <S**2-Sz**2-Sz>     0.00218806

 Memory could be reduced to 2.88 Mwords without degradation in triples
 

 RESULTS
 =======

  Reference energy                    -11.215122956825
  UCCSD singles energy                 -0.005453801542
  UCCSD pair energy                    -0.165852860599
  UCCSD correlation energy             -0.171306662142
  Triples (T) contribution             -0.006696322043
  Total correlation energy             -0.178002984185
 
  RHF-UCCSD energy                    -11.386429618967
  RHF-UCCSD[T] energy                 -11.393154286223
  RHF-UCCSD-T energy                  -11.393113141440
 !RHF-UCCSD(T) energy                 -11.393125941011

 Program statistics:

 Available memory in ccsd:               511999732
 Min. memory needed in ccsd:                147251
 Max. memory used in ccsd:                  179224
 Max. memory used in cckext:                174001 ( 6 integral passes)
 Max. memory used in cckint:                443719 ( 1 integral passes)



 **********************************************************************************************************************************
 DATASETS  * FILE   NREC   LENGTH (MB)   RECORD NAMES
              1      20       20.30       500      610      700      900      950      970     1000      129      960     1100   
                                          VAR    BASINP    GEOM    SYMINP    ZMAT    AOBASIS   BASIS     P2S    ABASIS      S 
                                         1400     1410     1420     1200     1210     1080     1600     1650     1700     1380   
                                           T        V       ECP      H0       H01     AOSYM     SMH    MOLCAS    OPER     JKOP   

              2       6        8.00       700     1000      520     4202     5202     2101   
                                         GEOM     BASIS   MCVARS     RHF     MCSCF     RHF  

 PROGRAMS   *        TOTAL  UCCSD(T)       RHF     MULTI       POP       RHF       INT
 CPU TIMES  *         2.85      0.52      0.38      0.11      0.00      0.11      1.14
 REAL TIME  *         5.81 SEC
 DISK USED  *       568.94 MB      
 SF USED    *        26.82 MB      
 GA USED    *         0.00 MB       (max)       0.00 MB       (current)
 **********************************************************************************************************************************
 SETTING CCSD(1)        =       -11.39312594  AU                              
 Output type csv         
                                                                                                                                                                                                                                                                

       SCF,CCSD
   -11.21512296,   -11.39312594
                                                  

 UCCSD(T)/USERDEF energy=    -11.393125941011

        UCCSD(T)        RHF-SCF         MULTI           RHF-SCF 
    -11.39312594    -11.21512296    -11.21512296    -11.21721066
 **********************************************************************************************************************************
 Molpro calculation terminated
 Variable memory released
