<?xml version="1.0"?>
<molpro xmlns="http://www.molpro.net/schema/molpro-output"
  xmlns:xsd="http://www.w3.org/1999/XMLSchema"
  xmlns:cml="http://www.xml-cml.org/schema"
  xmlns:stm="http://www.xml-cml.org/schema"
  xmlns:xhtml="http://www.w3.org/1999/xhtml">
 <!--

 Nodes     nprocs
 nid00781    11
 Number of processes for MPI-2 version of Molpro:   nprocs(total)=   12   nprocs(compute)=   11   nprocs(helper)=    1

 Using customized tuning parameters: mindgm=7; mindgv=16; mindgc=1; mindgr=1; noblas=0; minvec=7
 default implementation of scratch files=sf

 --><job>
  <!--

 Variables initialized (889), CPU time= 0.02 sec
 Commands  initialized (702), CPU time= 0.01 sec, 572 directives.
 Default parameters read. Elapsed time= 0.12 sec

 Checking input...
 Passed
1


                                         ***  PROGRAM SYSTEM MOLPRO  ***
                                       Copyright, TTI GmbH Stuttgart, 2015
                                    Version 2015.1 linked Dec 29 2018 15:55:43


 **********************************************************************************************************************************
 LABEL *   Calculation for Pt atom, singlet and triplet
  64 bit mpp version                                                                     DATE: 27-Jul-21          TIME: 05:23:38
 **********************************************************************************************************************************

 SHA1:             19cd028119e0e09f93f0674bd8af7968d9b3eff6
 **********************************************************************************************************************************
  -->
  <!--

 THRESHOLDS:

 ZERO    =  1.00D-12  ONEINT  =  1.00D-12  TWOINT  =  1.00D-15  PREFAC  =  1.00D-14  LOCALI  =  1.00D-09  EORDER  =  1.00D-04
 ENERGY  =  0.00D+00  ETEST   =  0.00D+00  EDENS   =  0.00D+00  THRDEDEF=  1.00D-06  GRADIENT=  1.00D-02  STEP    =  1.00D-03
 ORBITAL =  1.00D-05  CIVEC   =  1.00D-05  COEFF   =  1.00D-04  PRINTCI =  5.00D-02  PUNCHCI =  9.90D+01  OPTGRAD =  3.00D-04
 OPTENERG=  1.00D-06  OPTSTEP =  3.00D-04  THRGRAD =  1.00D-10  COMPRESS=  1.00D-11  VARMIN  =  1.00D-07  VARMAX  =  1.00D-03
 THRDOUB =  0.00D+00  THRDIV  =  1.00D-05  THRRED  =  1.00D-07  THRPSP  =  1.00D+00  THRDC   =  1.00D-10  THRCS   =  1.00D-10
 THRNRM  =  1.00D-08  THREQ   =  0.00D+00  THRDE   =  1.00D+00  THRREF  =  1.00D-05  SPARFAC =  1.00D+00  THRDLP  =  1.00D-07
 THRDIA  =  1.00D-10  THRDLS  =  1.00D-07  THRGPS  =  0.00D+00  THRKEX  =  0.00D+00  THRDIS  =  2.00D-01  THRVAR  =  1.00D-10
 THRLOC  =  1.00D-06  THRGAP  =  1.00D-06  THRLOCT = -1.00D+00  THRGAPT = -1.00D+00  THRORB  =  1.00D-06  THRMLTP =  0.00D+00
 THRCPQCI=  1.00D-10  KEXTA   =  0.00D+00  THRCOARS=  0.00D+00  SYMTOL  =  1.00D-06  GRADTOL =  1.00D-06  THROVL  =  1.00D-08
 THRORTH =  1.00D-08  GRID    =  1.00D-06  GRIDMAX =  1.00D-03  DTMAX   =  0.00D+00  THROCCDE=  1.00D-01  THROCCDE=  1.00D-01



 THRESHOLDS:

 ZERO    =  1.00D-12  ONEINT  =  1.00D-12  TWOINT  =  1.00D-15  PREFAC  =  1.00D-14  LOCALI  =  1.00D-09  EORDER  =  1.00D-04
 ENERGY  =  0.00D+00  ETEST   =  0.00D+00  EDENS   =  0.00D+00  THRDEDEF=  1.00D-06  GRADIENT=  1.00D-02  STEP    =  1.00D-03
 ORBITAL =  1.00D-05  CIVEC   =  1.00D-05  COEFF   =  1.00D-04  PRINTCI =  5.00D-02  PUNCHCI =  9.90D+01  OPTGRAD =  3.00D-04
 OPTENERG=  1.00D-06  OPTSTEP =  3.00D-04  THRGRAD =  1.00D-10  COMPRESS=  1.00D-11  VARMIN  =  1.00D-07  VARMAX  =  1.00D-03
 THRDOUB =  0.00D+00  THRDIV  =  1.00D-05  THRRED  =  1.00D-07  THRPSP  =  1.00D+00  THRDC   =  1.00D-10  THRCS   =  1.00D-10
 THRNRM  =  1.00D-08  THREQ   =  0.00D+00  THRDE   =  1.00D+00  THRREF  =  1.00D-05  SPARFAC =  1.00D+00  THRDLP  =  1.00D-07
 THRDIA  =  1.00D-10  THRDLS  =  1.00D-07  THRGPS  =  0.00D+00  THRKEX  =  0.00D+00  THRDIS  =  2.00D-01  THRVAR  =  1.00D-10
 THRLOC  =  1.00D-06  THRGAP  =  1.00D-06  THRLOCT = -1.00D+00  THRGAPT = -1.00D+00  THRORB  =  1.00D-06  THRMLTP =  0.00D+00
 THRCPQCI=  1.00D-10  KEXTA   =  0.00D+00  THRCOARS=  0.00D+00  SYMTOL  =  1.00D-06  GRADTOL =  1.00D-06  THROVL  =  1.00D-15
 THRORTH =  1.00D-08  GRID    =  1.00D-06  GRIDMAX =  1.00D-03  DTMAX   =  0.00D+00  THROCCDE=  1.00D-01  THROCCDE=  1.00D-01



Geometry recognized as XYZ

 SETTING DKROLL         =         1.00000000
 SETTING DKHO           =        10.00000000
 SETTING DKHP           =         4.00000000

 Variable memory set to 1024000000 words,  buffer space   230000 words

 SETTING BASIS          =    USERDEF

 Running procedure=IDTEN
  --><jobstep command="RHF-SCF" commandset="SCFPRO">
   <!--


 Recomputing integrals since basis changed


 Using spherical harmonics



 PROGRAM * SEWARD (Integral evaluation for generally contracted gaussian basis sets)     Author: Roland Lindh, 1990

 Geometry written to block  1 of record 700

 Orientation using atomic masses
 Molecule type: Atom
 Symmetry elements: X,Y,Z
 Rotational constants:       0.0000000      0.0000000      0.0000000 GHz  (calculated with average atomic masses)

 Point group  D2h


   --><cml:molecule>
    <cml:symmetry pointGroup="D2h"/>
    <cml:atomArray>
     <cml:atom id="a1" elementType="Pt" x3="0.0" y3="0.0" z3="0.0"/>
    </cml:atomArray>
    <cml:bondArray>
    </cml:bondArray>
   </cml:molecule><!--

 ATOMIC COORDINATES

 NR  ATOM    CHARGE       X              Y              Z

   1  PT     78.00    0.000000000    0.000000000    0.000000000

 NUCLEAR CHARGE:                   78
 NUMBER OF PRIMITIVE AOS:         434
 NUMBER OF SYMMETRY AOS:          347
 NUMBER OF CONTRACTIONS:          347   (  78Ag  +  60B3u +  60B2u +  24B1g +  60B1u +  24B2g +  24B3g +  17Au  )
 NUMBER OF CORE ORBITALS:          34   (   9Ag  +   6B3u +   6B2u +   2B1g +   6B1u +   2B2g +   2B3g +   1Au  )
 NUMBER OF VALENCE ORBITALS:        6   (   3Ag  +   0B3u +   0B2u +   1B1g +   0B1u +   1B2g +   1B3g +   0Au  )


 NUCLEAR REPULSION ENERGY    0.00000000

 One-electron integrals computed with SEWARD

 10nd-order Douglas-Kroll-Hess method activated. McWeeny DKH parametrization is used.

 Computing Douglas-Kroll / X2C integrals

 AO integral compression algorithm  1   Integral accuracy      1.0D-15

     1918.632 MB (compressed) written to integral file ( 47.7%)

     Node minimum: 116.654 MB, node maximum: 291.766 MB


 NUMBER OF SORTED TWO-ELECTRON INTEGRALS:   21339416.     BUFFER LENGTH:  32768
 NUMBER OF SEGMENTS:   1  SEGMENT LENGTH:   21339416      RECORD LENGTH: 524288

 Memory used in sort:      21.90 MW

 SORT1 READ   502828645. AND WROTE    13987864. INTEGRALS IN     41 RECORDS. CPU TIME:     9.91 SEC, REAL TIME:    10.32 SEC
 SORT2 READ   153399602. AND WROTE   235142862. INTEGRALS IN   5995 RECORDS. CPU TIME:     0.68 SEC, REAL TIME:     1.04 SEC

 Node minimum:    21275732.  Node maximum:    21480371. integrals

 OPERATOR DM      FOR CENTER  0  COORDINATES:    0.000000    0.000000    0.000000

 EXTRA SYMMETRY OF AOS IN SYMMETRY 1:   1 1 1 1 1 1 1 1 1 1   1 1 1 1 1 1 1 1 1 1   1 1 1 1 1 1 1 1 1 1   1 1 1 2 3 2 3 2 3 2
                                        3 2 3 2 3 2 3 2 3 2   3 2 3 2 3 2 3 2 3 2   3 2 3 2 3 2 3 2 3 4   5 6 4 5 6 4 5 6
 EXTRA SYMMETRY OF AOS IN SYMMETRY 2:   1 1 1 1 1 1 1 1 1 1   1 1 1 1 1 1 1 1 1 1   1 1 1 1 1 1 2 3 2 3   2 3 2 3 2 3 2 3 2 3
                                        2 3 2 3 2 3 2 3 2 3   2 3 2 3 2 3 2 3 2 3
 EXTRA SYMMETRY OF AOS IN SYMMETRY 3:   1 1 1 1 1 1 1 1 1 1   1 1 1 1 1 1 1 1 1 1   1 1 1 1 1 1 2 3 2 3   2 3 2 3 2 3 2 3 2 3
                                        2 3 2 3 2 3 2 3 2 3   2 3 2 3 2 3 2 3 2 3
 EXTRA SYMMETRY OF AOS IN SYMMETRY 4:   1 1 1 1 1 1 1 1 1 1   1 1 1 1 1 1 1 1 2 3   2 3 2 3
 EXTRA SYMMETRY OF AOS IN SYMMETRY 5:   1 1 1 1 1 1 1 1 1 1   1 1 1 1 1 1 1 1 1 1   1 1 1 1 1 1 2 3 2 3   2 3 2 3 2 3 2 3 2 3
                                        2 3 2 3 2 3 2 3 2 3   2 3 2 3 2 3 2 3 2 3
 EXTRA SYMMETRY OF AOS IN SYMMETRY 6:   1 1 1 1 1 1 1 1 1 1   1 1 1 1 1 1 1 1 2 3   2 3 2 3
 EXTRA SYMMETRY OF AOS IN SYMMETRY 7:   1 1 1 1 1 1 1 1 1 1   1 1 1 1 1 1 1 1 2 3   2 3 2 3

 Eigenvalues of metric

         1 0.632E-05 0.391E-04 0.662E-04 0.117E-03 0.187E-03 0.332E-03 0.599E-03 0.825E-03
         2 0.139E-04 0.272E-03 0.963E-03 0.191E-02 0.191E-02 0.243E-02 0.243E-02 0.245E-02
         3 0.139E-04 0.272E-03 0.963E-03 0.191E-02 0.191E-02 0.243E-02 0.243E-02 0.245E-02
         4 0.825E-03 0.217E-02 0.713E-02 0.171E-01 0.337E-01 0.649E-01 0.119E+00 0.188E+00
         5 0.139E-04 0.272E-03 0.963E-03 0.191E-02 0.191E-02 0.243E-02 0.243E-02 0.245E-02
         6 0.825E-03 0.217E-02 0.713E-02 0.171E-01 0.337E-01 0.649E-01 0.119E+00 0.188E+00
         7 0.825E-03 0.217E-02 0.713E-02 0.171E-01 0.337E-01 0.649E-01 0.119E+00 0.188E+00
         8 0.191E-02 0.243E-02 0.658E-02 0.118E-01 0.266E-01 0.456E-01 0.920E-01 0.173E+00


 **********************************************************************************************************************************
 DATASETS  * FILE   NREC   LENGTH (MB)   RECORD NAMES
              1      22       21.27       500      610      700      900      950      970     1000      129      960     1700
                                          VAR    BASINP    GEOM    SYMINP    ZMAT    AOBASIS   BASIS     P2S    ABASIS    OPER
                                         1101     1401     1411     1412     1650     1100     1400     1410     1200     1210
                                          SR      EKINR    POTR     PVPR    MOLCAS      S      EKIN      POT      H0       H01
                                         1080     1600
                                         AOSYM     SMH

 PROGRAMS   *        TOTAL       INT
 CPU TIMES  *        75.33     74.93
 REAL TIME  *        77.78 SEC
 DISK USED  *         3.76 GB
 GA USED    *         0.00 MB       (max)       0.00 MB       (current)
 **********************************************************************************************************************************


 PROGRAM * RHF-SCF (CLOSED SHELL)       Authors: W. Meyer, H.-J. Werner


 NUMBER OF ELECTRONS:      39+   39-    SPACE SYMMETRY=1    SPIN SYMMETRY: Singlet
 CONVERGENCE THRESHOLDS:    1.00E-05 (Density)    1.56E-07 (Energy)
 MAX. NUMBER OF ITERATIONS:       60
 INTERPOLATION TYPE:            DIIS
 INTERPOLATION STEPS:              2 (START)      1 (STEP)
 LEVEL SHIFTS:                  0.00 (CLOSED)  0.00 (OPEN)

 Number of closed-shell orbitals:   39 (  11   6   6   3   6   3   3   1 )



 Extra symmetries of mos in symmetry 1:   1   1   1   3   2   1   3   2   1   3   2
 Orbital guess generated from atomic densities. Full valence occupancy:   12   6   6   3   6   3   3   1


 Molecular orbital dump at record        4202.2

 ITERATION    DDIFF          GRAD             ENERGY        2-EL.EN.            DIPOLE MOMENTS         DIIS   ORB.
    1      0.000D+00      0.000D+00    -18393.29360298  12838.146872    0.00000    0.00000    0.00000    0    start
    2      0.000D+00      0.559D-01    -18406.23619636  14248.636669    0.00000    0.00000    0.00000    1    diag
    3      0.121D+00      0.122D+00    -18410.46186033  14012.245167    0.00000    0.00000    0.00000    2    diag
    4      0.121D-01      0.566D-01    -18412.21254124  13885.470495    0.00000    0.00000    0.00000    3    diag
    5      0.818D-02      0.309D-01    -18412.96687392  13782.039535    0.00000    0.00000    0.00000    4    diag
    6      0.573D-02      0.119D-01    -18413.13071143  13714.774033    0.00000    0.00000    0.00000    5    diag
    7      0.331D-02      0.119D-02    -18413.13458523  13702.688839    0.00000    0.00000    0.00000    6    diag
    8      0.826D-03      0.624D-03    -18413.13494339  13705.160727    0.00000    0.00000    0.00000    7    diag
    9      0.190D-03      0.158D-03    -18413.13496287  13705.735093    0.00000    0.00000    0.00000    8    diag
   10      0.498D-04      0.375D-04    -18413.13496406  13705.922531    0.00000    0.00000    0.00000    9    orth
   11      0.100D-04      0.465D-05    -18413.13496408  13705.947627    0.00000    0.00000    0.00000    9    diag
   12      0.124D-05      0.343D-06    -18413.13496408  13705.951376    0.00000    0.00000    0.00000    0    orth

 Final occupancy:  11   6   6   3   6   3   3   1

 !RHF STATE 1.1 Energy               -18413.1349640781
   --><property name="Energy" method="RHF" principal="true" stateSymmetry="1" stateNumber="1"
     value="-18413.1349640781"/><!--
 Nuclear energy                         0.00000000
 One-electron energy               -25266.11065219
 Two-electron energy                 6852.97568812
 Virial quotient                       -0.67629514
 !RHF STATE 1.1 Dipole moment           0.00000000     0.00000000     0.00000000
 Dipole moment /Debye                   0.00000000     0.00000000     0.00000000
   --><property name="Dipole moment" method="RHF" principal="true" stateSymmetry="1"
     stateNumber="1" value="0.0 0.0 0.0"/><!--

 ELECTRON ORBITALS
 =================


   Orb  Occ    Energy  Couls-En    Coefficients

                                   1 1s      1 1s      1 1s      1 1s      1 1s      1 1s      1 1s      1 1s      1 1s      1 1s
                                   1 1s      1 1s      1 1s      1 1s      1 1s      1 1s      1 1s      1 1s      1 1s      1 1s
                                   1 1s      1 1s      1 1s      1 1s      1 1s      1 1s      1 1s      1 1s      1 1s      1 1s
                                   1 1s      1 1s      1 1s      1 3d0     1 3d2+    1 3d0     1 3d2+    1 3d0     1 3d2+    1 3d0
                                   1 3d2+    1 3d0     1 3d2+    1 3d0     1 3d2+    1 3d0     1 3d2+    1 3d0     1 3d2+    1 3d0
                                   1 3d2+    1 3d0     1 3d2+    1 3d0     1 3d2+    1 3d0     1 3d2+    1 3d0     1 3d2+    1 3d0
                                   1 3d2+    1 3d0     1 3d2+    1 3d0     1 3d2+    1 3d0     1 3d2+    1 3d0     1 3d2+    1 5g0
                                   1 5g4+    1 5g2+    1 5g0     1 5g4+    1 5g2+    1 5g0     1 5g4+    1 5g2+

   1.1   2 -2897.4829-6235.8506  0.000912  0.000995  0.002594  0.003050  0.006001  0.007586  0.013714  0.020199  0.035192  0.057528
                                 0.098418  0.159082  0.235954  0.276414  0.213081  0.079083  0.011106 -0.000671  0.001102 -0.000954
                                 0.000573 -0.000313  0.000168 -0.000094  0.000056 -0.000035  0.000016 -0.000014  0.000022 -0.000015
                                 0.000004 -0.000001  0.000000 -0.000000 -0.000000 -0.000000  0.000000 -0.000000  0.000000 -0.000000
                                -0.000000  0.000000  0.000000 -0.000000 -0.000000  0.000000  0.000000 -0.000000 -0.000000  0.000000
                                 0.000000 -0.000000 -0.000000  0.000000  0.000000 -0.000000 -0.000000  0.000000  0.000000 -0.000000
                                -0.000000  0.000000  0.000000 -0.000000 -0.000000  0.000000  0.000000 -0.000000 -0.000000 -0.000000
                                 0.000000  0.000000  0.000000 -0.000000 -0.000000 -0.000000  0.000000  0.000000

   2.1   2  -514.3606-1365.1542 -0.000352 -0.000384 -0.001004 -0.001184 -0.002335 -0.002971 -0.005401 -0.008047 -0.014215 -0.023796
                                -0.042178 -0.072301 -0.117871 -0.159204 -0.133029  0.049153  0.335375  0.439809  0.258780  0.065707
                                 0.004326  0.000519 -0.000387  0.000089 -0.000073  0.000054 -0.000021  0.000020 -0.000031  0.000021
                                -0.000005  0.000002 -0.000000  0.000000 -0.000000  0.000000  0.000000  0.000000 -0.000000  0.000000
                                 0.000000  0.000000 -0.000000  0.000000  0.000000  0.000000 -0.000000  0.000000  0.000000 -0.000000
                                -0.000000  0.000000  0.000000 -0.000000  0.000000  0.000000 -0.000000 -0.000000  0.000000  0.000000
                                -0.000000 -0.000000  0.000000  0.000000 -0.000000 -0.000000  0.000000  0.000000 -0.000000 -0.000000
                                 0.000000 -0.000000 -0.000000  0.000000  0.000000  0.000000 -0.000000 -0.000000

   3.1   2  -123.2000 -483.1964  0.000168  0.000184  0.000480  0.000567  0.001118  0.001424  0.002591  0.003867  0.006847  0.011508
                                 0.020518  0.035540  0.058924  0.081839  0.069676 -0.041622 -0.276916 -0.457184 -0.297020  0.252727
                                 0.707860  0.407571  0.048686 -0.000540  0.000823 -0.000466  0.000115 -0.000117  0.000173 -0.000119
                                 0.000028 -0.000009  0.000002 -0.000000  0.000000  0.000000 -0.000000 -0.000000  0.000000  0.000000
                                -0.000000 -0.000000  0.000000 -0.000000 -0.000000  0.000000  0.000000  0.000000 -0.000000  0.000000
                                -0.000000 -0.000000 -0.000000  0.000000  0.000000 -0.000000 -0.000000  0.000000  0.000000 -0.000000
                                -0.000000  0.000000  0.000000 -0.000000 -0.000000  0.000000  0.000000 -0.000000 -0.000000  0.000000
                                -0.000000  0.000000 -0.000000  0.000000 -0.000000  0.000000 -0.000000  0.000000

   4.1   2   -80.7528 -408.3880  0.000000 -0.000000  0.000000 -0.000000  0.000000 -0.000000  0.000000 -0.000000  0.000000 -0.000000
                                 0.000000 -0.000000  0.000000 -0.000000  0.000000 -0.000000  0.000000 -0.000000  0.000000 -0.000000
                                 0.000000  0.000000 -0.000000  0.000000 -0.000000  0.000000 -0.000000  0.000000 -0.000000  0.000000
                                -0.000000  0.000000 -0.000000 -0.000000  0.000145 -0.000000  0.001037 -0.000000  0.005638 -0.000000
                                 0.023582 -0.000000  0.078156 -0.000000  0.195505 -0.000000  0.336019 -0.000000  0.355839 -0.000000
                                 0.185315 -0.000000  0.036343 -0.000000  0.002071 -0.000000  0.000308  0.000000 -0.000026 -0.000000
                                 0.000029  0.000000 -0.000010 -0.000000  0.000002  0.000000 -0.000000 -0.000000  0.000000 -0.000000
                                -0.000000  0.000000 -0.000000  0.000000 -0.000000  0.000000 -0.000000  0.000000

   5.1   2   -80.7528 -408.3880 -0.000000 -0.000000 -0.000000 -0.000000 -0.000000 -0.000000 -0.000000 -0.000000 -0.000000 -0.000000
                                -0.000000 -0.000000 -0.000000 -0.000000 -0.000000  0.000000  0.000000  0.000000  0.000000 -0.000000
                                -0.000000  0.000000  0.000000  0.000000 -0.000000  0.000000  0.000000  0.000000 -0.000000  0.000000
                                -0.000000  0.000000 -0.000000  0.000145  0.000000  0.001037  0.000000  0.005638  0.000000  0.023582
                                 0.000000  0.078156  0.000000  0.195505  0.000000  0.336019  0.000000  0.355839  0.000000  0.185315
                                 0.000000  0.036343  0.000000  0.002071  0.000000  0.000308  0.000000 -0.000026 -0.000000  0.000029
                                 0.000000 -0.000010 -0.000000  0.000002  0.000000 -0.000000 -0.000000  0.000000  0.000000  0.000000
                                 0.000000 -0.000000 -0.000000 -0.000000  0.000000  0.000000  0.000000  0.000000

   6.1   2   -27.7000 -208.9695 -0.000084 -0.000092 -0.000239 -0.000282 -0.000557 -0.000709 -0.001291 -0.001927 -0.003415 -0.005744
                                -0.010259 -0.017809 -0.029664 -0.041451 -0.035541  0.023575  0.157624  0.277968  0.190031 -0.219343
                                -0.851503 -0.475406  0.709883  0.760702  0.115974 -0.006643  0.003221 -0.001600  0.002391 -0.001627
                                 0.000375 -0.000119  0.000033  0.000000 -0.000000 -0.000000  0.000000  0.000000 -0.000000 -0.000000
                                -0.000000  0.000000  0.000000 -0.000000 -0.000000  0.000000 -0.000000 -0.000000  0.000000 -0.000000
                                -0.000000 -0.000000  0.000000  0.000000 -0.000000 -0.000000 -0.000000 -0.000000  0.000000  0.000000
                                -0.000000 -0.000000  0.000000  0.000000  0.000000 -0.000000 -0.000000  0.000000  0.000000  0.000000
                                -0.000000  0.000000 -0.000000  0.000000 -0.000000  0.000000 -0.000000  0.000000

   7.1   2   -12.5982 -169.4932 -0.000000 -0.000000 -0.000000  0.000000 -0.000000  0.000000 -0.000000  0.000000 -0.000000 -0.000000
                                -0.000000 -0.000000 -0.000000 -0.000000  0.000000 -0.000000  0.000000 -0.000000  0.000000 -0.000000
                                 0.000000 -0.000000  0.000000 -0.000000  0.000000 -0.000000  0.000000 -0.000000  0.000000 -0.000000
                                 0.000000 -0.000000  0.000000 -0.000000 -0.000075 -0.000000 -0.000534 -0.000000 -0.002921 -0.000000
                                -0.012296 -0.000000 -0.041434 -0.000000 -0.105192 -0.000000 -0.178271 -0.000000 -0.151897  0.000000
                                 0.113226  0.000000  0.426114  0.000000  0.430159  0.000000  0.164897  0.000000  0.016581  0.000000
                                 0.001370 -0.000000 -0.000182  0.000000  0.000221 -0.000000 -0.000055  0.000000  0.000017 -0.000000
                                -0.000000  0.000000  0.000000  0.000000 -0.000000 -0.000000 -0.000000  0.000000

   8.1   2   -12.5982 -169.4932  0.000000  0.000000  0.000000  0.000000  0.000000  0.000000  0.000000  0.000000  0.000000  0.000000
                                 0.000000  0.000000  0.000000  0.000000  0.000000 -0.000000 -0.000000 -0.000000 -0.000000  0.000000
                                 0.000000  0.000000 -0.000001 -0.000000  0.000001 -0.000000  0.000000 -0.000000  0.000000 -0.000000
                                 0.000000 -0.000000  0.000000 -0.000075  0.000000 -0.000534  0.000000 -0.002921  0.000000 -0.012296
                                 0.000000 -0.041434  0.000000 -0.105192  0.000000 -0.178271  0.000000 -0.151897  0.000000  0.113226
                                -0.000000  0.426114 -0.000000  0.430159 -0.000000  0.164897 -0.000000  0.016581 -0.000000  0.001370
                                -0.000000 -0.000182  0.000000  0.000221 -0.000000 -0.000055  0.000000  0.000017 -0.000000  0.000000
                                 0.000000 -0.000000 -0.000000 -0.000000  0.000000  0.000000  0.000000 -0.000000

   9.1   2    -4.2968  -91.3853  0.000036  0.000039  0.000102  0.000120  0.000237  0.000302  0.000549  0.000820  0.001454  0.002446
                                 0.004369  0.007590  0.012654  0.017713  0.015203 -0.010315 -0.069343 -0.123872 -0.087158  0.108331
                                 0.448989  0.247851 -0.529405 -0.868037  0.115911  0.840890  0.445880  0.052122 -0.030633  0.017571
                                -0.003095  0.000896 -0.000239 -0.000000 -0.000000 -0.000000  0.000000 -0.000000 -0.000000 -0.000000
                                 0.000000 -0.000000 -0.000000 -0.000000  0.000000 -0.000000 -0.000000 -0.000000  0.000000  0.000000
                                -0.000000  0.000000  0.000000  0.000000 -0.000000 -0.000000  0.000000 -0.000001 -0.000000 -0.000001
                                -0.000000 -0.000000  0.000000  0.000000 -0.000000  0.000000  0.000000  0.000000 -0.000000 -0.000000
                                 0.000000 -0.000000 -0.000000  0.000000 -0.000000  0.000000 -0.000000  0.000000

  10.1   2    -0.3223  -53.7741  0.000000  0.000000  0.000000  0.000000  0.000000  0.000000  0.000000  0.000000  0.000000  0.000000
                                 0.000000  0.000000  0.000000  0.000000  0.000000 -0.000000 -0.000000 -0.000000 -0.000000  0.000000
                                 0.000000  0.000000 -0.000000 -0.000000  0.000000  0.000000  0.000000 -0.000000  0.000000 -0.000000
                                 0.000000 -0.000000  0.000000 -0.000000  0.000020 -0.000000  0.000147 -0.000000  0.000802 -0.000000
                                 0.003399 -0.000000  0.011423 -0.000000  0.029250 -0.000000  0.049057 -0.000000  0.040262  0.000000
                                -0.046686  0.000000 -0.141927  0.000000 -0.144391 -0.000000  0.085974 -0.000000  0.289402 -0.000000
                                 0.162682 -0.000000  0.318014 -0.000000  0.282288 -0.000000  0.133909 -0.000000  0.004264  0.000000
                                -0.000000 -0.000000 -0.000000  0.000000 -0.000000  0.000000  0.000000 -0.000002

  11.1   2    -0.3223  -53.7740 -0.000000 -0.000000 -0.000000 -0.000000 -0.000000 -0.000000 -0.000000 -0.000000 -0.000000 -0.000000
                                -0.000000 -0.000000 -0.000000 -0.000001 -0.000001  0.000000  0.000003  0.000005  0.000003 -0.000004
                                -0.000018 -0.000010  0.000023  0.000041 -0.000010 -0.000056 -0.000041  0.000023  0.000029  0.000067
                                 0.000048  0.000002  0.000000  0.000020  0.000000  0.000147  0.000000  0.000802  0.000000  0.003399
                                 0.000000  0.011423  0.000000  0.029250  0.000000  0.049057  0.000000  0.040262  0.000000 -0.046686
                                -0.000000 -0.141927 -0.000000 -0.144391 -0.000000  0.085974  0.000000  0.289402  0.000000  0.162682
                                 0.000000  0.318013  0.000000  0.282287  0.000000  0.133912  0.000000  0.004266  0.000000 -0.000000
                                -0.000000 -0.000000 -0.000001 -0.000000 -0.000000 -0.000003  0.000000  0.000000

  12.1   0    -0.0067  -18.5436 -0.000006 -0.000006 -0.000016 -0.000019 -0.000037 -0.000047 -0.000086 -0.000128 -0.000227 -0.000383
                                -0.000682 -0.001188 -0.001975 -0.002780 -0.002354  0.001555  0.011060  0.019116  0.014568 -0.018658
                                -0.070691 -0.042397  0.093435  0.157402 -0.026268 -0.225612 -0.136770 -0.037155  0.374175 -0.230219
                                 0.536600 -0.146122  0.699116 -0.000000  0.000000 -0.000000  0.000000 -0.000000  0.000000 -0.000000
                                 0.000000 -0.000001  0.000000 -0.000003  0.000000 -0.000005  0.000000 -0.000004  0.000000  0.000005
                                -0.000000  0.000014 -0.000000  0.000015 -0.000000 -0.000009  0.000000 -0.000029  0.000000 -0.000017
                                 0.000000 -0.000031  0.000000 -0.000033  0.000000 -0.000022  0.000000 -0.000018  0.000000 -0.000000
                                 0.000000 -0.000000 -0.000000  0.000000  0.000000  0.000000 -0.000000  0.000000

  13.1   0     0.0228   -9.8075  0.000004  0.000004  0.000010  0.000012  0.000024  0.000030  0.000056  0.000082  0.000148  0.000245
                                 0.000448  0.000756  0.001309  0.001724  0.001717 -0.001509 -0.005885 -0.015337 -0.003485  0.002208
                                 0.059288  0.010994 -0.036910 -0.137677  0.081694  0.042242  0.234384 -0.634308  2.256291 -2.980720
                                 2.245608 -3.904599  3.019419  0.000000  0.000000  0.000000 -0.000000  0.000000  0.000000  0.000000
                                -0.000000  0.000001  0.000000  0.000002 -0.000000  0.000003  0.000000  0.000002 -0.000000 -0.000002
                                 0.000000 -0.000007 -0.000000 -0.000008  0.000000  0.000004 -0.000000  0.000015  0.000000  0.000008
                                -0.000000  0.000016  0.000000  0.000017 -0.000000  0.000014  0.000000  0.000008 -0.000000  0.000000
                                -0.000000 -0.000000  0.000000 -0.000000  0.000000 -0.000000  0.000000 -0.000000

                                   1 2px     1 2px     1 2px     1 2px     1 2px     1 2px     1 2px     1 2px     1 2px     1 2px
                                   1 2px     1 2px     1 2px     1 2px     1 2px     1 2px     1 2px     1 2px     1 2px     1 2px
                                   1 2px     1 2px     1 2px     1 2px     1 2px     1 2px     1 4f1+    1 4f3+    1 4f1+    1 4f3+
                                   1 4f1+    1 4f3+    1 4f1+    1 4f3+    1 4f1+    1 4f3+    1 4f1+    1 4f3+    1 4f1+    1 4f3+
                                   1 4f1+    1 4f3+    1 4f1+    1 4f3+    1 4f1+    1 4f3+    1 4f1+    1 4f3+    1 4f1+    1 4f3+
                                   1 4f1+    1 4f3+    1 4f1+    1 4f3+    1 4f1+    1 4f3+    1 4f1+    1 4f3+    1 4f1+    1 4f3+


   1.2   2  -447.2542-1242.7445  0.000024  0.000060  0.000175  0.000451  0.001166  0.002998  0.007814  0.020403  0.051865  0.121212
                                 0.236303  0.341001  0.286419  0.074235  0.058379 -0.003656  0.004717 -0.002132  0.001000 -0.000561
                                 0.000288 -0.000130  0.000051 -0.000020  0.000008 -0.000003 -0.000000  0.000000  0.000000  0.000000
                                 0.000000 -0.000000  0.000000  0.000000  0.000000  0.000000  0.000000 -0.000000  0.000000 -0.000000
                                 0.000000 -0.000000 -0.000000  0.000000 -0.000000  0.000000 -0.000000  0.000000 -0.000000 -0.000000
                                -0.000000  0.000000  0.000000 -0.000000 -0.000000 -0.000000  0.000000 -0.000000 -0.000000  0.000000

   2.2   2  -103.2572 -444.5612 -0.000012 -0.000031 -0.000090 -0.000232 -0.000603 -0.001555 -0.004090 -0.010764 -0.027981 -0.067087
                                -0.137650 -0.204137 -0.146061  0.123586  0.095112  0.490348  0.369889  0.071939  0.007055 -0.001238
                                 0.000764 -0.000418  0.000144 -0.000063  0.000026 -0.000008  0.000000 -0.000000  0.000000 -0.000000
                                -0.000000  0.000000  0.000000 -0.000000  0.000000 -0.000000  0.000000 -0.000000  0.000000  0.000000
                                -0.000000  0.000000  0.000000 -0.000000  0.000000 -0.000000  0.000000 -0.000000 -0.000000  0.000000
                                 0.000000 -0.000000 -0.000000  0.000000  0.000000  0.000000 -0.000000  0.000000  0.000000 -0.000000

   3.2   2   -21.0232 -190.9992  0.000006  0.000015  0.000044  0.000115  0.000298  0.000770  0.002031  0.005355  0.013996  0.033761
                                 0.070180  0.104868  0.069898 -0.097653 -0.077798 -0.400800 -0.233493  0.414380  0.612961  0.216141
                                 0.013054  0.001935 -0.000305  0.000191 -0.000074  0.000023  0.000000 -0.000000  0.000000  0.000000
                                 0.000000 -0.000000  0.000000  0.000000  0.000000  0.000000  0.000000  0.000000  0.000000  0.000000
                                 0.000000  0.000000  0.000000 -0.000000 -0.000000 -0.000000 -0.000000  0.000000  0.000000 -0.000000
                                -0.000000  0.000000  0.000000 -0.000000 -0.000000  0.000000  0.000000 -0.000000 -0.000000  0.000000

   4.2   2    -3.2384 -142.5912  0.000000  0.000000  0.000000  0.000000  0.000000  0.000000  0.000000  0.000000  0.000000  0.000000
                                 0.000000  0.000000  0.000000 -0.000000 -0.000000 -0.000000 -0.000000  0.000000  0.000000  0.000000
                                -0.000001 -0.000001  0.000000  0.000000  0.000000  0.000000  0.000215  0.000000  0.001990  0.000001
                                 0.000005  0.000000  0.011257  0.000004  0.042360  0.000017  0.114350  0.000045  0.223439  0.000088
                                 0.311402  0.000122  0.320162  0.000126  0.225476  0.000089  0.089076  0.000035 -0.000313 -0.000000
                                 0.015282  0.000006 -0.007196 -0.000003  0.003987  0.000002 -0.002339 -0.000001  0.001136  0.000000

   5.2   2    -3.2384 -142.5911  0.000000  0.000000  0.000000  0.000000  0.000000  0.000000  0.000000  0.000000  0.000000  0.000000
                                 0.000000  0.000000  0.000000 -0.000000 -0.000000 -0.000000 -0.000000  0.000000  0.000000 -0.000000
                                -0.000000  0.000000  0.000000 -0.000000 -0.000000 -0.000000 -0.000000  0.000215 -0.000001  0.001990
                                -0.000000  0.000005 -0.000004  0.011257 -0.000017  0.042360 -0.000045  0.114350 -0.000088  0.223439
                                -0.000122  0.311402 -0.000126  0.320162 -0.000089  0.225476 -0.000035  0.089076  0.000000 -0.000313
                                -0.000006  0.015282  0.000003 -0.007196 -0.000002  0.003987  0.000001 -0.002339 -0.000000  0.001136

   6.2   2    -2.4668  -79.0832 -0.000002 -0.000006 -0.000017 -0.000045 -0.000117 -0.000301 -0.000795 -0.002092 -0.005490 -0.013211
                                -0.027685 -0.041031 -0.028198  0.046017  0.025709  0.183044  0.082450 -0.237259 -0.429772 -0.006048
                                 0.520500  0.504897  0.153305  0.000300  0.003437 -0.001033  0.000000 -0.000000  0.000000 -0.000000
                                -0.000000 -0.000000  0.000000 -0.000000  0.000000 -0.000000  0.000000 -0.000000  0.000000 -0.000000
                                 0.000000 -0.000000  0.000000 -0.000000  0.000000  0.000000 -0.000000  0.000000 -0.000001  0.000000
                                -0.000000  0.000000  0.000000 -0.000000  0.000000 -0.000000  0.000000 -0.000000 -0.000000 -0.000000

   7.2   0     0.0379  -10.1266  0.000000  0.000000  0.000001  0.000002  0.000005  0.000013  0.000033  0.000092  0.000227  0.000586
                                 0.001112  0.001974  0.000281  0.001348 -0.007405 -0.001695 -0.008963  0.017738  0.008778  0.016094
                                -0.055665  0.013410 -0.072656  0.189251 -0.389390  1.219989 -0.000000  0.000000 -0.000000  0.000000
                                -0.000000 -0.000000 -0.000000  0.000000 -0.000000  0.000000 -0.000000  0.000000 -0.000000  0.000000
                                -0.000000  0.000000 -0.000000  0.000000  0.000000  0.000000 -0.000000 -0.000000  0.000001 -0.000000
                                -0.000001 -0.000000  0.000002 -0.000000 -0.000003 -0.000000  0.000007 -0.000000 -0.000012 -0.000000

   8.2   0     0.1363  -16.3857 -0.000000 -0.000001 -0.000002 -0.000006 -0.000015 -0.000039 -0.000107 -0.000269 -0.000746 -0.001672
                                -0.003861 -0.004731 -0.006511  0.016255 -0.015746  0.043303 -0.005894 -0.010765 -0.093224  0.054219
                                 0.003273  0.219619 -0.207539  0.416310 -1.836431  1.090211  0.000000 -0.000000  0.000000 -0.000000
                                 0.000000  0.000000  0.000000 -0.000000  0.000000 -0.000000  0.000000 -0.000000  0.000000 -0.000000
                                 0.000000 -0.000000  0.000000 -0.000000 -0.000000 -0.000000  0.000000  0.000000 -0.000002 -0.000000
                                 0.000002  0.000000 -0.000005 -0.000000  0.000010  0.000000 -0.000014 -0.000000  0.000025  0.000000

                                   1 2py     1 2py     1 2py     1 2py     1 2py     1 2py     1 2py     1 2py     1 2py     1 2py
                                   1 2py     1 2py     1 2py     1 2py     1 2py     1 2py     1 2py     1 2py     1 2py     1 2py
                                   1 2py     1 2py     1 2py     1 2py     1 2py     1 2py     1 4f1-    1 4f3-    1 4f1-    1 4f3-
                                   1 4f1-    1 4f3-    1 4f1-    1 4f3-    1 4f1-    1 4f3-    1 4f1-    1 4f3-    1 4f1-    1 4f3-
                                   1 4f1-    1 4f3-    1 4f1-    1 4f3-    1 4f1-    1 4f3-    1 4f1-    1 4f3-    1 4f1-    1 4f3-
                                   1 4f1-    1 4f3-    1 4f1-    1 4f3-    1 4f1-    1 4f3-    1 4f1-    1 4f3-    1 4f1-    1 4f3-


   1.3   2  -447.2542-1242.7445  0.000024  0.000060  0.000175  0.000451  0.001166  0.002998  0.007814  0.020403  0.051865  0.121212
                                 0.236303  0.341001  0.286419  0.074235  0.058379 -0.003656  0.004717 -0.002132  0.001000 -0.000561
                                 0.000288 -0.000130  0.000051 -0.000020  0.000008 -0.000003 -0.000000 -0.000000  0.000000 -0.000000
                                 0.000000  0.000000  0.000000 -0.000000  0.000000 -0.000000  0.000000  0.000000  0.000000  0.000000
                                 0.000000  0.000000 -0.000000 -0.000000 -0.000000 -0.000000 -0.000000 -0.000000 -0.000000  0.000000
                                -0.000000 -0.000000  0.000000  0.000000 -0.000000  0.000000  0.000000  0.000000 -0.000000 -0.000000

   2.3   2  -103.2572 -444.5612 -0.000012 -0.000031 -0.000090 -0.000232 -0.000603 -0.001555 -0.004090 -0.010764 -0.027981 -0.067087
                                -0.137650 -0.204137 -0.146061  0.123586  0.095112  0.490348  0.369889  0.071939  0.007055 -0.001238
                                 0.000764 -0.000418  0.000144 -0.000063  0.000026 -0.000008  0.000000  0.000000  0.000000  0.000000
                                -0.000000 -0.000000  0.000000  0.000000  0.000000  0.000000  0.000000  0.000000  0.000000 -0.000000
                                -0.000000 -0.000000  0.000000  0.000000  0.000000  0.000000  0.000000  0.000000 -0.000000 -0.000000
                                 0.000000  0.000000 -0.000000 -0.000000  0.000000 -0.000000 -0.000000 -0.000000  0.000000  0.000000

   3.3   2   -21.0232 -190.9992  0.000006  0.000015  0.000044  0.000115  0.000298  0.000770  0.002031  0.005355  0.013996  0.033761
                                 0.070180  0.104868  0.069898 -0.097653 -0.077798 -0.400800 -0.233493  0.414380  0.612961  0.216141
                                 0.013054  0.001935 -0.000305  0.000191 -0.000074  0.000023  0.000000  0.000000  0.000000 -0.000000
                                 0.000000  0.000000  0.000000 -0.000000  0.000000 -0.000000  0.000000 -0.000000  0.000000 -0.000000
                                 0.000000 -0.000000  0.000000  0.000000 -0.000000  0.000000 -0.000000 -0.000000  0.000000  0.000000
                                -0.000000 -0.000000  0.000000  0.000000 -0.000000 -0.000000  0.000000  0.000000 -0.000000 -0.000000

   4.3   2    -3.2384 -142.5912  0.000000  0.000000  0.000000  0.000000  0.000000  0.000000  0.000000  0.000000  0.000000  0.000000
                                 0.000000  0.000000  0.000000 -0.000000 -0.000000 -0.000000 -0.000000  0.000000  0.000000  0.000000
                                -0.000001 -0.000001  0.000000  0.000000  0.000000  0.000000  0.000215 -0.000000  0.001990 -0.000001
                                 0.000005 -0.000000  0.011257 -0.000004  0.042360 -0.000017  0.114350 -0.000045  0.223439 -0.000088
                                 0.311402 -0.000122  0.320162 -0.000126  0.225476 -0.000089  0.089076 -0.000035 -0.000313  0.000000
                                 0.015282 -0.000006 -0.007196  0.000003  0.003987 -0.000002 -0.002339  0.000001  0.001136 -0.000000

   5.3   2    -3.2384 -142.5911 -0.000000 -0.000000 -0.000000 -0.000000 -0.000000 -0.000000 -0.000000 -0.000000 -0.000000 -0.000000
                                -0.000000 -0.000000 -0.000000  0.000000  0.000000  0.000000  0.000000 -0.000000 -0.000000  0.000000
                                 0.000000 -0.000000 -0.000000  0.000000  0.000000  0.000000  0.000000  0.000215  0.000001  0.001990
                                 0.000000  0.000005  0.000004  0.011257  0.000017  0.042360  0.000045  0.114350  0.000088  0.223439
                                 0.000122  0.311402  0.000126  0.320162  0.000089  0.225476  0.000035  0.089076 -0.000000 -0.000313
                                 0.000006  0.015282 -0.000003 -0.007196  0.000002  0.003987 -0.000001 -0.002339  0.000000  0.001136

   6.3   2    -2.4668  -79.0832 -0.000002 -0.000006 -0.000017 -0.000045 -0.000117 -0.000301 -0.000795 -0.002092 -0.005490 -0.013211
                                -0.027685 -0.041031 -0.028198  0.046017  0.025709  0.183044  0.082450 -0.237259 -0.429772 -0.006048
                                 0.520500  0.504897  0.153305  0.000300  0.003437 -0.001033  0.000000  0.000000  0.000000  0.000000
                                -0.000000  0.000000  0.000000  0.000000  0.000000  0.000000  0.000000  0.000000  0.000000  0.000000
                                 0.000000  0.000000  0.000000  0.000000  0.000000 -0.000000 -0.000000 -0.000000 -0.000001 -0.000000
                                -0.000000 -0.000000  0.000000  0.000000  0.000000  0.000000  0.000000  0.000000 -0.000000  0.000000

   7.3   0     0.0379  -10.1266  0.000000  0.000000  0.000001  0.000002  0.000005  0.000013  0.000033  0.000092  0.000227  0.000586
                                 0.001112  0.001974  0.000281  0.001348 -0.007405 -0.001695 -0.008963  0.017738  0.008778  0.016094
                                -0.055665  0.013410 -0.072656  0.189251 -0.389390  1.219989 -0.000000 -0.000000 -0.000000 -0.000000
                                -0.000000  0.000000 -0.000000 -0.000000 -0.000000 -0.000000 -0.000000 -0.000000 -0.000000 -0.000000
                                -0.000000 -0.000000 -0.000000 -0.000000  0.000000 -0.000000 -0.000000  0.000000  0.000001  0.000000
                                -0.000001  0.000000  0.000002  0.000000 -0.000003  0.000000  0.000007  0.000000 -0.000012  0.000000

   8.3   0     0.1363  -16.3857 -0.000000 -0.000001 -0.000002 -0.000006 -0.000015 -0.000039 -0.000107 -0.000269 -0.000746 -0.001672
                                -0.003861 -0.004731 -0.006511  0.016255 -0.015746  0.043303 -0.005894 -0.010765 -0.093224  0.054219
                                 0.003273  0.219619 -0.207539  0.416310 -1.836431  1.090211  0.000000  0.000000  0.000000  0.000000
                                 0.000000 -0.000000  0.000000  0.000000  0.000000  0.000000  0.000000  0.000000  0.000000  0.000000
                                 0.000000  0.000000  0.000000  0.000000 -0.000000  0.000000  0.000000 -0.000000 -0.000002  0.000000
                                 0.000002 -0.000000 -0.000005  0.000000  0.000010 -0.000000 -0.000014  0.000000  0.000025 -0.000000

                                   1 3d2-    1 3d2-    1 3d2-    1 3d2-    1 3d2-    1 3d2-    1 3d2-    1 3d2-    1 3d2-    1 3d2-
                                   1 3d2-    1 3d2-    1 3d2-    1 3d2-    1 3d2-    1 3d2-    1 3d2-    1 3d2-    1 5g2-    1 5g4-
                                   1 5g2-    1 5g4-    1 5g2-    1 5g4-

   1.4   2   -80.7528 -408.3880  0.000145  0.001037  0.005638  0.023582  0.078156  0.195505  0.336019  0.355839  0.185315  0.036343
                                 0.002071  0.000308 -0.000026  0.000029 -0.000010  0.000002 -0.000000  0.000000  0.000000 -0.000000
                                -0.000000  0.000000  0.000000 -0.000000

   2.4   2   -12.5982 -169.4932 -0.000075 -0.000534 -0.002921 -0.012296 -0.041434 -0.105192 -0.178271 -0.151897  0.113226  0.426114
                                 0.430159  0.164897  0.016581  0.001370 -0.000182  0.000221 -0.000055  0.000017  0.000000 -0.000000
                                -0.000000  0.000000  0.000000 -0.000000

   3.4   2    -0.3223  -53.7741 -0.000020 -0.000147 -0.000802 -0.003399 -0.011423 -0.029250 -0.049057 -0.040262  0.046686  0.141927
                                 0.144391 -0.085974 -0.289402 -0.162682 -0.318014 -0.282288 -0.133909 -0.004265  0.000000  0.000000
                                 0.000000  0.000000  0.000002 -0.000000

   4.4   0     0.1144  -11.1388 -0.000003 -0.000016 -0.000100 -0.000377 -0.001418 -0.003204 -0.006366 -0.003303  0.002526  0.022697
                                 0.004902  0.016099 -0.136229  0.171518 -0.244210  0.181703 -0.447176  1.230157 -0.000000 -0.000000
                                 0.000000 -0.000000  0.000000 -0.000000

   5.4   0     0.4074  -19.3929  0.000007  0.000057  0.000273  0.001312  0.003885  0.011418  0.015729  0.019497 -0.027448 -0.031138
                                -0.094661  0.126537 -0.249929  0.750566 -0.641479  0.982578 -1.850375  0.826193  0.000000 -0.000000
                                -0.000001  0.000000  0.000001 -0.000000

                                   1 2pz     1 2pz     1 2pz     1 2pz     1 2pz     1 2pz     1 2pz     1 2pz     1 2pz     1 2pz
                                   1 2pz     1 2pz     1 2pz     1 2pz     1 2pz     1 2pz     1 2pz     1 2pz     1 2pz     1 2pz
                                   1 2pz     1 2pz     1 2pz     1 2pz     1 2pz     1 2pz     1 4f0     1 4f2+    1 4f0     1 4f2+
                                   1 4f0     1 4f2+    1 4f0     1 4f2+    1 4f0     1 4f2+    1 4f0     1 4f2+    1 4f0     1 4f2+
                                   1 4f0     1 4f2+    1 4f0     1 4f2+    1 4f0     1 4f2+    1 4f0     1 4f2+    1 4f0     1 4f2+
                                   1 4f0     1 4f2+    1 4f0     1 4f2+    1 4f0     1 4f2+    1 4f0     1 4f2+    1 4f0     1 4f2+


   1.5   2  -447.2542-1242.7445  0.000024  0.000060  0.000175  0.000451  0.001166  0.002998  0.007814  0.020403  0.051865  0.121212
                                 0.236303  0.341001  0.286419  0.074235  0.058379 -0.003656  0.004717 -0.002132  0.001000 -0.000561
                                 0.000288 -0.000130  0.000051 -0.000020  0.000008 -0.000003 -0.000000  0.000000  0.000000 -0.000000
                                 0.000000  0.000000  0.000000 -0.000000  0.000000  0.000000  0.000000 -0.000000  0.000000  0.000000
                                 0.000000 -0.000000 -0.000000  0.000000 -0.000000 -0.000000 -0.000000  0.000000 -0.000000 -0.000000
                                -0.000000  0.000000  0.000000 -0.000000 -0.000000  0.000000  0.000000 -0.000000 -0.000000  0.000000

   2.5   2  -103.2572 -444.5612 -0.000012 -0.000031 -0.000090 -0.000232 -0.000603 -0.001555 -0.004090 -0.010764 -0.027981 -0.067087
                                -0.137650 -0.204137 -0.146061  0.123586  0.095112  0.490348  0.369889  0.071939  0.007055 -0.001238
                                 0.000764 -0.000418  0.000144 -0.000063  0.000026 -0.000008  0.000000  0.000000  0.000000 -0.000000
                                -0.000000  0.000000  0.000000 -0.000000  0.000000  0.000000  0.000000 -0.000000  0.000000  0.000000
                                -0.000000 -0.000000  0.000000 -0.000000  0.000000  0.000000  0.000000 -0.000000 -0.000000  0.000000
                                 0.000000 -0.000000 -0.000000  0.000000  0.000000 -0.000000 -0.000000  0.000000  0.000000 -0.000000

   3.5   2   -21.0232 -190.9992  0.000006  0.000015  0.000044  0.000115  0.000298  0.000770  0.002031  0.005355  0.013996  0.033761
                                 0.070180  0.104868  0.069898 -0.097653 -0.077798 -0.400800 -0.233493  0.414379  0.612961  0.216141
                                 0.013053  0.001935 -0.000305  0.000191 -0.000074  0.000023  0.000000 -0.000000  0.000000  0.000000
                                 0.000000 -0.000000  0.000000 -0.000000  0.000000  0.000000  0.000000  0.000000  0.000000  0.000000
                                 0.000000 -0.000000  0.000000 -0.000000 -0.000000  0.000000 -0.000000 -0.000000  0.000000  0.000000
                                -0.000000 -0.000000  0.000000  0.000000 -0.000000 -0.000000  0.000000  0.000000 -0.000000 -0.000000

   4.5   2    -3.2384 -142.5912  0.000000  0.000000  0.000000  0.000000  0.000000  0.000000  0.000000  0.000000  0.000000  0.000000
                                 0.000000  0.000000  0.000000 -0.000000 -0.000000 -0.000000 -0.000000  0.000000  0.000000  0.000000
                                -0.000001 -0.000001  0.000000  0.000000  0.000000  0.000000  0.000215  0.000000  0.001990  0.000000
                                 0.000005  0.000000  0.011257  0.000000  0.042360  0.000000  0.114350  0.000000  0.223439  0.000000
                                 0.311402  0.000000  0.320162  0.000000  0.225476  0.000000  0.089076  0.000000 -0.000313 -0.000000
                                 0.015282  0.000000 -0.007196 -0.000000  0.003987  0.000000 -0.002339 -0.000000  0.001136  0.000000

   5.5   2    -3.2384 -142.5911  0.000000 -0.000000 -0.000000 -0.000000 -0.000000 -0.000000 -0.000000 -0.000000 -0.000000 -0.000000
                                -0.000000 -0.000000  0.000000 -0.000000  0.000000 -0.000000  0.000000 -0.000000  0.000000 -0.000000
                                 0.000000 -0.000000  0.000000 -0.000000  0.000000 -0.000000 -0.000000  0.000215 -0.000000  0.001990
                                -0.000000  0.000005 -0.000000  0.011257 -0.000000  0.042360 -0.000000  0.114350 -0.000000  0.223439
                                -0.000000  0.311402 -0.000000  0.320162 -0.000000  0.225476 -0.000000  0.089076  0.000000 -0.000313
                                -0.000000  0.015282  0.000000 -0.007196 -0.000000  0.003987  0.000000 -0.002339 -0.000000  0.001136

   6.5   2    -2.4668  -79.0831 -0.000002 -0.000006 -0.000017 -0.000045 -0.000117 -0.000301 -0.000795 -0.002092 -0.005490 -0.013211
                                -0.027685 -0.041031 -0.028198  0.046017  0.025709  0.183043  0.082449 -0.237259 -0.429772 -0.006049
                                 0.520499  0.504894  0.153308  0.000303  0.003437 -0.001033  0.000000 -0.000000  0.000000 -0.000000
                                -0.000000 -0.000000  0.000000 -0.000000  0.000000 -0.000000  0.000000 -0.000000  0.000000 -0.000000
                                 0.000000 -0.000000  0.000000 -0.000000  0.000000  0.000000 -0.000000 -0.000000 -0.000001  0.000000
                                -0.000000 -0.000000  0.000000  0.000000  0.000000 -0.000000  0.000000 -0.000000 -0.000000  0.000000

   7.5   0     0.0379  -10.1266  0.000000  0.000000  0.000001  0.000002  0.000005  0.000013  0.000033  0.000092  0.000227  0.000586
                                 0.001112  0.001974  0.000281  0.001348 -0.007405 -0.001695 -0.008963  0.017739  0.008778  0.016095
                                -0.055666  0.013410 -0.072657  0.189257 -0.389401  1.219995 -0.000000 -0.000000 -0.000000  0.000000
                                -0.000000  0.000000 -0.000000  0.000000 -0.000000  0.000000 -0.000000  0.000000 -0.000000  0.000000
                                -0.000000  0.000000 -0.000000  0.000000  0.000000  0.000000 -0.000000  0.000000  0.000001 -0.000000
                                -0.000001  0.000000  0.000002 -0.000000 -0.000004  0.000000  0.000009 -0.000000 -0.000015  0.000000

   8.5   0     0.1364  -16.3858 -0.000000 -0.000001 -0.000002 -0.000006 -0.000015 -0.000039 -0.000107 -0.000269 -0.000746 -0.001672
                                -0.003861 -0.004731 -0.006511  0.016255 -0.015746  0.043304 -0.005893 -0.010766 -0.093227  0.054219
                                 0.003275  0.219623 -0.207542  0.416307 -1.836426  1.090204  0.000000 -0.000000  0.000000  0.000000
                                 0.000000 -0.000000  0.000000  0.000000  0.000000 -0.000000  0.000000  0.000000  0.000000 -0.000000
                                 0.000000  0.000000  0.000000 -0.000000 -0.000000  0.000000  0.000000 -0.000000 -0.000002  0.000000
                                 0.000003 -0.000000 -0.000006  0.000000  0.000011 -0.000000 -0.000017  0.000000  0.000030 -0.000000

                                   1 3d1+    1 3d1+    1 3d1+    1 3d1+    1 3d1+    1 3d1+    1 3d1+    1 3d1+    1 3d1+    1 3d1+
                                   1 3d1+    1 3d1+    1 3d1+    1 3d1+    1 3d1+    1 3d1+    1 3d1+    1 3d1+    1 5g1+    1 5g3+
                                   1 5g1+    1 5g3+    1 5g1+    1 5g3+

   1.6   2   -80.7528 -408.3880  0.000145  0.001037  0.005638  0.023582  0.078156  0.195505  0.336019  0.355839  0.185315  0.036343
                                 0.002071  0.000308 -0.000026  0.000029 -0.000010  0.000002 -0.000000  0.000000  0.000000 -0.000000
                                -0.000000  0.000000  0.000000 -0.000000

   2.6   2   -12.5982 -169.4932 -0.000075 -0.000534 -0.002921 -0.012296 -0.041434 -0.105192 -0.178271 -0.151897  0.113226  0.426114
                                 0.430159  0.164897  0.016581  0.001370 -0.000182  0.000221 -0.000055  0.000017  0.000000 -0.000000
                                -0.000000  0.000000  0.000000 -0.000000

   3.6   2    -0.3223  -53.7741  0.000020  0.000147  0.000802  0.003399  0.011423  0.029250  0.049057  0.040262 -0.046686 -0.141927
                                -0.144391  0.085974  0.289402  0.162682  0.318013  0.282287  0.133911  0.004265 -0.000000  0.000000
                                -0.000001  0.000000 -0.000002 -0.000000

   4.6   0     0.1144  -11.1388 -0.000003 -0.000016 -0.000100 -0.000377 -0.001418 -0.003204 -0.006366 -0.003303  0.002525  0.022697
                                 0.004902  0.016099 -0.136231  0.171521 -0.244212  0.181706 -0.447182  1.230160 -0.000000 -0.000000
                                 0.000000 -0.000000  0.000000 -0.000000

   5.6   0     0.4074  -19.3929  0.000007  0.000057  0.000273  0.001312  0.003885  0.011418  0.015729  0.019497 -0.027449 -0.031138
                                -0.094662  0.126538 -0.249932  0.750572 -0.641486  0.982584 -1.850376  0.826190  0.000000  0.000000
                                -0.000001  0.000000  0.000001  0.000000

                                   1 3d1-    1 3d1-    1 3d1-    1 3d1-    1 3d1-    1 3d1-    1 3d1-    1 3d1-    1 3d1-    1 3d1-
                                   1 3d1-    1 3d1-    1 3d1-    1 3d1-    1 3d1-    1 3d1-    1 3d1-    1 3d1-    1 5g1-    1 5g3-
                                   1 5g1-    1 5g3-    1 5g1-    1 5g3-

   1.7   2   -80.7528 -408.3880  0.000145  0.001037  0.005638  0.023582  0.078156  0.195505  0.336019  0.355839  0.185315  0.036343
                                 0.002071  0.000308 -0.000026  0.000029 -0.000010  0.000002 -0.000000  0.000000  0.000000  0.000000
                                -0.000000 -0.000000  0.000000  0.000000

   2.7   2   -12.5982 -169.4932 -0.000075 -0.000534 -0.002921 -0.012296 -0.041434 -0.105192 -0.178271 -0.151897  0.113226  0.426114
                                 0.430159  0.164897  0.016581  0.001370 -0.000182  0.000221 -0.000055  0.000017  0.000000  0.000000
                                -0.000000 -0.000000  0.000000  0.000000

   3.7   2    -0.3223  -53.7741  0.000020  0.000147  0.000802  0.003399  0.011423  0.029250  0.049057  0.040262 -0.046686 -0.141927
                                -0.144391  0.085974  0.289402  0.162682  0.318013  0.282287  0.133911  0.004265 -0.000000 -0.000000
                                -0.000001 -0.000000 -0.000002  0.000000

   4.7   0     0.1144  -11.1388 -0.000003 -0.000016 -0.000100 -0.000377 -0.001418 -0.003204 -0.006366 -0.003303  0.002525  0.022697
                                 0.004902  0.016099 -0.136231  0.171521 -0.244212  0.181706 -0.447182  1.230160 -0.000000  0.000000
                                 0.000000  0.000000  0.000000  0.000000

   5.7   0     0.4074  -19.3929  0.000007  0.000057  0.000273  0.001312  0.003885  0.011418  0.015729  0.019497 -0.027449 -0.031138
                                -0.094662  0.126538 -0.249932  0.750572 -0.641486  0.982584 -1.850376  0.826190  0.000000 -0.000000
                                -0.000001 -0.000000  0.000001 -0.000000

                                   1 4f2-    1 4f2-    1 4f2-    1 4f2-    1 4f2-    1 4f2-    1 4f2-    1 4f2-    1 4f2-    1 4f2-
                                   1 4f2-    1 4f2-    1 4f2-    1 4f2-    1 4f2-    1 4f2-    1 4f2-

   1.8   2    -3.2384 -142.5911  0.000215  0.001990  0.000005  0.011257  0.042360  0.114350  0.223439  0.311402  0.320162  0.225476
                                 0.089076 -0.000313  0.015282 -0.007196  0.003987 -0.002339  0.001136

   2.8   0     0.1576   -9.4886  0.000003 -0.000056  0.000170 -0.000254  0.000260 -0.000991  0.001319 -0.004212  0.006671 -0.015273
                                 0.056828 -0.120616  0.274106 -0.486418  0.802818 -2.139643  2.518410

   3.8   0     0.3822  -12.9720 -0.000008  0.000075 -0.000314  0.000311 -0.001070  0.000237 -0.005535  0.003585 -0.016404  0.027362
                                -0.101091  0.232601 -0.505511  0.961216 -1.566753  4.055018 -2.616907

 HOMO     11.1    -0.322305 =      -8.7704eV
 LUMO     12.1    -0.006674 =      -0.1816eV
 LUMO-HOMO         0.315631 =       8.5888eV


 **********************************************************************************************************************************
 DATASETS  * FILE   NREC   LENGTH (MB)   RECORD NAMES
              1      22       21.27       500      610      700      900      950      970     1000      129      960     1700
                                          VAR    BASINP    GEOM    SYMINP    ZMAT    AOBASIS   BASIS     P2S    ABASIS    OPER
                                         1101     1401     1411     1412     1650     1100     1400     1410     1200     1210
                                          SR      EKINR    POTR     PVPR    MOLCAS      S      EKIN      POT      H0       H01
                                         1080     1600
                                         AOSYM     SMH

              2       5        5.77       200      700     1000      520     4202
                                        OPTIONS   GEOM     BASIS   MCVARS     RHF

 PROGRAMS   *        TOTAL       RHF       INT
 CPU TIMES  *        76.78      1.45     74.93
 REAL TIME  *        79.36 SEC
 DISK USED  *         4.07 GB
 SF USED    *         0.08 MB
 GA USED    *         0.00 MB       (max)       0.00 MB       (current)
 **********************************************************************************************************************************
   -->
   <time start="05:23:38" end="05:24:57" cpu="76.78" system="2.32" real="79.36"/>
   <storage units="megabyte" memory="8193.84" sf="0.08" df="313.73" eaf="3758.37" ga="0.0"/>
  </jobstep><!--

 DO I                   =        14.00000000

 Running procedure=IIID5S2F1
  --><jobstep command="RHF-SCF" commandset="SCFPRO">
   <!--


 PROGRAM * RHF-SCF (OPEN SHELL)       Authors: W. Meyer, H.-J. Werner


 NUMBER OF ELECTRONS:      41+   35-    SPACE SYMMETRY=8    SPIN SYMMETRY: Septet
 CONVERGENCE THRESHOLDS:    1.00E-05 (Density)    1.56E-07 (Energy)
 MAX. NUMBER OF ITERATIONS:       60
 INTERPOLATION TYPE:            DIIS
 INTERPOLATION STEPS:              2 (START)      1 (STEP)
 LEVEL SHIFTS:                 -0.60 (CLOSED) -0.30 (OPEN)

 Number of closed-shell orbitals:   35 (  10   6   6   2   6   2   2   1 )
 Number of open-shell orbitals:      6 (   2   0   0   1   0   1   1   1 )



 Extra symmetries of mos in symmetry 1:   1   1   1   3   2   1   3   2   1   1   3   2
 Extra symmetries of mos in symmetry 2:   1   1   1   3   2   1   3   2
 Extra symmetries of mos in symmetry 3:   1   1   1   3   2   1   3   2
 Extra symmetries of mos in symmetry 5:   1   1   1   3   2   1   3   2
 Orbital guess generated from atomic densities. Full valence occupancy:   12   6   6   3   6   3   3   1


 Molecular orbital dump at record        4202.2

 ITERATION    DDIFF          GRAD             ENERGY        2-EL.EN.            DIPOLE MOMENTS         DIIS   ORB.
    1      0.000D+00      0.000D+00    -18392.22042057  12777.126416    0.00000    0.00000    0.00000    0    start
    2      0.000D+00      0.536D-01    -18407.73455821  13832.264302    0.00000    0.00000    0.00000    1    diag,B
    3      0.285D+01      0.789D-01    -18410.02599777  13636.312584    0.00000    0.00000    0.00000    2    diag,B
    4      0.856D-01      0.241D-01    -18410.76818562  13543.009725    0.00000    0.00000    0.00000    3    diag,B
    5      0.943D-01      0.765D-02    -18410.95281645  13497.779242    0.00000    0.00000    0.00000    4    diag,B
    6      0.461D-01      0.173D-02    -18410.98699980  13487.904958    0.00000    0.00000    0.00000    5    diag,B
    7      0.699D-02      0.869D-03    -18411.00011296  13485.285990    0.00000    0.00000    0.00000    6    fixocc
    8      0.365D-02      0.431D-03    -18411.00613648  13483.289351    0.00000    0.00000    0.00000    7    diag,B
    9      0.253D-02      0.243D-03    -18411.00854605  13481.144592    0.00000    0.00000    0.00000    8    diag,B
   10      0.150D-02      0.108D-03    -18411.00922935  13480.161188    0.00000    0.00000    0.00000    9    orth
   11      0.108D-02      0.112D-03    -18411.00904357  13480.099565    0.00000    0.00000    0.00000    9    diag,B
   12      0.150D-03      0.833D-04    -18411.00897226  13479.991447    0.00000    0.00000    0.00000    9    diag,B
   13      0.399D-03      0.216D-04    -18411.00898159  13479.873759    0.00000    0.00000    0.00000    9    diag,B
   14      0.259D-03      0.749D-05    -18411.00898301  13479.851468    0.00000    0.00000    0.00000    9    diag,B
   15      0.120D-03      0.182D-05    -18411.00898306  13479.844543    0.00000    0.00000    0.00000    9    diag,B
   16      0.164D-04      0.669D-06    -18411.00898307  13479.841199    0.00000    0.00000    0.00000    9    diag,B
   17      0.859D-05      0.112D-06    -18411.00898307  13479.841027    0.00000    0.00000    0.00000    0    orth

 Final alpha occupancy:  12   6   6   3   6   3   3   2
 Final beta  occupancy:  10   6   6   2   6   2   2   1

 !RHF STATE 1.8 Energy               -18411.0089830677
   --><property name="Energy" method="RHF" principal="true" stateSymmetry="8" stateNumber="1"
     value="-18411.0089830677"/><!--
 Nuclear energy                         0.00000000
 One-electron energy               -25150.92949639
 Two-electron energy                 6739.92051332
 Virial quotient                       -0.67619479
 !RHF STATE 1.8 Dipole moment           0.00000000     0.00000000     0.00000000
 Dipole moment /Debye                   0.00000000     0.00000000     0.00000000
   --><property name="Dipole moment" method="RHF" principal="true" stateSymmetry="8"
     stateNumber="1" value="0.0 0.0 0.0"/><!--

 ELECTRON ORBITALS
 =================


   Orb  Occ    Energy  Couls-En    Coefficients

                                   1 1s      1 1s      1 1s      1 1s      1 1s      1 1s      1 1s      1 1s      1 1s      1 1s
                                   1 1s      1 1s      1 1s      1 1s      1 1s      1 1s      1 1s      1 1s      1 1s      1 1s
                                   1 1s      1 1s      1 1s      1 1s      1 1s      1 1s      1 1s      1 1s      1 1s      1 1s
                                   1 1s      1 1s      1 1s      1 3d0     1 3d2+    1 3d0     1 3d2+    1 3d0     1 3d2+    1 3d0
                                   1 3d2+    1 3d0     1 3d2+    1 3d0     1 3d2+    1 3d0     1 3d2+    1 3d0     1 3d2+    1 3d0
                                   1 3d2+    1 3d0     1 3d2+    1 3d0     1 3d2+    1 3d0     1 3d2+    1 3d0     1 3d2+    1 3d0
                                   1 3d2+    1 3d0     1 3d2+    1 3d0     1 3d2+    1 3d0     1 3d2+    1 3d0     1 3d2+    1 5g0
                                   1 5g4+    1 5g2+    1 5g0     1 5g4+    1 5g2+    1 5g0     1 5g4+    1 5g2+

   1.1   2 -2898.9998-6237.3674  0.000912  0.000995  0.002594  0.003050  0.006001  0.007586  0.013714  0.020199  0.035192  0.057528
                                 0.098418  0.159082  0.235953  0.276413  0.213081  0.079086  0.011106 -0.000670  0.001101 -0.000954
                                 0.000573 -0.000313  0.000168 -0.000094  0.000055 -0.000035  0.000016 -0.000014  0.000022 -0.000015
                                 0.000004 -0.000001  0.000000  0.000000 -0.000000  0.000000  0.000000  0.000000 -0.000000  0.000000
                                -0.000000 -0.000000  0.000000  0.000000 -0.000000 -0.000000  0.000000  0.000000 -0.000000 -0.000000
                                 0.000000  0.000000 -0.000000 -0.000000  0.000000  0.000000 -0.000000 -0.000000  0.000000  0.000000
                                -0.000000 -0.000000  0.000000  0.000000 -0.000000 -0.000000  0.000000  0.000000 -0.000000 -0.000000
                                -0.000000 -0.000000 -0.000000 -0.000000  0.000000  0.000000  0.000000 -0.000000

   2.1   2  -515.8987-1366.6931 -0.000352 -0.000384 -0.001004 -0.001184 -0.002335 -0.002971 -0.005401 -0.008047 -0.014216 -0.023796
                                -0.042178 -0.072302 -0.117872 -0.159205 -0.133032  0.049146  0.335397  0.439817  0.258763  0.065702
                                 0.004326  0.000520 -0.000388  0.000089 -0.000073  0.000054 -0.000021  0.000020 -0.000031  0.000021
                                -0.000005  0.000002 -0.000000 -0.000000 -0.000000 -0.000000 -0.000000 -0.000000  0.000000 -0.000000
                                -0.000000 -0.000000 -0.000000 -0.000000 -0.000000 -0.000000  0.000000 -0.000000 -0.000000 -0.000000
                                 0.000000 -0.000000 -0.000000  0.000000  0.000000  0.000000 -0.000000  0.000000  0.000000  0.000000
                                -0.000000  0.000000  0.000000  0.000000 -0.000000  0.000000  0.000000 -0.000000  0.000000  0.000000
                                 0.000000  0.000000  0.000000  0.000000 -0.000000 -0.000000 -0.000000  0.000000

   3.1   2  -124.7314 -484.7353  0.000168  0.000184  0.000480  0.000567  0.001118  0.001424  0.002591  0.003867  0.006847  0.011509
                                 0.020520  0.035544  0.058930  0.081847  0.069683 -0.041619 -0.276974 -0.457274 -0.296991  0.252961
                                 0.707812  0.407514  0.048620 -0.000533  0.000819 -0.000468  0.000119 -0.000113  0.000170 -0.000117
                                 0.000027 -0.000009  0.000002 -0.000000  0.000000 -0.000000 -0.000000  0.000000 -0.000000 -0.000000
                                -0.000000 -0.000000 -0.000000  0.000000 -0.000000  0.000000 -0.000000 -0.000000 -0.000000 -0.000000
                                -0.000000 -0.000000 -0.000000 -0.000000 -0.000000  0.000000 -0.000000 -0.000000 -0.000000  0.000000
                                -0.000000 -0.000000 -0.000000 -0.000000 -0.000000 -0.000000  0.000000  0.000000  0.000000 -0.000000
                                -0.000000 -0.000000  0.000000  0.000000  0.000000  0.000000  0.000000 -0.000000

   4.1   2   -82.2799 -409.9163  0.000000 -0.000000  0.000000 -0.000000  0.000000 -0.000000  0.000000  0.000000  0.000000  0.000000
                                 0.000000  0.000000  0.000000  0.000000  0.000000  0.000000 -0.000000 -0.000000 -0.000000  0.000000
                                 0.000000  0.000000 -0.000000 -0.000000 -0.000000 -0.000000  0.000000 -0.000000  0.000000 -0.000000
                                 0.000000 -0.000000  0.000000  0.000000  0.000145  0.000000  0.001037  0.000001  0.005638  0.000003
                                 0.023582  0.000010  0.078156  0.000024  0.195514  0.000041  0.336028  0.000044  0.355813  0.000023
                                 0.185331  0.000004  0.036337  0.000000  0.002068  0.000000  0.000307 -0.000000 -0.000031  0.000000
                                 0.000029 -0.000000 -0.000013  0.000000  0.000001 -0.000000 -0.000001  0.000000  0.000000  0.000000
                                 0.000000  0.000000 -0.000000  0.000000  0.000000  0.000000 -0.000000 -0.000000

   5.1   2   -82.2799 -409.9163  0.000000  0.000000  0.000000  0.000000  0.000000  0.000000  0.000000  0.000000  0.000000  0.000000
                                 0.000000  0.000000  0.000000  0.000000  0.000000 -0.000000 -0.000000 -0.000000 -0.000000  0.000000
                                 0.000000 -0.000000 -0.000000 -0.000000  0.000000 -0.000000 -0.000000 -0.000000  0.000000 -0.000000
                                 0.000000 -0.000000  0.000000  0.000145 -0.000000  0.001037 -0.000000  0.005638 -0.000001  0.023582
                                -0.000003  0.078156 -0.000010  0.195514 -0.000024  0.336028 -0.000041  0.355813 -0.000044  0.185331
                                -0.000023  0.036337 -0.000004  0.002068 -0.000000  0.000307 -0.000000 -0.000031  0.000000  0.000029
                                -0.000000 -0.000013  0.000000  0.000001 -0.000000 -0.000001  0.000000  0.000000 -0.000000 -0.000000
                                 0.000000 -0.000000 -0.000000  0.000000 -0.000000  0.000000 -0.000000  0.000000

   6.1   2   -29.2291 -210.5236 -0.000084 -0.000092 -0.000239 -0.000282 -0.000557 -0.000710 -0.001291 -0.001928 -0.003416 -0.005746
                                -0.010263 -0.017815 -0.029676 -0.041464 -0.035563  0.023601  0.157657  0.278236  0.189827 -0.219148
                                -0.852695 -0.474874  0.711840  0.758477  0.117072 -0.007155  0.003274 -0.001807  0.002652 -0.001806
                                 0.000416 -0.000132  0.000036  0.000000  0.000000  0.000000  0.000000  0.000000  0.000000  0.000000
                                 0.000000  0.000000  0.000000  0.000000  0.000000  0.000000  0.000000  0.000000  0.000000  0.000000
                                -0.000000 -0.000000 -0.000000 -0.000000 -0.000000 -0.000000 -0.000000 -0.000000 -0.000000 -0.000000
                                -0.000000 -0.000000 -0.000000 -0.000000 -0.000000 -0.000000  0.000000  0.000000  0.000000  0.000002
                                 0.000001  0.000000 -0.000001 -0.000001 -0.000000  0.000000  0.000000  0.000000

   7.1   2   -14.1154 -170.9754 -0.000000 -0.000000  0.000000 -0.000000 -0.000000 -0.000000 -0.000000 -0.000000 -0.000000 -0.000000
                                -0.000000 -0.000000 -0.000000 -0.000000 -0.000000 -0.000000  0.000000 -0.000000  0.000000 -0.000000
                                 0.000000 -0.000000  0.000000 -0.000000  0.000000 -0.000000  0.000000 -0.000000  0.000000 -0.000000
                                 0.000000 -0.000000  0.000000  0.000000 -0.000074  0.000000 -0.000533  0.000000 -0.002919  0.000000
                                -0.012290  0.000000 -0.041412  0.000001 -0.105150  0.000001 -0.178165  0.000001 -0.151863 -0.000001
                                 0.113196 -0.000003  0.425822 -0.000003  0.429576 -0.000001  0.166463 -0.000000  0.016064 -0.000000
                                 0.001120  0.000000 -0.000450 -0.000000  0.000189  0.000000 -0.000060 -0.000000  0.000018 -0.000000
                                 0.000000 -0.000004 -0.000000  0.000000 -0.000000 -0.000000  0.000000 -0.000000

   8.1   2   -14.1154 -170.9754 -0.000000 -0.000000 -0.000000 -0.000000 -0.000000 -0.000000 -0.000000 -0.000000 -0.000000 -0.000000
                                -0.000000 -0.000000 -0.000000 -0.000000 -0.000000  0.000000  0.000000  0.000000  0.000000 -0.000000
                                -0.000000 -0.000000  0.000000  0.000000 -0.000000  0.000000 -0.000000  0.000000 -0.000000  0.000000
                                -0.000000 -0.000000  0.000000 -0.000074 -0.000000 -0.000533 -0.000000 -0.002919 -0.000000 -0.012290
                                -0.000000 -0.041412 -0.000000 -0.105150 -0.000001 -0.178165 -0.000001 -0.151863 -0.000001  0.113196
                                 0.000001  0.425822  0.000003  0.429576  0.000003  0.166463  0.000001  0.016064  0.000000  0.001120
                                 0.000000 -0.000450 -0.000000  0.000189  0.000000 -0.000060 -0.000000  0.000018  0.000000  0.000003
                                -0.000003 -0.000000  0.000000 -0.000000 -0.000000  0.000000 -0.000000 -0.000000

   9.1   2    -5.7757  -94.0381  0.000036  0.000040  0.000104  0.000123  0.000242  0.000308  0.000561  0.000838  0.001485  0.002500
                                 0.004465  0.007757  0.012930  0.018106  0.015524 -0.010509 -0.070968 -0.126440 -0.089480  0.111504
                                 0.458536  0.254925 -0.546284 -0.886884  0.105714  0.926206  0.406832  0.004273  0.011482 -0.009869
                                 0.002711 -0.000917  0.000256  0.000000 -0.000000  0.000000 -0.000000  0.000000 -0.000000  0.000000
                                -0.000000  0.000000 -0.000000  0.000000 -0.000000  0.000000 -0.000000 -0.000000 -0.000000 -0.000000
                                 0.000000 -0.000000  0.000000  0.000000  0.000000  0.000000  0.000000  0.000000 -0.000000  0.000000
                                -0.000000 -0.000000  0.000000 -0.000000  0.000000 -0.000000  0.000000  0.000000  0.000000  0.000019
                                 0.000016 -0.000000  0.000048  0.000041 -0.000000 -0.000020 -0.000017  0.000000

  10.1   2    -1.1593  -39.7331 -0.000014 -0.000016 -0.000041 -0.000048 -0.000095 -0.000121 -0.000219 -0.000328 -0.000580 -0.000979
                                -0.001743 -0.003040 -0.005043 -0.007120 -0.005983  0.003886  0.028544  0.048383  0.038486 -0.049920
                                -0.179395 -0.112899  0.249730  0.409051 -0.040875 -0.728688 -0.428036  0.904167  0.248444  0.261330
                                -0.022357  0.009878 -0.002869  0.000000  0.000000  0.000000  0.000000  0.000000  0.000000  0.000000
                                 0.000000  0.000000  0.000000  0.000000  0.000000  0.000000  0.000000  0.000000  0.000000 -0.000000
                                -0.000000 -0.000000 -0.000000 -0.000000 -0.000000  0.000000  0.000000  0.000000  0.000000  0.000000
                                 0.000000 -0.000000  0.000000  0.000000  0.000000 -0.000000  0.000000  0.000000  0.000000  0.000025
                                 0.000021 -0.000000 -0.000109 -0.000092  0.000000  0.000745  0.000629 -0.000000

  11.1   +    -1.7539  -63.4586  0.000000  0.000000  0.000000  0.000000  0.000000  0.000000  0.000000  0.000000  0.000000  0.000000
                                 0.000000  0.000000  0.000000  0.000000  0.000000 -0.000000 -0.000000 -0.000000  0.000000 -0.000000
                                 0.000000 -0.000000  0.000000 -0.000000  0.000000 -0.000000  0.000000 -0.000000  0.000000 -0.000000
                                 0.000000 -0.000000  0.000000  0.000000  0.000025  0.000000  0.000177  0.000000  0.000967  0.000000
                                 0.004095  0.000000  0.013772  0.000001  0.035247  0.000002  0.059150  0.000001  0.048392 -0.000002
                                -0.056478 -0.000005 -0.172279 -0.000005 -0.172701  0.000003  0.102354  0.000010  0.384465  0.000005
                                 0.197467  0.000010  0.374830  0.000003  0.115302  0.000000  0.004211 -0.000000 -0.000470  0.000000
                                -0.000000 -0.000023  0.000000 -0.000000 -0.000121  0.000000 -0.000000 -0.000261

  12.1   +    -1.7539  -63.4586 -0.000000 -0.000000 -0.000000 -0.000000 -0.000000 -0.000000 -0.000000 -0.000000 -0.000000 -0.000000
                                -0.000000 -0.000000 -0.000000 -0.000000 -0.000000  0.000000  0.000000  0.000000  0.000000 -0.000000
                                -0.000000 -0.000000  0.000000  0.000000  0.000000 -0.000000  0.000000  0.000000 -0.000000  0.000000
                                -0.000000  0.000000 -0.000000  0.000025 -0.000000  0.000177 -0.000000  0.000967 -0.000000  0.004095
                                -0.000000  0.013772 -0.000000  0.035247 -0.000001  0.059150 -0.000002  0.048392 -0.000001 -0.056478
                                 0.000002 -0.172279  0.000005 -0.172701  0.000005  0.102354 -0.000003  0.384465 -0.000010  0.197467
                                -0.000005  0.374830 -0.000010  0.115302 -0.000003  0.004211 -0.000000 -0.000470  0.000000  0.000015
                                -0.000018  0.000000  0.000078 -0.000092  0.000000  0.000169 -0.000200  0.000000

  13.1   0    -0.2909  -16.9838 -0.000006 -0.000006 -0.000016 -0.000019 -0.000038 -0.000049 -0.000088 -0.000132 -0.000234 -0.000394
                                -0.000702 -0.001223 -0.002034 -0.002860 -0.002427  0.001613  0.011383  0.019782  0.014961 -0.019229
                                -0.073911 -0.044216  0.099829  0.172239 -0.016890 -0.325181 -0.230525  0.620972  0.308412  0.508871
                                -1.196993 -0.467990  0.039468 -0.000000  0.000000 -0.000000  0.000000 -0.000000  0.000000 -0.000000
                                 0.000000 -0.000000  0.000000 -0.000000  0.000000 -0.000000  0.000000 -0.000000  0.000000  0.000000
                                -0.000000  0.000000 -0.000000  0.000000 -0.000000 -0.000000  0.000000 -0.000000  0.000000 -0.000000
                                 0.000000  0.000000  0.000000 -0.000000 -0.000000 -0.000000 -0.000000 -0.000000 -0.000000  0.000079
                                 0.000067  0.000000 -0.000223 -0.000188 -0.000000  0.000978  0.000827  0.000000

  14.1   0    -0.2451  -18.2944 -0.000000 -0.000000 -0.000000 -0.000000 -0.000000 -0.000000 -0.000000 -0.000000 -0.000000 -0.000000
                                -0.000000 -0.000000 -0.000000 -0.000000 -0.000000  0.000000  0.000000  0.000000  0.000000 -0.000000
                                -0.000000 -0.000000  0.000000  0.000000 -0.000000 -0.000000 -0.000000  0.000000  0.000000  0.000000
                                -0.000000 -0.000000  0.000000 -0.000005  0.000000 -0.000039  0.000000 -0.000213  0.000000 -0.000900
                                 0.000000 -0.003031  0.000000 -0.007754  0.000000 -0.013020  0.000000 -0.010571  0.000000  0.012737
                                -0.000000  0.038623 -0.000001  0.038231 -0.000001 -0.026802  0.000001 -0.100121  0.000003 -0.045547
                                 0.000001 -0.104967  0.000003  0.081672 -0.000002  0.569070 -0.000016  0.494558 -0.000014  0.000046
                                -0.000054  0.000000 -0.000157  0.000186 -0.000000  0.000434 -0.000513  0.000000

                                   1 2px     1 2px     1 2px     1 2px     1 2px     1 2px     1 2px     1 2px     1 2px     1 2px
                                   1 2px     1 2px     1 2px     1 2px     1 2px     1 2px     1 2px     1 2px     1 2px     1 2px
                                   1 2px     1 2px     1 2px     1 2px     1 2px     1 2px     1 4f1+    1 4f3+    1 4f1+    1 4f3+
                                   1 4f1+    1 4f3+    1 4f1+    1 4f3+    1 4f1+    1 4f3+    1 4f1+    1 4f3+    1 4f1+    1 4f3+
                                   1 4f1+    1 4f3+    1 4f1+    1 4f3+    1 4f1+    1 4f3+    1 4f1+    1 4f3+    1 4f1+    1 4f3+
                                   1 4f1+    1 4f3+    1 4f1+    1 4f3+    1 4f1+    1 4f3+    1 4f1+    1 4f3+    1 4f1+    1 4f3+


   1.2   2  -448.7891-1244.2798  0.000024  0.000060  0.000175  0.000451  0.001166  0.002998  0.007814  0.020403  0.051865  0.121210
                                 0.236302  0.341011  0.286419  0.074228  0.058377 -0.003658  0.004718 -0.002130  0.001001 -0.000561
                                 0.000287 -0.000130  0.000050 -0.000020  0.000008 -0.000003 -0.000000  0.000000 -0.000000  0.000000
                                 0.000000 -0.000000 -0.000000  0.000000 -0.000000  0.000000  0.000000 -0.000000  0.000000 -0.000000
                                 0.000000 -0.000000 -0.000000  0.000000 -0.000000  0.000000 -0.000000  0.000000  0.000000 -0.000000
                                -0.000000  0.000000  0.000000 -0.000000  0.000000 -0.000000  0.000000 -0.000000 -0.000000  0.000000

   2.2   2  -104.7858 -446.0956 -0.000012 -0.000031 -0.000090 -0.000232 -0.000603 -0.001555 -0.004090 -0.010765 -0.027982 -0.067091
                                -0.137658 -0.204162 -0.146063  0.123615  0.095193  0.490307  0.369879  0.071911  0.007027 -0.001240
                                 0.000765 -0.000405  0.000152 -0.000061  0.000026 -0.000008 -0.000000  0.000000  0.000000 -0.000000
                                -0.000000  0.000000  0.000000 -0.000000  0.000000 -0.000000 -0.000000  0.000000  0.000000 -0.000000
                                 0.000000 -0.000000  0.000000 -0.000000  0.000000 -0.000000 -0.000000  0.000000 -0.000000  0.000000
                                -0.000000  0.000000 -0.000000  0.000000 -0.000000  0.000000 -0.000000  0.000000 -0.000000  0.000000

   3.2   2   -22.5467 -192.5184  0.000006  0.000015  0.000044  0.000115  0.000298  0.000770  0.002031  0.005355  0.013995  0.033759
                                 0.070177  0.104874  0.069876 -0.097616 -0.077932 -0.400682 -0.233606  0.415148  0.611511  0.217200
[...]
                                 0.000000  0.000000  0.000000  0.000000

                                   1 3d1-    1 3d1-    1 3d1-    1 3d1-    1 3d1-    1 3d1-    1 3d1-    1 3d1-    1 3d1-    1 3d1-
                                   1 3d1-    1 3d1-    1 3d1-    1 3d1-    1 3d1-    1 3d1-    1 3d1-    1 3d1-    1 5g1-    1 5g3-
                                   1 5g1-    1 5g3-    1 5g1-    1 5g3-

   1.7  2.00000   -82.279452     0.000145  0.001037  0.005638  0.023582  0.078156  0.195514  0.336028  0.355813  0.185331  0.036337
                                 0.002068  0.000307 -0.000031  0.000029 -0.000013  0.000001 -0.000001  0.000000  0.000000  0.000000
                                 0.000000  0.000000  0.000000  0.000000

   2.7  2.00000   -14.114847    -0.000074 -0.000533 -0.002919 -0.012290 -0.041412 -0.105150 -0.178166 -0.151863  0.113196  0.425822
                                 0.429580  0.166462  0.016057  0.001121 -0.000451  0.000190 -0.000060  0.000018  0.000000  0.000000
                                 0.000000  0.000000  0.000000  0.000000

   3.7  0.99997    -1.352647     0.000025  0.000177  0.000966  0.004090  0.013754  0.035203  0.059074  0.048334 -0.056408 -0.172044
                                -0.172501  0.102218  0.383681  0.197504  0.374104  0.116718  0.005887 -0.000259  0.000000  0.000000
                                 0.000000  0.000000  0.000000  0.000000

                                   1 4f2-    1 4f2-    1 4f2-    1 4f2-    1 4f2-    1 4f2-    1 4f2-    1 4f2-    1 4f2-    1 4f2-
                                   1 4f2-    1 4f2-    1 4f2-    1 4f2-    1 4f2-    1 4f2-    1 4f2-

   1.8  2.00000    -4.756576     0.000216  0.001993  0.000005  0.011277  0.042440  0.114538  0.223811  0.311875  0.320304  0.226577
                                 0.087675 -0.003816  0.012658 -0.007096  0.003399 -0.002095  0.000936

   2.8  0.14288    -0.128134    -0.000013 -0.000119 -0.000002 -0.000672 -0.002546 -0.006860 -0.013346 -0.017793 -0.016555 -0.000630
                                 0.033555  0.032957  0.129204  0.053410  0.389785  0.157920  0.467763

 Total charge:   2.000000000000

 *** IN SYMMETRY 1 ORBITAL  4 SYMMETRY CONTAMINATION OF 0.364D-02 HAS BEEN REMOVED
 *** IN SYMMETRY 1 ORBITAL  5 SYMMETRY CONTAMINATION OF 0.364D-02 HAS BEEN REMOVED
 *** IN SYMMETRY 1 ORBITAL  7 SYMMETRY CONTAMINATION OF 0.372D-01 HAS BEEN REMOVED
 *** IN SYMMETRY 1 ORBITAL  8 SYMMETRY CONTAMINATION OF 0.372D-01 HAS BEEN REMOVED

 EXTRA SYMMETRY OF MOS IN SYMMETRY 1:   1 1 1 3 2 1 3 2 1 1   3 2 1 2 3 1 2 3 1 1   2 3 1 5 6 4 3 2 1 4   6 5 2 3 4 6 5 1 2 3
                                        1 3 2 3 2 1 3 2 1 2   3 1 1 3 2 1 2 3 1 2   3 1 2 3 1 1 2 3 1 1   1 1 1 1 1 1 1 1
 *** IN SYMMETRY 2 ORBITAL  4 SYMMETRY CONTAMINATION OF 0.385D-02 HAS BEEN REMOVED
 *** IN SYMMETRY 2 ORBITAL  5 SYMMETRY CONTAMINATION OF 0.385D-02 HAS BEEN REMOVED
 EXTRA SYMMETRY OF MOS IN SYMMETRY 2:   1 1 1 3 2 1 3 2 1 1   1 3 2 2 3 1 2 3 3 2   2 3 1 2 3 1 2 3 2 3   1 2 3 1 2 3 1 2 3 1
                                        3 2 1 3 2 1 3 2 1 2   3 1 1 1 1 1 1 1 1 1
 EXTRA SYMMETRY OF MOS IN SYMMETRY 3:   1 1 1 3 2 1 3 2 1 1   1 3 2 3 2 1 2 3 2 3   2 3 1 2 3 1 2 3 2 3   1 2 3 1 2 3 1 3 2 1
                                        3 2 1 3 2 1 2 3 1 3   2 1 1 1 1 1 1 1 1 1
 EXTRA SYMMETRY OF MOS IN SYMMETRY 4:   1 1 1 1 1 1 2 3 1 3   2 1 2 3 1 1 1 1 1 1   1 1 1 1
 *** IN SYMMETRY 5 ORBITAL  4 SYMMETRY CONTAMINATION OF 0.402D-03 HAS BEEN REMOVED
 *** IN SYMMETRY 5 ORBITAL  5 SYMMETRY CONTAMINATION OF 0.402D-03 HAS BEEN REMOVED
 EXTRA SYMMETRY OF MOS IN SYMMETRY 5:   1 1 1 2 3 1 2 3 1 1   1 3 2 3 2 1 3 2 3 2   2 3 1 2 3 1 2 3 2 3   1 2 3 1 2 3 1 3 2 1
                                        3 2 1 3 2 1 3 2 1 3   2 1 1 1 1 1 1 1 1 1
 EXTRA SYMMETRY OF MOS IN SYMMETRY 6:   1 1 1 1 1 1 3 2 1 3   2 1 3 2 1 1 1 1 1 1   1 1 1 1
 EXTRA SYMMETRY OF MOS IN SYMMETRY 7:   1 1 1 1 1 1 3 2 1 3   2 1 3 2 1 1 1 1 1 1   1 1 1 1

 Natural orbital dump (state averaged) at molpro section  5202.2    (Orbital set 2)


 CI vector for state symmetry 1
 ==============================

 aa a0 00 a 00 a a 0      0.4264902   0.9044513
 aa 0a 00 a 00 a a 0      0.9044513  -0.4264902

 TOTAL ENERGIES                    -18411.00911679-18411.00911679

 CI vector for state symmetry 2
 ==============================

 aa 00 0a a 00 a a 0      0.9014565   0.4327842
 aa 00 a0 a 00 a a 0     -0.4327842   0.9014565

 TOTAL ENERGIES                    -18411.00911679-18411.00911679

 CI vector for state symmetry 3
 ==============================

 aa 00 00 a a0 a a 0      0.0000000   0.9999630
 aa 00 00 a 0a a a 0      0.9999630  -0.0000000

 TOTAL ENERGIES                    -18411.00911679-18411.00911679

 CI vector for state symmetry 4
 ==============================

 aa 00 00 a 00 a a a      0.9999630

 TOTAL ENERGIES                    -18411.00911679



 **********************************************************************************************************************************
 DATASETS  * FILE   NREC   LENGTH (MB)   RECORD NAMES
              1      23      231.51       500      610      700      900      950      970     1000      129      960     1700
                                          VAR    BASINP    GEOM    SYMINP    ZMAT    AOBASIS   BASIS     P2S    ABASIS    OPER
                                         1101     1401     1411     1412     1650     1100     1400     1410     1200     1210
                                          SR      EKINR    POTR     PVPR    MOLCAS      S      EKIN      POT      H0       H01
                                         1080     1600     1380
                                         AOSYM     SMH     JKOP

              2       6        9.11       200      700     1000      520     4202     5202
                                        OPTIONS   GEOM     BASIS   MCVARS     RHF     MCSCF

 PROGRAMS   *        TOTAL     MULTI       POP       RHF       RHF       INT
 CPU TIMES  *       110.21     29.36      0.00      4.04      1.45     74.93
 REAL TIME  *       116.73 SEC
 DISK USED  *         4.09 GB
 SF USED    *       814.47 MB
 GA USED    *         0.00 MB       (max)       0.00 MB       (current)
 **********************************************************************************************************************************
   -->
   <time start="05:25:01" end="05:25:34" cpu="29.36" system="1.87" real="33.14"/>
   <storage units="megabyte" memory="8193.84" sf="814.47" df="330.69" eaf="3758.37"
     ga="0.0"/>
  </jobstep><!--
  --><jobstep command="RHF-SCF" commandset="SCFPRO">
   <!--


 PROGRAM * RHF-SCF (OPEN SHELL)       Authors: W. Meyer, H.-J. Werner


 NUMBER OF ELECTRONS:      41+   35-    SPACE SYMMETRY=8    SPIN SYMMETRY: Septet
 CONVERGENCE THRESHOLDS:    1.00E-05 (Density)    1.52E-07 (Energy)
 MAX. NUMBER OF ITERATIONS:        0
 INTERPOLATION TYPE:            DIIS
 INTERPOLATION STEPS:              2 (START)      1 (STEP)
 LEVEL SHIFTS:                 -0.60 (CLOSED) -0.30 (OPEN)

 Number of closed-shell orbitals:   35 (  10   6   6   2   6   2   2   1 )
 Number of open-shell orbitals:      6 (   2   0   0   1   0   1   1   1 )


 Molecular orbitals read from record     5202.2  Type=MCSCF/NATURAL (state averaged)

 Molecular orbital dump at record        2125.2

 ITERATION    DDIFF          GRAD             ENERGY        2-EL.EN.            DIPOLE MOMENTS         DIIS   ORB.
    1      0.000D+00      0.000D+00    -18411.00888694  13479.929706    0.00000    0.00000    0.00000    0    start

 Final alpha occupancy:  12   6   6   3   6   3   3   2
 Final beta  occupancy:  10   6   6   2   6   2   2   1

 !RHF STATE 1.8 Energy               -18411.0088869436
   --><property name="Energy" method="RHF" principal="true" stateSymmetry="8" stateNumber="1"
     value="-18411.0088869436"/><!--
 Nuclear energy                         0.00000000
 One-electron energy               -25150.97373973
 Two-electron energy                 6739.96485279
 Virial quotient                       -0.67619476
 !RHF STATE 1.8 Dipole moment           0.00000000     0.00000000     0.00000000
 Dipole moment /Debye                   0.00000000     0.00000000     0.00000000
   --><property name="Dipole moment" method="RHF" principal="true" stateSymmetry="8"
     stateNumber="1" value="0.0 0.0 0.0"/><!--

 Orbital energies:

         1.1          2.1          3.1          4.1          5.1          6.1          7.1          8.1          9.1         10.1
  -2898.999278  -515.898162  -124.730906   -82.279452   -82.279452   -29.228597   -14.114847   -14.114847    -5.775138    -1.158863

        11.1         12.1         13.1         14.1
     -1.352647    -1.352647    -0.281828    -0.241257

         1.2          2.2          3.2          4.2          5.2          6.2          7.2          8.2
   -448.788588  -104.785250   -22.546179    -4.756576    -4.756576    -3.855432    -0.128134    -0.128134

         1.3          2.3          3.3          4.3          5.3          6.3          7.3          8.3
   -448.788588  -104.785250   -22.546179    -4.756576    -4.756576    -3.855432    -0.128134    -0.128134

         1.4          2.4          3.4          4.4          5.4
    -82.279452   -14.114847    -1.352647    -0.241257    -0.078887

         1.5          2.5          3.5          4.5          5.5          6.5          7.5          8.5
   -448.788588  -104.785250   -22.546179    -4.756576    -4.756576    -3.855432    -0.128134    -0.128134

         1.6          2.6          3.6          4.6          5.6
    -82.279452   -14.114847    -1.352647    -0.241257    -0.078887

         1.7          2.7          3.7          4.7          5.7
    -82.279452   -14.114847    -1.352647    -0.241257    -0.078887

         1.8          2.8          3.8          4.8
     -4.756576    -0.128134    -0.027860     0.203548

 HOMO      2.8    -0.128134 =      -3.4867eV
 LUMO     13.1    -0.281828 =      -7.6689eV
 LUMO-HOMO        -0.153694 =      -4.1822eV


 **********************************************************************************************************************************
 DATASETS  * FILE   NREC   LENGTH (MB)   RECORD NAMES
              1      23      231.51       500      610      700      900      950      970     1000      129      960     1700
                                          VAR    BASINP    GEOM    SYMINP    ZMAT    AOBASIS   BASIS     P2S    ABASIS    OPER
                                         1101     1401     1411     1412     1650     1100     1400     1410     1200     1210
                                          SR      EKINR    POTR     PVPR    MOLCAS      S      EKIN      POT      H0       H01
                                         1080     1600     1380
                                         AOSYM     SMH     JKOP

              2       7       12.77       200      700     1000      520     4202     5202     2125
                                        OPTIONS   GEOM     BASIS   MCVARS     RHF     MCSCF     RHF

 PROGRAMS   *        TOTAL       RHF     MULTI       POP       RHF       RHF       INT
 CPU TIMES  *       110.38      0.17     29.36      0.00      4.04      1.45     74.93
 REAL TIME  *       117.12 SEC
 DISK USED  *         4.09 GB
 SF USED    *       814.47 MB
 GA USED    *         0.00 MB       (max)       0.00 MB       (current)
 **********************************************************************************************************************************
   -->
   <time start="05:25:34" end="05:25:35" cpu="0.17" system="0.01" real="0.39"/>
   <storage units="megabyte" memory="8193.84" sf="814.47" df="330.69" eaf="3758.37"
     ga="0.0"/>
  </jobstep><!--
 SETTING SCF(14)        =    -18411.00888694  AU
 SETTING _CC_NORM_MAX   =         2.00000000
  --><jobstep command="RCCSD(T)" commandset="CCSD">
   <!--


 PROGRAM * CCSD (Restricted open-shell coupled cluster)     Authors: C. Hampel, H.-J. Werner, 1991, M. Deegan, P.J. Knowles, 1992


 Convergence thresholds:  THRVAR = 1.00D-08  THRDEN = 1.52D-06

 CCSD(T)     terms to be evaluated (factor= 1.000)


 Number of closed-shell orbitals:  35 (  10   6   6   2   6   2   2   1 )
 Number of active  orbitals:        6 (   2   0   0   1   0   1   1   1 )
 Number of external orbitals:     306 (  66  54  54  21  54  21  21  15 )

 Memory could be reduced to 286.33 Mwords without degradation in triples

 Number of N-1 electron functions:              76
 Number of N-2 electron functions:            2850
 Number of singly external CSFs:              3818
 Number of doubly external CSFs:          26652432
 Total number of CSFs:                    26656250

 Molecular orbitals read from record     2125.2  Type=RHF/CANONICAL (state 1.8)

 Integral transformation finished. Total CPU:   9.08 sec, npass=  1  Memory used:  68.04 MW

 Starting RMP2 calculation

 Wavefunction is spin-projected

 ITER.      SQ.NORM     CORR.ENERGY   TOTAL ENERGY   ENERGY CHANGE        DEN1      VAR(S)    VAR(P)  DIIS     TIME
   1      1.46446829    -3.19991929-18414.20880624    -3.19991929    -0.01600760  0.74D-05  0.17D+00  1  1    22.77
   2      2.28510457    -3.20796430-18414.21685124    -0.00804501    -0.04333261  0.22D-05  0.50D+00  2  2    28.60
   3      1.15717036    -3.19132519-18414.20021213     0.01663911    -0.00004638  0.12D-06  0.73D-04  3  3    36.33
   4      1.15967525    -3.19140470-18414.20029165    -0.00007952    -0.00000136  0.59D-08  0.22D-05  4  4    46.67
   5      1.15988516    -3.19141048-18414.20029743    -0.00000578    -0.00000006  0.97D-10  0.93D-07  5  5    58.47
   6      1.15986069    -3.19141228-18414.20029922    -0.00000179    -0.00000000  0.31D-11  0.12D-08  6  6    72.24
   7      1.15985835    -3.19141248-18414.20029942    -0.00000020    -0.00000000  0.34D-12  0.61D-09  6  1    89.24

 Norm of t1 vector:      0.04185446      S-energy:    -0.00722656      T1 diagnostic:  0.00051423
 Norm of t2 vector:      0.39762615      P-energy:    -3.18418592
                                         Alpha-Beta:  -2.02381039
                                         Alpha-Alpha: -0.63025528
                                         Beta-Beta:   -0.53012025

 Spin contamination <S**2-Sz**2-Sz>     0.00000000
  Reference energy                   -18411.0088869436
   --><property name="energy" method="Reference" stateSymmetry="1" stateNumber="1"
     value="-18411.0088869436"/><!--
  RHF-RMP2 correlation energy          -3.191412477583
   --><property name="energy" method="RHF-RMP2 correlation" stateSymmetry="1" stateNumber="1"
     value="-3.19141247758274"/><!--
 !RHF-RMP2 energy                    -18414.2002994212
   --><property name="energy" method="RHF-RMP2" principal="true" stateSymmetry="8"
     stateNumber="1" value="-18414.2002994212"/><!--
 (NB above energy spin projected)

 Starting RCCSD calculation

 ITER.      SQ.NORM     CORR.ENERGY   TOTAL ENERGY   ENERGY CHANGE        DEN1      VAR(S)    VAR(P)  DIIS     TIME
   1      2.95909206    -2.89347766-18413.90236460    -2.89347766    -0.21461761  0.28D-02  0.14D+01  0  0   143.51
   2    111.99101684    -3.09940623-18414.10829318    -0.20592858    -7.12090500  0.32D-02  0.84D+02  0  0   192.48

 UNREASONABLE NORM:111.991017 CALCULATION WILL BE STOPPED

 The threshold can be changed using option CC_NORM_MAX (see manual). The current value is CC_NORM_MAX=2.00

 Norm of t1 vector:      0.10305812      S-energy:    -0.00710594      T1 diagnostic:  0.00760844
                                                                       D1 diagnostic:  0.05957211
 Norm of t2 vector:     10.53472334      P-energy:    -3.09230030
                                         Alpha-Beta:  -2.05811822
                                         Alpha-Alpha: -0.56074871
                                         Beta-Beta:   -0.47343337

 Singles amplitudes (print threshold =  0.500E-01):

         I         SYM. A    A   T(IA) [Alpha-Alpha]

        41         8         2     -0.06248213
        41         8         3      0.05263580

 Doubles amplitudes (print threshold =  0.500E-01):

         I         J         SYM. A    SYM. B    A         B      T(IJ, AB) [Alpha-Beta]

        10        10         2         2         3         3     -0.05621242
        10        10         3         3         3         3     -0.05621242
        10        10         5         5         3         3     -0.05621220
        41        10         2         7         3         1     -6.07859551
        41        10         3         6         3         1     -6.07859551
        41        10         5         4         3         1      6.07859383

 ?ERROR: NO CONVERGENCE. TRIPLES WILL NOT BE DONE. THIS CAN BE AVOIDED USING THE NOCHECK OPTION.

 Spin contamination <S**2-Sz**2-Sz>     0.00000000


  Correlated core orbitals:             1.1       2.1       3.1       4.1       5.1       6.1       7.1       8.1       9.1       1.2
                                        2.2       3.2       4.2       5.2       6.2       1.3       2.3       3.3       4.3       5.3
                                        6.3       1.4       2.4       1.5       2.5       3.5       4.5       5.5       6.5       1.6
                                        2.6       1.7       2.7       1.8
  Orbital energies:                 -2898.9996 -515.9128 -124.7378  -82.2948  -82.2948  -29.2513  -14.1470  -14.1470   -5.9231 -448.8040
                                     -104.7933  -22.5692   -4.7812   -4.7811   -4.0614 -448.8040 -104.7933  -22.5692   -4.7812   -4.7811
                                       -4.0614  -82.2950  -14.1471 -448.8040 -104.7933  -22.5692   -4.7812   -4.7810   -4.0614  -82.2950
                                      -14.1471  -82.2950  -14.1471   -4.7826

  RCCSD core-core energy               -2.502720976103
   --><property name="core-core energy" method="RCCSD" stateSymmetry="8" stateNumber="1"
     value="-2.5027209761025"/><!--
  RCCSD core-valence energy            -0.316187953651
   --><property name="core-valence energy" method="RCCSD" stateSymmetry="8" stateNumber="1"
     value="-0.316187953650893"/><!--
  RCCSD valence correlation energy     -0.280497305207
   --><property name="valence correlation energy" method="RCCSD" stateSymmetry="8"
     stateNumber="1" value="-0.280497305206602"/><!--


 RESULTS
 =======

  Reference energy                   -18411.0088869436
   --><property name="energy" method="Reference" stateSymmetry="1" stateNumber="1"
     value="-18411.0088869436"/><!--
  RCCSD singles energy                 -0.007105939788
   --><property name="energy" method="RCCSD singles" stateSymmetry="1" stateNumber="1"
     value="-0.710593978755147E-02"/><!--
  RCCSD pair energy                    -3.092300295172
   --><property name="energy" method="RCCSD pair" stateSymmetry="1" stateNumber="1"
     value="-3.09230029517245"/><!--
  RCCSD correlation energy             -3.099406234960
   --><property name="energy" method="RCCSD correlation" stateSymmetry="1" stateNumber="1"
     value="-3.09940623496"/><!--

 !RHF-RCCSD energy                   -18414.1082931786
   --><property name="energy" method="RHF-RCCSD" principal="true" stateSymmetry="1"
     stateNumber="1" value="-18414.1082931786"/><!--

 Program statistics:

 Available memory in ccsd:              1023986042
 Min. memory needed in ccsd:              73590596
 Max. memory used in ccsd:               108382013
 Max. memory used in cckext:              92119423 ( 2 integral passes)
 Max. memory used in cckint:              68042614 ( 1 integral passes)


 ? Error
 ? No convergence. This error exit can be avoided using the NOCHECK option
 ? The problem occurs in ccsd
   --><error type="Error" location="ccsd"
     message="No convergence. This error exit can be avoided using the NOCHECK option"/><!--
  --></jobstep><!--
  -->
  <input>
  <!--
 --></job><!--
--></molpro>
