
 Primary working directories    : /global/cscratch1/sd/mcbennet
 Secondary working directories  : /global/cscratch1/sd/mcbennet
 Wavefunction directory         : /global/homes/m/mcbennet/wfu/
 Main file repository           : /global/cscratch1/sd/mcbennet/

 SHA1      : 19cd028119e0e09f93f0674bd8af7968d9b3eff6
 NAME      : 2015.1.36
 ARCHNAME  : linux/x86_64
 FC        : /opt/cray/pe/craype/2.5.14/bin/ftn
 BLASLIB   : -L/opt/intel/compilers_and_libraries_2018.1.163/linux/mkl/lib/intel64 -Wl,-_start-group -lmkl_intel_ilp64 -lmkl_intel_thread -lmkl_core -Wl,-_end-group -liomp5
 id        : lbl

 Nodes     nprocs
 nid01739    11
 Number of processes for MPI-2 version of Molpro:   nprocs(total)=   12   nprocs(compute)=   11   nprocs(helper)=    1

 Using customized tuning parameters: mindgm=7; mindgv=16; mindgc=1; mindgr=1; noblas=0; minvec=7
 default implementation of scratch files=sf  

 ***,Calculation for all-electron AgO molecule, SCF and CCSD(T)
 memory,1,g
 gthresh,twoint=1.0E-12
 
 set,dkroll=1,dkho=10,dkhp=4
 
                                                                                 !These are the wf cards parameters
 ne = 53
 symm = 2
 ss= 1
 
                                                                                 !There are irrep cards paramters
 A1=13
 B1=6
 B2=6
 A2=2
 
 basis={
 Including file /global/cscratch1/sd/mcbennet/Repos/Heavy_PPs/Te/01_SRL/01_All_Electron/01_DKH/molpro/molecules/teh/aug-cc-pwcvqz-dk3_unc_mod/r_1.30/Te.aug-cc-pwcvqz-dk3.1.unc.mod.mpro
 Including file /global/cscratch1/sd/mcbennet/Repos/Heavy_PPs/Te/01_SRL/01_All_Electron/01_DKH/molpro/molecules/teh/aug-cc-pwcvqz-dk3_unc_mod/r_1.30/H.aug-cc-pVQZ-DK.mpro
 }
 
 geometry={
     2
     TeH molecule
     Te 0.0 0.0 0.0
     H 0.0 0.0 1.30
 }
 {rhf
  wf,ne,symm,ss
  start,5202.2
  occ,A1,B1,B2,A2
  closed,A1,B1-1,B2,A2
  print,orbitals=2
 }
 scf=energy
 _CC_NORM_MAX=2.0
 {rccsd(t);maxit,100;core}
 ccsd=energy
 
 
                                                                                 !table,1.80,scf,ccsd
                                                                                 !save
                                                                                 !type,csv
 

 Variables initialized (889), CPU time= 0.00 sec
 Commands  initialized (702), CPU time= 0.01 sec, 572 directives.
 Default parameters read. Elapsed time= 0.22 sec

 Checking input...
 Passed
1


                                         ***  PROGRAM SYSTEM MOLPRO  ***
                                       Copyright, TTI GmbH Stuttgart, 2015
                                    Version 2015.1 linked Dec 29 2018 15:55:43


 **********************************************************************************************************************************
 LABEL *   Calculation for all-electron AgO molecule, SCF and CCSD(T)                    
  64 bit mpp version                                                                     DATE: 27-Sep-21          TIME: 15:35:22  
 **********************************************************************************************************************************

 SHA1:             19cd028119e0e09f93f0674bd8af7968d9b3eff6
 **********************************************************************************************************************************

 THRESHOLDS:

 ZERO    =  1.00D-12  ONEINT  =  1.00D-12  TWOINT  =  1.00D-12  PREFAC  =  1.00D-14  LOCALI  =  1.00D-09  EORDER  =  1.00D-04
 ENERGY  =  0.00D+00  ETEST   =  0.00D+00  EDENS   =  0.00D+00  THRDEDEF=  1.00D-06  GRADIENT=  1.00D-02  STEP    =  1.00D-03
 ORBITAL =  1.00D-05  CIVEC   =  1.00D-05  COEFF   =  1.00D-04  PRINTCI =  5.00D-02  PUNCHCI =  9.90D+01  OPTGRAD =  3.00D-04
 OPTENERG=  1.00D-06  OPTSTEP =  3.00D-04  THRGRAD =  1.00D-10  COMPRESS=  1.00D-11  VARMIN  =  1.00D-07  VARMAX  =  1.00D-03
 THRDOUB =  0.00D+00  THRDIV  =  1.00D-05  THRRED  =  1.00D-07  THRPSP  =  1.00D+00  THRDC   =  1.00D-10  THRCS   =  1.00D-10
 THRNRM  =  1.00D-08  THREQ   =  0.00D+00  THRDE   =  1.00D+00  THRREF  =  1.00D-05  SPARFAC =  1.00D+00  THRDLP  =  1.00D-07
 THRDIA  =  1.00D-10  THRDLS  =  1.00D-07  THRGPS  =  0.00D+00  THRKEX  =  0.00D+00  THRDIS  =  2.00D-01  THRVAR  =  1.00D-10
 THRLOC  =  1.00D-06  THRGAP  =  1.00D-06  THRLOCT = -1.00D+00  THRGAPT = -1.00D+00  THRORB  =  1.00D-06  THRMLTP =  0.00D+00
 THRCPQCI=  1.00D-10  KEXTA   =  0.00D+00  THRCOARS=  0.00D+00  SYMTOL  =  1.00D-06  GRADTOL =  1.00D-06  THROVL  =  1.00D-08
 THRORTH =  1.00D-08  GRID    =  1.00D-06  GRIDMAX =  1.00D-03  DTMAX   =  0.00D+00  THROCCDE=  1.00D-01  THROCCDE=  1.00D-01


 SETTING DKROLL         =         1.00000000                                  
 SETTING DKHO           =        10.00000000                                  
 SETTING DKHP           =         4.00000000                                  
 SETTING NE             =        53.00000000                                  
 SETTING SYMM           =         2.00000000                                  
 SETTING SS             =         1.00000000                                  
 SETTING A1             =        13.00000000                                  
 SETTING B1             =         6.00000000                                  
 SETTING B2             =         6.00000000                                  
 SETTING A2             =         2.00000000                                  

 Variable memory set to 1000000000 words,  buffer space   230000 words

 SETTING BASIS          =    USERDEF

Geometry recognized as XYZ



 Recomputing integrals since basis changed


 Using spherical harmonics



 PROGRAM * SEWARD (Integral evaluation for generally contracted gaussian basis sets)     Author: Roland Lindh, 1990

 Geometry written to block  1 of record 700


 Point group  C2v 



 ATOMIC COORDINATES

 NR  ATOM    CHARGE       X              Y              Z

   1  TE     52.00    0.000000000    0.000000000    0.000000000
   2  H       1.00    0.000000000    0.000000000    2.456643962

 Bond lengths in Bohr (Angstrom)

 1-2  2.456643962
     ( 1.300000000)

 NUCLEAR CHARGE:                   53
 NUMBER OF PRIMITIVE AOS:         419
 NUMBER OF SYMMETRY AOS:          339
 NUMBER OF CONTRACTIONS:          337   ( 141A1  +  78B1  +  78B2  +  40A2  )
 NUMBER OF CORE ORBITALS:          23   (  11A1  +   5B1  +   5B2  +   2A2  )
 NUMBER OF VALENCE ORBITALS:        5   (   3A1  +   1B1  +   1B2  +   0A2  )


 NUCLEAR REPULSION ENERGY   21.16708844

 One-electron integrals computed with SEWARD

 10nd-order Douglas-Kroll-Hess method activated. McWeeny DKH parametrization is used.

 Computing Douglas-Kroll / X2C integrals

 AO integral compression algorithm  1   Integral accuracy      1.0D-12

     1109.131 MB (compressed) written to integral file ( 31.5%)

     Node minimum: 62.390 MB, node maximum: 161.481 MB


 NUMBER OF SORTED TWO-ELECTRON INTEGRALS:   37822782.     BUFFER LENGTH:  32768
 NUMBER OF SEGMENTS:   2  SEGMENT LENGTH:   31982844      RECORD LENGTH: 524288

 Memory used in sort:      32.54 MW

 SORT1 READ   439627737. AND WROTE    15537230. INTEGRALS IN     46 RECORDS. CPU TIME:     6.86 SEC, REAL TIME:     8.53 SEC
 SORT2 READ   169134521. AND WROTE   416215207. INTEGRALS IN   4884 RECORDS. CPU TIME:     0.62 SEC, REAL TIME:     1.17 SEC

 Node minimum:    37783612.  Node maximum:    37942158. integrals

 OPERATOR DM      FOR CENTER  0  COORDINATES:    0.000000    0.000000    0.000000

 EXTRA SYMMETRY OF AOS IN SYMMETRY 1:   1 1 1 1 1 1 1 1 1 1   1 1 1 1 1 1 1 1 1 1   1 1 1 1 1 1 1 1 1 1   1 1 1 1 1 1 1 1 1 1
                                        1 1 1 1 1 1 1 1 1 1   1 1 1 1 1 1 1 1 2 1   2 1 2 1 2 1 2 1 2 1   2 1 2 1 2 1 2 1 2 1
                                        2 1 2 1 2 1 2 1 2 1   2 1 2 1 2 1 2 1 2 1   2 1 2 1 2 1 2 1 3 2   1 3 2 1 3 2 1 3 2 2
                                        3 1 1 1 1 1 1 1 1 1   1 1 2 1 2 1 2 1 2 1   2
 EXTRA SYMMETRY OF AOS IN SYMMETRY 2:   1 1 1 1 1 1 1 1 1 1   1 1 1 1 1 1 1 1 1 1   1 1 1 1 1 1 1 1 1 1   1 1 1 1 1 1 1 1 1 1
                                        1 1 1 1 1 2 1 2 1 2   1 2 1 2 1 2 1 2 1 2   1 2 1 2 1 2 3 1 1 1   1 1 1 1 1 2 1 2
 EXTRA SYMMETRY OF AOS IN SYMMETRY 3:   1 1 1 1 1 1 1 1 1 1   1 1 1 1 1 1 1 1 1 1   1 1 1 1 1 1 1 1 1 1   1 1 1 1 1 1 1 1 1 1
                                        1 1 1 1 1 2 1 2 1 2   1 2 1 2 1 2 1 2 1 2   1 2 1 2 1 2 3 1 1 1   1 1 1 1 1 2 1 2
 EXTRA SYMMETRY OF AOS IN SYMMETRY 4:   1 1 1 1 1 1 1 1 1 1   1 1 1 1 1 1 1 1 1 1   1 1 1 1 1 1 2 1 2 1   2 1 2 2 1 1 1 1 1 1

 Eigenvalues of metric

         1 0.112E-04 0.139E-04 0.562E-04 0.101E-03 0.123E-03 0.187E-03 0.193E-03 0.272E-03
         2 0.195E-03 0.591E-03 0.760E-03 0.146E-02 0.197E-02 0.202E-02 0.367E-02 0.408E-02
         3 0.195E-03 0.591E-03 0.760E-03 0.146E-02 0.197E-02 0.202E-02 0.367E-02 0.408E-02
         4 0.601E-03 0.214E-02 0.470E-02 0.903E-02 0.159E-01 0.188E-01 0.375E-01 0.553E-01


 **********************************************************************************************************************************
 DATASETS  * FILE   NREC   LENGTH (MB)   RECORD NAMES
              1      22       22.24       500      610      700      900      950      970     1000      129      960     1700   
                                          VAR    BASINP    GEOM    SYMINP    ZMAT    AOBASIS   BASIS     P2S    ABASIS    OPER   
                                         1101     1401     1411     1412     1650     1100     1400     1410     1200     1210   
                                          SR      EKINR    POTR     PVPR    MOLCAS      S      EKIN      POT      H0       H01  
                                         1080     1600   
                                         AOSYM     SMH  

 PROGRAMS   *        TOTAL       INT
 CPU TIMES  *        49.31     49.13
 REAL TIME  *        54.20 SEC
 DISK USED  *         3.15 GB      
 GA USED    *         0.00 MB       (max)       0.00 MB       (current)
 **********************************************************************************************************************************


 PROGRAM * RHF-SCF (OPEN SHELL)       Authors: W. Meyer, H.-J. Werner


 NUMBER OF ELECTRONS:      27+   26-    SPACE SYMMETRY=2    SPIN SYMMETRY: Doublet 
 CONVERGENCE THRESHOLDS:    1.00E-05 (Density)    1.06E-07 (Energy)
 MAX. NUMBER OF ITERATIONS:       60
 INTERPOLATION TYPE:            DIIS
 INTERPOLATION STEPS:              2 (START)      1 (STEP)
 LEVEL SHIFTS:                 -0.60 (CLOSED) -0.30 (OPEN) 

 Number of closed-shell orbitals:   26 (  13   5   6   2 )
 Number of open-shell orbitals:      1 (   0   1   0   0 )


 Orbital guess generated from atomic densities. Full valence occupancy:   14   6   6   2

 Molecular orbital dump at record        2100.2

 ITERATION    DDIFF          GRAD             ENERGY        2-EL.EN.            DIPOLE MOMENTS         DIIS   ORB.
    1      0.000D+00      0.000D+00     -6538.30558162   7223.356477    0.00000    0.00000    2.45186    0    start
    2      0.000D+00      0.107D+01     -6491.91671442   2888.531783    0.00000    0.00000  -15.28567    1    diag,B
    3      0.162D+02      0.734D+00     -6747.58021785   5909.902862    0.00000    0.00000    2.42015    2    diag,B
    4      0.162D+02      0.251D+00     -6784.08841598   4768.025931    0.00000    0.00000   -4.15387    3    diag,B
    5      0.641D-01      0.879D-01     -6791.28590587   5071.700141    0.00000    0.00000   -0.51428    4    diag,B
    6      0.476D-01      0.132D-01     -6791.49650501   5108.591869    0.00000    0.00000    0.04511    5    diag,B
    7      0.980D-02      0.593D-02     -6791.53546589   5099.595981    0.00000    0.00000    0.18550    6    fixocc
    8      0.313D-02      0.143D-02     -6791.54430817   5098.476676    0.00000    0.00000    0.19341    7    diag,B
    9      0.186D-02      0.692D-03     -6791.54764378   5099.735904    0.00000    0.00000    0.22706    8    diag,B
   10      0.103D-02      0.359D-03     -6791.54924484   5100.827167    0.00000    0.00000    0.24334    9    orth
   11      0.878D-03      0.124D-03     -6791.54946770   5100.988619    0.00000    0.00000    0.24151    9    diag,B
   12      0.483D-03      0.457D-04     -6791.54949634   5100.974874    0.00000    0.00000    0.23960    9    diag,B
   13      0.190D-03      0.177D-04     -6791.54950067   5100.984977    0.00000    0.00000    0.24016    9    diag,B
   14      0.510D-04      0.648D-05     -6791.54950120   5100.987841    0.00000    0.00000    0.24120    9    diag,B
   15      0.490D-04      0.201D-05     -6791.54950125   5100.989156    0.00000    0.00000    0.24171    9    diag,B
   16      0.132D-04      0.589D-06     -6791.54950125   5100.989470    0.00000    0.00000    0.24187    9    diag,B
   17      0.543D-05      0.227D-06     -6791.54950125   5100.989495    0.00000    0.00000    0.24190    0    orth

 Final alpha occupancy:  13   6   6   2
 Final beta  occupancy:  13   5   6   2

 !RHF STATE 1.2 Energy              -6791.549501251472
 Nuclear energy                        21.16708844
 One-electron energy                -9363.21133721
 Two-electron energy                 2550.49474752
 Virial quotient                       -0.85503198
 !RHF STATE 1.2 Dipole moment           0.00000000     0.00000000     0.24190235
 Dipole moment /Debye                   0.00000000     0.00000000     0.61481418

 ELECTRON ORBITALS
 =================


   Orb  Occ    Energy  Couls-En    Coefficients

                                   1 1s      1 1s      1 1s      1 1s      1 1s      1 1s      1 1s      1 1s      1 1s      1 1s   
                                   1 1s      1 1s      1 1s      1 1s      1 1s      1 1s      1 1s      1 1s      1 1s      1 1s   
                                   1 1s      1 1s      1 1s      1 1s      1 1s      1 1s      1 1s      1 1s      1 1s      1 1s   
                                   1 1s      1 1s      1 2pz     1 2pz     1 2pz     1 2pz     1 2pz     1 2pz     1 2pz     1 2pz  
                                   1 2pz     1 2pz     1 2pz     1 2pz     1 2pz     1 2pz     1 2pz     1 2pz     1 2pz     1 2pz  
                                   1 2pz     1 2pz     1 2pz     1 2pz     1 2pz     1 2pz     1 2pz     1 3d0     1 3d2+    1 3d0  
                                   1 3d2+    1 3d0     1 3d2+    1 3d0     1 3d2+    1 3d0     1 3d2+    1 3d0     1 3d2+    1 3d0  
                                   1 3d2+    1 3d0     1 3d2+    1 3d0     1 3d2+    1 3d0     1 3d2+    1 3d0     1 3d2+    1 3d0  
                                   1 3d2+    1 3d0     1 3d2+    1 3d0     1 3d2+    1 3d0     1 3d2+    1 3d0     1 3d2+    1 3d0  
                                   1 3d2+    1 3d0     1 3d2+    1 3d0     1 3d2+    1 4f0     1 4f2+    1 4f0     1 4f2+    1 4f0  
                                   1 4f2+    1 4f0     1 4f2+    1 4f0     1 4f2+    1 4f0     1 4f2+    1 5g0     1 5g4+    1 5g2+ 
                                   1 5g0     1 5g4+    1 5g2+    1 5g0     1 5g4+    1 5g2+    1 5g0     1 5g4+    1 5g2+    1 6h2+ 
                                   1 6h4+    1 6h0     2 1s      2 1s      2 1s      2 1s      2 1s      2 2pz     2 2pz     2 2pz  
                                   2 2pz     2 3d0     2 3d2+    2 3d0     2 3d2+    2 3d0     2 3d2+    2 4f0     2 4f2+    2 4f0  
                                   2 4f2+ 

   1.1   2 -1174.9427-2579.6543  0.000038  0.000101  0.000255  0.000513  0.000948  0.001629  0.002768  0.004698  0.008178  0.014624
                                 0.027015  0.051026  0.096349  0.172240  0.264453  0.295895  0.189249  0.048777  0.003735 -0.000136
                                 0.000312 -0.000322  0.000159 -0.000095  0.000054 -0.000028  0.000021 -0.000015  0.000005  0.000000
                                 0.000002  0.000001  0.000000  0.000000  0.000000  0.000000  0.000000  0.000000  0.000000  0.000000
                                 0.000000  0.000000 -0.000000 -0.000000 -0.000000  0.000000 -0.000000  0.000000 -0.000000  0.000001
                                -0.000001  0.000002 -0.000002  0.000002  0.000001  0.000001  0.000000 -0.000000  0.000000 -0.000000
                                 0.000000 -0.000000  0.000000  0.000000  0.000000  0.000000 -0.000000  0.000000  0.000000 -0.000000
                                 0.000000  0.000000  0.000000 -0.000000  0.000000  0.000000 -0.000000 -0.000000 -0.000000  0.000000
                                -0.000000 -0.000001  0.000000  0.000001  0.000000 -0.000000  0.000000 -0.000000  0.000000  0.000001
                                 0.000000 -0.000000  0.000000  0.000000 -0.000000  0.000000 -0.000000 -0.000000 -0.000000  0.000000
                                 0.000000 -0.000000 -0.000000  0.000000  0.000000  0.000000 -0.000000 -0.000000 -0.000000  0.000000
                                 0.000000 -0.000000  0.000000 -0.000000 -0.000000  0.000000  0.000000  0.000000  0.000000  0.000000
                                -0.000000  0.000000  0.000000  0.000000 -0.000001 -0.000002 -0.000002 -0.000000  0.000000 -0.000000
                                 0.000000 -0.000000  0.000000 -0.000000  0.000000  0.000000  0.000000  0.000000 -0.000000  0.000000
                                -0.000000

   2.1   2  -183.7427 -535.9485 -0.000013 -0.000035 -0.000088 -0.000178 -0.000328 -0.000566 -0.000964 -0.001643 -0.002878 -0.005194
                                -0.009735 -0.018823 -0.037012 -0.071093 -0.124484 -0.173116 -0.132618  0.093711  0.406804  0.440607
                                 0.199629  0.034350  0.002080  0.000178 -0.000246 -0.000006 -0.000034  0.000025 -0.000008 -0.000000
                                -0.000004 -0.000001 -0.000000 -0.000000 -0.000000 -0.000000 -0.000000 -0.000000 -0.000000 -0.000001
                                -0.000002 -0.000004 -0.000006 -0.000010 -0.000009 -0.000002 -0.000000 -0.000001  0.000000 -0.000001
                                 0.000001 -0.000002  0.000002 -0.000004 -0.000001 -0.000001 -0.000000 -0.000000 -0.000000 -0.000000
                                -0.000000 -0.000000 -0.000000 -0.000000  0.000000 -0.000000  0.000000 -0.000001  0.000002 -0.000003
                                 0.000006 -0.000001  0.000002  0.000000 -0.000000 -0.000001  0.000001  0.000000  0.000001 -0.000001
                                 0.000001  0.000001 -0.000000 -0.000001 -0.000000  0.000000 -0.000000  0.000000 -0.000000 -0.000002
                                -0.000000  0.000000 -0.000000 -0.000001  0.000000 -0.000001  0.000000 -0.000000  0.000000 -0.000000
                                -0.000000  0.000000 -0.000000 -0.000000 -0.000000 -0.000000  0.000000  0.000000  0.000000 -0.000000
                                -0.000000  0.000000 -0.000000  0.000000  0.000000 -0.000000 -0.000000 -0.000000  0.000000 -0.000000
                                 0.000000 -0.000000  0.000001  0.000000  0.000002  0.000003  0.000004  0.000000 -0.000001  0.000000
                                -0.000000  0.000000 -0.000000  0.000000 -0.000000 -0.000000 -0.000000 -0.000000  0.000000 -0.000000
                                -0.000000

   3.1   2  -164.7849 -507.1416 -0.000000 -0.000000 -0.000000 -0.000000 -0.000000 -0.000000 -0.000000 -0.000000 -0.000000 -0.000000
                                -0.000000 -0.000001 -0.000001 -0.000002 -0.000003 -0.000005 -0.000004  0.000004  0.000007  0.000010
                                 0.000009  0.000008 -0.000002  0.000000 -0.000004  0.000001  0.000000 -0.000015  0.000055  0.000024
                                 0.000000 -0.000000  0.000007  0.000025  0.000082  0.000250  0.000751  0.002256  0.006793  0.019897
                                 0.054256  0.128815  0.244438  0.333601  0.273262  0.109672  0.016981  0.000815  0.000063 -0.000148
                                 0.000008 -0.000033  0.000032  0.000033  0.000005 -0.000001  0.000000 -0.000000  0.000000 -0.000000
                                 0.000000 -0.000000  0.000000 -0.000000  0.000000 -0.000000  0.000000 -0.000002  0.000000 -0.000005
                                 0.000000 -0.000001 -0.000000  0.000001 -0.000000 -0.000001  0.000000 -0.000001  0.000000 -0.000001
                                 0.000000 -0.000000 -0.000000  0.000001 -0.000000 -0.000001 -0.000000  0.000022 -0.000000  0.000005
                                 0.000000  0.000002 -0.000000 -0.000000  0.000000 -0.000001  0.000001  0.000000 -0.000001 -0.000000
                                 0.000000  0.000001 -0.000000  0.000008  0.000000  0.000001 -0.000000 -0.000000  0.000000  0.000000
                                 0.000000  0.000000  0.000000  0.000000  0.000000 -0.000000  0.000002 -0.000000  0.000000 -0.000000
                                 0.000000  0.000000 -0.000001  0.000002 -0.000061 -0.000030 -0.000000 -0.000000  0.000001  0.000017
                                 0.000005  0.000000 -0.000000 -0.000000  0.000000  0.000001  0.000000  0.000000  0.000000 -0.000001
                                -0.000000

   4.1   2   -38.0915 -185.6976  0.000006  0.000016  0.000039  0.000079  0.000146  0.000252  0.000430  0.000733  0.001286  0.002324
                                 0.004363  0.008470  0.016745  0.032544  0.058122  0.083998  0.067231 -0.060140 -0.315078 -0.449711
                                -0.199313  0.378044  0.694591  0.292638  0.023232  0.002172 -0.000399  0.000338 -0.000156 -0.000026
                                -0.000066 -0.000017  0.000000  0.000000  0.000000  0.000000  0.000000  0.000000  0.000001  0.000003
                                 0.000009  0.000021  0.000041  0.000059  0.000046 -0.000058 -0.000130 -0.000160 -0.000012  0.000012
                                 0.000050 -0.000087  0.000079 -0.000068 -0.000018 -0.000021 -0.000001  0.000000  0.000000  0.000000
                                 0.000000  0.000000  0.000000  0.000000  0.000001  0.000000  0.000002  0.000001  0.000006  0.000005
                                 0.000011  0.000002  0.000026  0.000007  0.000034 -0.000026  0.000098  0.000012  0.000047 -0.000016
                                -0.000006  0.000032  0.000006 -0.000045  0.000007  0.000014  0.000006  0.000017  0.000002 -0.000041
                                 0.000001  0.000011  0.000000 -0.000010  0.000000 -0.000035  0.000002  0.000036 -0.000002 -0.000029
                                 0.000001  0.000012 -0.000000 -0.000008  0.000000 -0.000005 -0.000000  0.000001 -0.000000  0.000000
                                -0.000007 -0.000000  0.000000  0.000005 -0.000000  0.000000 -0.000006 -0.000000  0.000000  0.000000
                                -0.000000 -0.000002 -0.000067 -0.000004  0.000058  0.000100  0.000070  0.000005 -0.000012  0.000007
                                -0.000012  0.000003  0.000000  0.000017  0.000000 -0.000002  0.000000 -0.000006 -0.000000 -0.000008
                                -0.000000

   5.1   2   -31.7644 -174.5151  0.000000  0.000000  0.000000  0.000000  0.000000  0.000000  0.000000  0.000000  0.000000  0.000001
                                 0.000001  0.000002  0.000004  0.000008  0.000015  0.000021  0.000017 -0.000017 -0.000078 -0.000097
                                -0.000071  0.000075  0.000172  0.000032  0.000137  0.000007 -0.000024  0.000124 -0.000322 -0.000133
                                 0.000004  0.000001 -0.000003 -0.000012 -0.000038 -0.000117 -0.000352 -0.001063 -0.003214 -0.009529
                                -0.026455 -0.065082 -0.129144 -0.186305 -0.121372  0.129723  0.426337  0.427891  0.146440  0.014282
                                 0.000655  0.000272 -0.000193 -0.000190 -0.000022  0.000004 -0.000001  0.000000  0.000000  0.000000
                                 0.000000  0.000000  0.000000  0.000000  0.000000  0.000001  0.000000  0.000003  0.000000  0.000012
                                 0.000000  0.000007  0.000001  0.000007  0.000000 -0.000063  0.000002 -0.000055  0.000001  0.000035
                                -0.000001  0.000004 -0.000000 -0.000008  0.000001  0.000019 -0.000000 -0.000129 -0.000001 -0.000030
                                 0.000001 -0.000008 -0.000000  0.000002  0.000000 -0.000005  0.000067  0.000011 -0.000025 -0.000004
                                 0.000022  0.000005 -0.000010 -0.000053  0.000004 -0.000001 -0.000002 -0.000008 -0.000000  0.000000
                                 0.000003 -0.000000  0.000000 -0.000003 -0.000000 -0.000001 -0.000011 -0.000000  0.000000  0.000000
                                -0.000000  0.000000  0.000011 -0.000026  0.000327  0.000161 -0.000003  0.000001  0.000010 -0.000085
                                -0.000031 -0.000002 -0.000000 -0.000004  0.000001 -0.000009  0.000000 -0.000001  0.000000  0.000007
                                -0.000002

   6.1   2   -22.1720 -159.7750 -0.000000 -0.000000 -0.000000 -0.000000 -0.000000 -0.000000 -0.000000 -0.000000 -0.000000 -0.000000
                                -0.000001 -0.000002 -0.000003 -0.000007 -0.000012 -0.000017 -0.000014  0.000012  0.000073  0.000100
                                 0.000062 -0.000212 -0.000161  0.000112 -0.000051  0.000067 -0.000061  0.000071 -0.000026 -0.000099
                                 0.000037  0.000018  0.000000  0.000000  0.000000  0.000000  0.000000  0.000000  0.000000  0.000001
                                 0.000002  0.000006  0.000012  0.000018  0.000005 -0.000025 -0.000080  0.000021  0.000071 -0.000049
                                 0.000007 -0.000032  0.000027 -0.000085 -0.000026  0.000020 -0.000000 -0.000013  0.000016 -0.000102
                                 0.000122 -0.000628  0.000753 -0.002982  0.003579 -0.011361  0.013633 -0.034217  0.041061 -0.082951
                                 0.099542 -0.150615  0.180737 -0.200990  0.241191 -0.184779  0.221729 -0.096701  0.116042 -0.023881
                                 0.028630 -0.001466  0.001781 -0.000295  0.000325  0.000135 -0.000146 -0.000085  0.000072  0.000022
                                -0.000057 -0.000037  0.000028  0.000012 -0.000008  0.000037  0.000002 -0.000037  0.000010  0.000007
                                 0.000004 -0.000001 -0.000001 -0.000010 -0.000001 -0.000010  0.000000  0.000005  0.000035 -0.000019
                                -0.000003 -0.000006  0.000005  0.000003  0.000004 -0.000004 -0.000007 -0.000002  0.000002 -0.000001
                                 0.000000  0.000000  0.000001  0.000002  0.000077  0.000084 -0.000053 -0.000002 -0.000004 -0.000005
                                 0.000007  0.000004 -0.000000  0.000005  0.000001 -0.000008  0.000001 -0.000002  0.000000 -0.000003
                                -0.000002

   7.1   2   -22.1677 -159.7744 -0.000000 -0.000000 -0.000000 -0.000000 -0.000000 -0.000000 -0.000000 -0.000000 -0.000000 -0.000000
                                -0.000001 -0.000001 -0.000002 -0.000004 -0.000007 -0.000011 -0.000008  0.000006  0.000045  0.000052
                                 0.000053 -0.000106 -0.000071 -0.000033  0.000023 -0.000033  0.000089 -0.000071  0.000011  0.000099
                                -0.000047 -0.000023 -0.000000 -0.000000 -0.000000 -0.000000 -0.000000 -0.000000 -0.000000 -0.000001
                                -0.000003 -0.000007 -0.000014 -0.000021 -0.000005  0.000029  0.000092 -0.000026 -0.000083  0.000053
                                -0.000001  0.000029 -0.000049  0.000079  0.000026 -0.000024  0.000000  0.000016  0.000013  0.000122
                                 0.000102  0.000754  0.000628  0.003579  0.002982  0.013634  0.011362  0.041063  0.034220  0.099549
                                 0.082960  0.180749  0.150628  0.241213  0.201018  0.221706  0.184756  0.116011  0.096678  0.028658
                                 0.023863  0.001751  0.001474  0.000343  0.000264 -0.000176 -0.000128  0.000091  0.000059 -0.000034
                                -0.000050  0.000044  0.000024 -0.000015 -0.000007 -0.000047  0.000002  0.000047  0.000009 -0.000011
                                 0.000003 -0.000002  0.000000  0.000009 -0.000001  0.000010 -0.000000  0.000005  0.000029  0.000023
                                -0.000001 -0.000005 -0.000003 -0.000003  0.000003  0.000002  0.000007 -0.000002 -0.000002 -0.000001
                                 0.000000 -0.000001 -0.000017  0.000003 -0.000039 -0.000068  0.000068  0.000003 -0.000003 -0.000013
                                -0.000014 -0.000003  0.000000 -0.000001 -0.000000  0.000010  0.000002  0.000001 -0.000000  0.000004
                                -0.000001

   8.1   2    -7.0987  -77.1496 -0.000003 -0.000007 -0.000018 -0.000035 -0.000065 -0.000112 -0.000192 -0.000327 -0.000573 -0.001037
                                -0.001948 -0.003783 -0.007491 -0.014587 -0.026178 -0.038104 -0.030883  0.028965  0.158122  0.240401
                                 0.111617 -0.260977 -0.758222 -0.304991  0.693962  0.692685  0.111239 -0.014615  0.003965 -0.001282
                                 0.001274  0.000248  0.000000  0.000000  0.000000  0.000000  0.000000  0.000001  0.000004  0.000013
                                 0.000035  0.000086  0.000172  0.000253  0.000145 -0.000223 -0.000802 -0.000771 -0.000055  0.000899
                                 0.002739  0.000626 -0.000891  0.000173 -0.000032  0.000420 -0.000008 -0.000000 -0.000000 -0.000000
                                -0.000000 -0.000000 -0.000000 -0.000001 -0.000002 -0.000004 -0.000009 -0.000014 -0.000028 -0.000034
                                -0.000061 -0.000064 -0.000129 -0.000075 -0.000127 -0.000059 -0.000183  0.000064  0.000066  0.000225
                                 0.000075  0.000169  0.000788  0.000235  0.000828 -0.000159 -0.000082 -0.000252 -0.000020  0.000285
                                -0.000029 -0.000213  0.000007  0.000166 -0.000003  0.000029  0.000000  0.000046 -0.000001 -0.000060
                                 0.000022 -0.000107  0.000002  0.000050 -0.000002  0.000006  0.000001 -0.000019 -0.000000  0.000004
                                 0.000037 -0.000000  0.000009  0.000008  0.000001 -0.000005  0.000026 -0.000000  0.000000  0.000000
                                 0.000000  0.000035  0.003077 -0.000095 -0.000795 -0.000828 -0.001173 -0.000187 -0.000355 -0.000604
                                -0.000030  0.000149  0.000000  0.000154  0.000000  0.000119 -0.000001 -0.000089  0.000000  0.000024
                                -0.000000

   9.1   2    -5.0472  -70.4943  0.000000  0.000000  0.000000  0.000000  0.000000  0.000001  0.000001  0.000002  0.000003  0.000005
                                 0.000010  0.000020  0.000039  0.000076  0.000135  0.000201  0.000154 -0.000133 -0.000876 -0.001189
                                -0.000760  0.001727  0.003928  0.002320 -0.006743 -0.002786  0.004083 -0.002194 -0.005756  0.000302
                                -0.000181 -0.000088  0.000001  0.000005  0.000017  0.000050  0.000152  0.000458  0.001386  0.004122
                                 0.011478  0.028454  0.056952  0.083380  0.049780 -0.084071 -0.273395 -0.306884  0.118030  0.550214
                                 0.439744  0.096516 -0.001410 -0.000916  0.000311 -0.000126  0.000010 -0.000000  0.000000 -0.000000
                                 0.000000 -0.000002  0.000000 -0.000009  0.000000 -0.000034  0.000000 -0.000105  0.000000 -0.000255
                                 0.000001 -0.000467  0.000001 -0.000582  0.000002 -0.000428  0.000001  0.000440 -0.000002  0.001150
                                -0.000007  0.002080 -0.000008  0.001640  0.000023 -0.000846  0.000007 -0.002137  0.000003 -0.000138
                                 0.000001  0.000180  0.000000 -0.000036 -0.000000 -0.000004  0.000123 -0.000092  0.000324  0.000336
                                 0.000753 -0.000163  0.000045 -0.000738 -0.000053  0.000096  0.000003 -0.000056 -0.000000  0.000004
                                 0.000062  0.000000  0.000015 -0.000087  0.000000 -0.000000 -0.000095 -0.000000  0.000000  0.000007
                                 0.000000  0.000096  0.015290 -0.001034 -0.000688 -0.004317  0.000279 -0.000713 -0.001387 -0.002673
                                -0.000397  0.000433  0.000002  0.000560 -0.000005  0.000240 -0.000006 -0.000202 -0.000001  0.000022
                                 0.000005

  10.1   2    -1.9614  -57.9205 -0.000000 -0.000000 -0.000000 -0.000000 -0.000000 -0.000001 -0.000001 -0.000002 -0.000003 -0.000006
                                -0.000010 -0.000020 -0.000040 -0.000078 -0.000140 -0.000204 -0.000166  0.000156  0.000858  0.001318
                                 0.000605 -0.001424 -0.004676 -0.001544  0.003674  0.009253 -0.000945 -0.002431  0.004935  0.003635
                                 0.000265  0.000351  0.000000  0.000000  0.000000  0.000001  0.000002  0.000005  0.000015  0.000046
                                 0.000125  0.000316  0.000618  0.000941  0.000495 -0.000828 -0.003280 -0.003142  0.000849  0.007919
                                 0.005550 -0.001864  0.004891  0.004556  0.000461  0.000155  0.000034  0.000008 -0.000003  0.000060
                                -0.000020  0.000368 -0.000124  0.001753 -0.000591  0.006717 -0.002265  0.020405 -0.006880  0.050246
                                -0.016942  0.091011 -0.030689  0.116908 -0.039414  0.085443 -0.028817 -0.070933  0.023925 -0.275883
                                 0.092953 -0.366500  0.123910 -0.277411  0.093645 -0.106440  0.036033 -0.013885  0.004717  0.000894
                                 0.000093 -0.000475  0.000056  0.000124 -0.000005 -0.000602  0.000103 -0.000611  0.000145 -0.003301
                                 0.000633 -0.001618  0.000372  0.000302  0.000010  0.000058  0.000038 -0.000022  0.000093 -0.000179
                                -0.000807  0.000425 -0.000763 -0.000375  0.000247 -0.000419  0.000088 -0.000054  0.000128 -0.000031
                                 0.000007 -0.000178 -0.123761  0.007350  0.041335  0.031679 -0.000830  0.002890  0.006284  0.006158
                                 0.001517 -0.001258  0.000028 -0.001930  0.000051 -0.000729 -0.000097  0.000533 -0.000025  0.000084
                                 0.000015

  11.1   2    -1.9411  -58.2556 -0.000000 -0.000000 -0.000000 -0.000000 -0.000000 -0.000001 -0.000001 -0.000002 -0.000003 -0.000006
                                -0.000011 -0.000022 -0.000043 -0.000085 -0.000151 -0.000222 -0.000176  0.000160  0.000954  0.001379
                                 0.000782 -0.001790 -0.004966 -0.002064  0.006191  0.009228 -0.006431 -0.003677  0.003612  0.002158
                                 0.000067  0.000118  0.000000  0.000000  0.000000  0.000000  0.000001  0.000002  0.000005  0.000016
                                 0.000043  0.000109  0.000213  0.000325  0.000171 -0.000286 -0.001135 -0.001083  0.000296  0.002741
                                 0.001958 -0.000851  0.002050  0.001682  0.000212  0.000032  0.000015  0.000003  0.000008  0.000020
                                 0.000060  0.000123  0.000372  0.000586  0.001771  0.002248  0.006789  0.006828  0.020623  0.016815
                                 0.050784  0.030454  0.091984  0.039129  0.118156  0.028573  0.086331 -0.023804 -0.071942 -0.092458
                                -0.278992 -0.122686 -0.371653 -0.091982 -0.277894 -0.035226 -0.107176 -0.005141 -0.015757  0.000158
                                -0.000403 -0.000187 -0.000388  0.000038  0.000045 -0.000199 -0.000293 -0.000195 -0.000412 -0.001093
                                -0.001833 -0.000460 -0.001112  0.000089  0.000124  0.000035 -0.000014 -0.000060 -0.000280 -0.000069
                                -0.000500 -0.001277 -0.000493 -0.000248 -0.000735 -0.000371  0.000040  0.000160  0.000140  0.000016
                                -0.000022 -0.000063 -0.042366  0.002414  0.013685  0.010697 -0.000253  0.000983  0.002214  0.002304
                                 0.000536 -0.000429 -0.000123 -0.000677 -0.000263 -0.000280 -0.000091  0.000178  0.000175  0.000012
                                -0.000015

  12.1   2    -0.8542  -28.2310 -0.000001 -0.000002 -0.000005 -0.000010 -0.000019 -0.000033 -0.000056 -0.000096 -0.000168 -0.000304
                                -0.000572 -0.001109 -0.002199 -0.004280 -0.007696 -0.011200 -0.009135  0.008684  0.047284  0.073277
                                 0.033961 -0.082647 -0.268526 -0.095745  0.308247  0.473761  0.115476 -0.493911 -0.447917 -0.062947
                                 0.007133  0.002219  0.000000  0.000000  0.000001  0.000004  0.000013  0.000039  0.000119  0.000353
                                 0.000987  0.002443  0.004914  0.007167  0.004295 -0.007732 -0.024640 -0.028703  0.016519  0.059482
                                 0.065956 -0.030725 -0.081658 -0.004315  0.009591  0.001291  0.000459 -0.000001 -0.000000 -0.000006
                                -0.000000 -0.000037 -0.000000 -0.000178 -0.000002 -0.000680 -0.000008 -0.002073 -0.000024 -0.005090
                                -0.000056 -0.009260 -0.000107 -0.011782 -0.000122 -0.008626 -0.000109  0.008457  0.000110  0.029057
                                 0.000208  0.041541  0.000221  0.025518  0.000870 -0.007493 -0.000126 -0.003794  0.002020  0.009553
                                 0.003533  0.001001  0.000998  0.001357  0.000074 -0.002176 -0.000011 -0.002507 -0.000034 -0.007211
                                 0.000008 -0.011691 -0.000388 -0.001653 -0.000025  0.001811  0.000249 -0.000176 -0.000000  0.000022
                                -0.002127 -0.000000  0.000085 -0.002634 -0.000006 -0.000033  0.000530  0.000021  0.000165 -0.000028
                                -0.000001 -0.000618 -0.618776  0.018073  0.115495  0.117800 -0.008521  0.004930  0.014596  0.021947
                                 0.006293 -0.001229  0.000005 -0.001594 -0.000364  0.000073 -0.000383  0.000000  0.000048 -0.000330
                                 0.000147

  13.1   2    -0.4955  -24.8857  0.000000  0.000001  0.000002  0.000005  0.000009  0.000016  0.000027  0.000046  0.000081  0.000147
                                 0.000276  0.000536  0.001063  0.002070  0.003718  0.005420  0.004405 -0.004171 -0.022960 -0.035326
                                -0.016812  0.040805  0.130148  0.048395 -0.156892 -0.236083 -0.063811  0.231236  0.416240  0.242078
                                 0.012495  0.001849  0.000000  0.000001  0.000004  0.000012  0.000036  0.000109  0.000330  0.000981
                                 0.002737  0.006783  0.013620  0.019930  0.011816 -0.021362 -0.069162 -0.079464  0.046103  0.175091
                                 0.175943 -0.076906 -0.307449 -0.217482 -0.028272  0.000384  0.000447 -0.000001 -0.000000 -0.000007
                                -0.000000 -0.000041 -0.000000 -0.000194 -0.000000 -0.000741 -0.000001 -0.002259 -0.000003 -0.005553
                                -0.000008 -0.010091 -0.000015 -0.012854 -0.000022 -0.009313 -0.000014  0.009494  0.000019  0.032309
                                 0.000092  0.045866  0.000238  0.028469 -0.000499 -0.014753  0.000075 -0.014929  0.000285 -0.006420
                                -0.001356 -0.001475 -0.001127  0.000264 -0.000127 -0.003454 -0.000081 -0.004524 -0.000167 -0.011149
                                -0.000080 -0.015863 -0.001773 -0.003110 -0.002226  0.001040 -0.000024 -0.000174  0.000000  0.000016
                                -0.001991  0.000001  0.000029 -0.002207  0.000008 -0.000256  0.001071 -0.000014 -0.000260 -0.000046
                                -0.000004 -0.000573 -0.647887  0.011944  0.035902  0.034120 -0.007610  0.002797  0.011588  0.029314
                                 0.012066 -0.000860  0.000006 -0.002412 -0.000656 -0.000851 -0.001369  0.000067  0.000068 -0.000330
                                 0.000366

  14.1   0     0.0172   -5.8145  0.000000  0.000000  0.000001  0.000001  0.000002  0.000004  0.000006  0.000011  0.000019  0.000034
                                 0.000063  0.000124  0.000242  0.000477  0.000845  0.001260  0.000967 -0.000848 -0.005527 -0.007532
                                -0.004983  0.011260  0.027317  0.014711 -0.041688 -0.048972 -0.018276  0.117688 -0.248408 -0.994021
                                -2.025742 -4.835926 -0.000000 -0.000000 -0.000000 -0.000000 -0.000001 -0.000002 -0.000006 -0.000020
                                -0.000050 -0.000140 -0.000242 -0.000443 -0.000096  0.000127  0.001911  0.000519  0.000860 -0.006699
                                 0.003051 -0.002225 -0.055467 -0.463414 -0.288463 -1.969505 -0.491123  0.000000 -0.000000  0.000001
                                -0.000000  0.000002 -0.000000  0.000019 -0.000001  0.000043 -0.000006  0.000220 -0.000007  0.000310
                                -0.000046  0.001085 -0.000019  0.000328 -0.000155  0.002055  0.000117 -0.003118 -0.000247  0.001434
                                 0.000686 -0.010422 -0.000606  0.012001  0.001452 -0.039153 -0.001707 -0.020775  0.006020 -0.299077
                                -0.017523  0.337359  0.017415 -0.606262 -0.041279  0.000125 -0.000001  0.000865 -0.000020 -0.000378
                                 0.000023 -0.004125 -0.000068 -0.056206  0.000217 -0.002946 -0.002466  0.000137  0.000002  0.000000
                                -0.000675 -0.000008 -0.000016 -0.002803  0.000053  0.000158 -0.014252 -0.000308 -0.000176  0.000008
                                -0.000000 -0.000331  0.037015 -0.011918  0.392063  0.970811  6.577680  0.000833 -0.012344 -0.114552
                                -0.393315 -0.000202  0.000012  0.011280 -0.000069  0.016584  0.000689 -0.000664 -0.000010 -0.003372
                                -0.000001

  15.1   0     0.0215   -4.5332 -0.000000 -0.000000 -0.000000 -0.000000 -0.000001 -0.000001 -0.000003 -0.000004 -0.000008 -0.000014
                                -0.000026 -0.000049 -0.000100 -0.000190 -0.000350 -0.000493 -0.000438  0.000458  0.001969  0.003660
                                 0.000830 -0.002541 -0.014094 -0.001751  0.009905  0.032041 -0.034289  0.271052 -0.638173 -3.811808
                                 1.712423  2.095735 -0.000000 -0.000000 -0.000000 -0.000001 -0.000002 -0.000005 -0.000015 -0.000043
                                -0.000129 -0.000291 -0.000661 -0.000792 -0.000794  0.001529  0.002059  0.005531 -0.005277 -0.002851
                                -0.018271  0.041467 -0.068420 -1.439177 -1.663693  2.760652 -1.845521  0.000000 -0.000000  0.000000
                                -0.000000  0.000003 -0.000000  0.000012 -0.000001  0.000062 -0.000002  0.000144 -0.000010  0.000472
                                -0.000017  0.000590 -0.000051  0.001298 -0.000023 -0.000023 -0.000089  0.000580  0.000134 -0.004735
                                -0.000026  0.000758  0.000445 -0.008287 -0.000245  0.013649  0.000365 -0.315894 -0.002925 -0.394258
                                 0.004210 -0.500537 -0.006589  0.388632  0.012647  0.000281  0.000014  0.000293 -0.000014  0.001402
                                 0.000086 -0.008053 -0.000049 -0.157614  0.000789 -0.131324 -0.002696  0.000123 -0.000000  0.000000
                                -0.000608  0.000001 -0.000010 -0.003877 -0.000029  0.000116 -0.045583  0.000040 -0.000157  0.000006
                                 0.000001 -0.000336  0.040293 -0.014567  1.057843  3.867351 -3.563332  0.001068 -0.009505 -0.248416
                                -0.570730  0.000010  0.000010  0.006876 -0.000004 -0.068152  0.000664 -0.001002 -0.000006  0.016912
                                -0.000039

                                   1 2px     1 2px     1 2px     1 2px     1 2px     1 2px     1 2px     1 2px     1 2px     1 2px  
                                   1 2px     1 2px     1 2px     1 2px     1 2px     1 2px     1 2px     1 2px     1 2px     1 2px  
                                   1 2px     1 2px     1 2px     1 2px     1 2px     1 3d1+    1 3d1+    1 3d1+    1 3d1+    1 3d1+ 
                                   1 3d1+    1 3d1+    1 3d1+    1 3d1+    1 3d1+    1 3d1+    1 3d1+    1 3d1+    1 3d1+    1 3d1+ 
                                   1 3d1+    1 3d1+    1 3d1+    1 3d1+    1 4f1+    1 4f3+    1 4f1+    1 4f3+    1 4f1+    1 4f3+ 
                                   1 4f1+    1 4f3+    1 4f1+    1 4f3+    1 4f1+    1 4f3+    1 5g1+    1 5g3+    1 5g1+    1 5g3+ 
                                   1 5g1+    1 5g3+    1 5g1+    1 5g3+    1 6h1+    1 6h3+    1 6h5+    2 2px     2 2px     2 2px  
                                   2 2px     2 3d1+    2 3d1+    2 3d1+    2 4f1+    2 4f3+    2 4f1+    2 4f3+ 

   1.2   2  -164.7857 -507.1414  0.000007  0.000025  0.000082  0.000250  0.000751  0.002256  0.006793  0.019896  0.054255  0.128813
                                 0.244433  0.333598  0.273270  0.109676  0.016977  0.000820  0.000058 -0.000140 -0.000002 -0.000020
                                 0.000008 -0.000002  0.000002 -0.000001  0.000000  0.000000  0.000000  0.000000  0.000000  0.000001
                                 0.000001 -0.000000 -0.000002 -0.000001  0.000000  0.000001  0.000001 -0.000000  0.000000 -0.000001
                                 0.000001  0.000000 -0.000000  0.000000 -0.000001  0.000002  0.000001 -0.000001 -0.000000  0.000001
                                -0.000000 -0.000000  0.000001  0.000000 -0.000000 -0.000000 -0.000000  0.000000  0.000000 -0.000000
                                 0.000000  0.000000  0.000000 -0.000000 -0.000000 -0.000000  0.000000 -0.000000  0.000000 -0.000001
                                -0.000000 -0.000000 -0.000000  0.000000  0.000000  0.000000  0.000000 -0.000000

   2.2   2   -31.7664 -174.5081 -0.000003 -0.000012 -0.000038 -0.000117 -0.000352 -0.001063 -0.003214 -0.009528 -0.026453 -0.065075
                                -0.129130 -0.186285 -0.121369  0.129675  0.426240  0.427963  0.146517  0.014229  0.000729  0.000188
                                -0.000061  0.000016 -0.000005  0.000004 -0.000002 -0.000000 -0.000000 -0.000000 -0.000000 -0.000002
                                -0.000004 -0.000008 -0.000022 -0.000029 -0.000013 -0.000009  0.000004  0.000011  0.000000  0.000019
                                -0.000003  0.000001  0.000005 -0.000000 -0.000033  0.000083  0.000023 -0.000032 -0.000015  0.000027
                                 0.000013 -0.000011 -0.000009  0.000006  0.000004 -0.000002 -0.000005  0.000000  0.000003 -0.000000
                                 0.000000  0.000000 -0.000002 -0.000000 -0.000000  0.000000 -0.000000  0.000001 -0.000006  0.000002
                                -0.000012 -0.000000  0.000007  0.000004 -0.000001  0.000000 -0.000005  0.000000

   3.2   2   -22.1713 -159.7752 -0.000000 -0.000000 -0.000000 -0.000000 -0.000000 -0.000000 -0.000000 -0.000000 -0.000001 -0.000002
                                -0.000003 -0.000004 -0.000001 -0.000007 -0.000002  0.000034  0.000015  0.000036  0.000015  0.000002
                                -0.000000  0.000024  0.000004  0.000001 -0.000000  0.000020  0.000159  0.000981  0.004658  0.017747
                                 0.053449  0.129574  0.235266  0.313960  0.288620  0.151055  0.037298  0.002314  0.000430 -0.000204
                                 0.000114 -0.000068  0.000042 -0.000010 -0.000043  0.000001  0.000050 -0.000001 -0.000011  0.000001
                                 0.000001 -0.000000  0.000007  0.000000  0.000004 -0.000000 -0.000012  0.000032  0.000002 -0.000006
                                -0.000004  0.000004  0.000007 -0.000002 -0.000001  0.000000 -0.000000 -0.000001  0.000001 -0.000025
                                -0.000016  0.000002 -0.000001  0.000004 -0.000004 -0.000000  0.000006 -0.000000

   4.2   2    -5.0460  -70.4444 -0.000001 -0.000005 -0.000017 -0.000050 -0.000151 -0.000458 -0.001385 -0.004119 -0.011470 -0.028433
                                -0.056912 -0.083316 -0.049758  0.084007  0.273080  0.306711 -0.117684 -0.548819 -0.441083 -0.096769
                                -0.002288 -0.001267  0.000283 -0.000182  0.000070  0.000000  0.000000  0.000001  0.000003  0.000013
                                 0.000040  0.000095  0.000177  0.000210  0.000180 -0.000068 -0.000112 -0.001092 -0.001391 -0.000003
                                 0.000359  0.000067 -0.000071  0.000016  0.000006 -0.000144  0.000055 -0.000385  0.000030 -0.000903
                                 0.000024 -0.000067  0.000217  0.000060 -0.000046 -0.000005  0.000029 -0.000003  0.000021 -0.000015
                                 0.000044  0.000000  0.000035  0.000000 -0.000028 -0.000005 -0.000000 -0.000091 -0.000300 -0.000512
                                 0.000037  0.000117  0.000211  0.000106 -0.000112 -0.000000  0.000023  0.000003

   5.2   2    -1.9513  -58.2811  0.000000  0.000000  0.000000  0.000000  0.000001  0.000002  0.000006  0.000019  0.000052  0.000130
                                 0.000256  0.000384  0.000212 -0.000374 -0.001353 -0.001400  0.000669  0.003796  0.001586 -0.003112
                                 0.000816  0.001282  0.000039  0.000048 -0.000019  0.000008  0.000063  0.000391  0.001865  0.007147
                                 0.021710  0.053467  0.096829  0.124409  0.090874 -0.075534 -0.293698 -0.390808 -0.294246 -0.112992
                                -0.014825  0.000232 -0.000310  0.000075 -0.000433 -0.000003 -0.000522 -0.000001 -0.002485 -0.000021
                                -0.001301 -0.000023  0.000357  0.000010 -0.000019 -0.000002  0.000075 -0.000208 -0.000149 -0.000960
                                -0.000093 -0.000543  0.000142  0.000134 -0.000043 -0.000023 -0.000000 -0.000891 -0.002509 -0.002489
                                -0.000363  0.000719  0.001316  0.000421 -0.000511 -0.000006 -0.000105  0.000001

   6.2   +    -0.3810  -23.5075  0.000000  0.000001  0.000005  0.000014  0.000042  0.000128  0.000386  0.001149  0.003203  0.007943
                                 0.015939  0.023349  0.013795 -0.024964 -0.081212 -0.092912  0.053915  0.207498  0.204640 -0.068105
                                -0.449755 -0.486985 -0.149039  0.002570 -0.002089 -0.000000 -0.000001 -0.000005 -0.000021 -0.000082
                                -0.000248 -0.000618 -0.001102 -0.001441 -0.000968  0.000952  0.003653  0.004784  0.004659 -0.003900
                                -0.006042 -0.003673 -0.001214  0.000015 -0.000092 -0.000556 -0.000023 -0.000984 -0.000502 -0.001063
                                 0.001916 -0.008503  0.006670 -0.014811  0.002456 -0.004637 -0.000007  0.000003 -0.000222 -0.000011
                                -0.000234 -0.000311  0.001100 -0.000450 -0.000146  0.000005 -0.000067 -0.002540 -0.008682 -0.017915
                                -0.006826  0.000754  0.002417  0.000898 -0.000316 -0.000027  0.000241 -0.000022

   7.2   0     0.0225   -4.5166  0.000000  0.000000  0.000000  0.000001  0.000003  0.000009  0.000030  0.000079  0.000249  0.000538
                                 0.001279  0.001416  0.001685 -0.003282 -0.003129 -0.011731  0.011930  0.002480  0.036447 -0.041507
                                 0.032121 -0.189747  0.401364 -1.096575  1.737986  0.000000 -0.000000  0.000000 -0.000003 -0.000001
                                -0.000029 -0.000000 -0.000159  0.000119 -0.000473  0.000802 -0.001053  0.002509 -0.003599  0.007540
                                -0.022070  0.021138  0.039011  0.015844 -0.000076 -0.000058  0.000216 -0.000035 -0.000742 -0.000221
                                 0.002387 -0.000293 -0.014795 -0.002242  0.029043  0.002933 -0.000052 -0.000001  0.000286  0.000004
                                -0.002102 -0.000051 -0.000166  0.000047 -0.000055 -0.000000 -0.000004  0.000183 -0.002314  0.018229
                                -0.105893  0.000194 -0.000520 -0.003020  0.000107 -0.000000 -0.002129 -0.000004

   8.2   0     0.0815   -6.8659 -0.000000 -0.000000 -0.000000 -0.000001 -0.000003 -0.000010 -0.000027 -0.000086 -0.000223 -0.000604
                                -0.001086 -0.001882 -0.000571  0.000894  0.007720  0.003642  0.001061 -0.023609 -0.001789 -0.016808
                                 0.084182 -0.060543  0.634997 -0.995712  0.571631 -0.000000 -0.000001 -0.000016 -0.000041 -0.000288
                                -0.000481 -0.002224 -0.001690 -0.006909  0.003260 -0.007931  0.028430 -0.017888  0.063552 -0.100703
                                 0.200762 -0.624198  1.200458 -1.500222 -0.000331  0.000057  0.000431  0.000051 -0.002225  0.000195
                                 0.004093  0.000404 -0.036992  0.002058  0.066053 -0.002784 -0.000052  0.000024  0.000205 -0.000124
                                -0.003361  0.000435 -0.003147 -0.003296 -0.000220 -0.000008  0.000004  0.001210 -0.010413  0.047498
                                -0.327211 -0.000321 -0.001819  0.000603  0.001172 -0.000010 -0.005226 -0.000064

                                   1 2py     1 2py     1 2py     1 2py     1 2py     1 2py     1 2py     1 2py     1 2py     1 2py  
                                   1 2py     1 2py     1 2py     1 2py     1 2py     1 2py     1 2py     1 2py     1 2py     1 2py  
                                   1 2py     1 2py     1 2py     1 2py     1 2py     1 3d1-    1 3d1-    1 3d1-    1 3d1-    1 3d1- 
                                   1 3d1-    1 3d1-    1 3d1-    1 3d1-    1 3d1-    1 3d1-    1 3d1-    1 3d1-    1 3d1-    1 3d1- 
                                   1 3d1-    1 3d1-    1 3d1-    1 3d1-    1 4f1-    1 4f3-    1 4f1-    1 4f3-    1 4f1-    1 4f3- 
                                   1 4f1-    1 4f3-    1 4f1-    1 4f3-    1 4f1-    1 4f3-    1 5g1-    1 5g3-    1 5g1-    1 5g3- 
                                   1 5g1-    1 5g3-    1 5g1-    1 5g3-    1 6h1-    1 6h3-    1 6h5-    2 2py     2 2py     2 2py  
                                   2 2py     2 3d1-    2 3d1-    2 3d1-    2 4f1-    2 4f3-    2 4f1-    2 4f3- 

   1.3   2  -164.7848 -507.1414  0.000007  0.000025  0.000082  0.000250  0.000751  0.002256  0.006793  0.019897  0.054256  0.128817
                                 0.244440  0.333603  0.273259  0.109670  0.016975  0.000820  0.000057 -0.000141 -0.000002 -0.000020
                                 0.000007 -0.000003  0.000001 -0.000001  0.000000  0.000000  0.000000  0.000000  0.000000  0.000001
                                 0.000001 -0.000001 -0.000002 -0.000001  0.000000  0.000000  0.000001 -0.000000  0.000000 -0.000001
                                 0.000001  0.000000 -0.000000  0.000000  0.000000  0.000002 -0.000000 -0.000001  0.000000  0.000001
                                -0.000000 -0.000000  0.000001  0.000000 -0.000000 -0.000000 -0.000000  0.000000  0.000000 -0.000000
                                -0.000000 -0.000000  0.000000 -0.000000 -0.000000 -0.000000  0.000000 -0.000000  0.000000 -0.000001
                                 0.000000 -0.000000 -0.000000  0.000000  0.000000  0.000000  0.000000 -0.000000

   2.3   2   -31.7630 -174.5119 -0.000003 -0.000012 -0.000038 -0.000117 -0.000352 -0.001063 -0.003215 -0.009530 -0.026457 -0.065086
                                -0.129152 -0.186318 -0.121372  0.129738  0.426410  0.427857  0.146419  0.014216  0.000713  0.000190
                                -0.000064  0.000018 -0.000008  0.000005 -0.000002 -0.000000 -0.000000 -0.000000 -0.000000 -0.000001
                                -0.000003 -0.000007 -0.000019 -0.000026 -0.000014 -0.000012  0.000006  0.000009  0.000003  0.000015
                                -0.000006  0.000001  0.000002 -0.000000  0.000011  0.000082  0.000005 -0.000031  0.000000  0.000027
                                 0.000005 -0.000011 -0.000005  0.000006  0.000002 -0.000002 -0.000005  0.000000  0.000003 -0.000000
                                -0.000001  0.000000 -0.000001 -0.000000 -0.000000  0.000000 -0.000000  0.000001 -0.000004  0.000005
                                -0.000003  0.000000  0.000005 -0.000000 -0.000002  0.000000 -0.000003  0.000000

   3.3   2   -22.1676 -159.7743 -0.000000 -0.000000 -0.000000 -0.000000 -0.000000 -0.000000 -0.000000 -0.000000 -0.000001 -0.000002
                                -0.000004 -0.000005 -0.000001 -0.000005  0.000005  0.000029  0.000009  0.000033  0.000019 -0.000001
                                -0.000004  0.000023  0.000002  0.000001 -0.000001  0.000020  0.000159  0.000981  0.004659  0.017748
                                 0.053452  0.129584  0.235281  0.313991  0.288593  0.151023  0.037300  0.002300  0.000423 -0.000219
                                 0.000112 -0.000071  0.000040 -0.000010 -0.000045  0.000001  0.000052 -0.000001 -0.000012  0.000001
                                -0.000002 -0.000000  0.000008  0.000000  0.000003 -0.000000  0.000012  0.000032 -0.000004 -0.000006
                                -0.000002  0.000004  0.000006 -0.000002 -0.000002  0.000000 -0.000000 -0.000002  0.000003 -0.000021
                                -0.000013  0.000002 -0.000006  0.000002 -0.000002 -0.000000  0.000007 -0.000000

   4.3   2    -5.0383  -70.5172 -0.000001 -0.000005 -0.000017 -0.000050 -0.000152 -0.000459 -0.001389 -0.004128 -0.011495 -0.028499
                                -0.057038 -0.083518 -0.049834  0.084183  0.273971  0.307253 -0.118301 -0.551933 -0.440040 -0.094251
                                -0.002302 -0.001070  0.000281 -0.000160  0.000062  0.000000  0.000000  0.000001  0.000004  0.000013
                                 0.000043  0.000101  0.000187  0.000225  0.000185 -0.000083 -0.000161 -0.001131 -0.001349  0.000033
                                 0.000310  0.000065 -0.000074  0.000015 -0.000060 -0.000146 -0.000132 -0.000389 -0.000409 -0.000907
                                -0.000011 -0.000060  0.000215  0.000064 -0.000046 -0.000003  0.000027 -0.000003  0.000013 -0.000015
                                 0.000041  0.000000  0.000027  0.000001 -0.000032 -0.000005 -0.000000 -0.000089 -0.000293 -0.000449
                                 0.000055  0.000117  0.000205  0.000091 -0.000111 -0.000000  0.000016  0.000002

   5.3   2    -1.9405  -58.2841  0.000000  0.000000  0.000000  0.000000  0.000001  0.000002  0.000006  0.000018  0.000050  0.000126
                                 0.000249  0.000375  0.000205 -0.000358 -0.001321 -0.001344  0.000602  0.003706  0.001459 -0.002780
                                 0.000999  0.001194  0.000182  0.000007 -0.000004  0.000008  0.000064  0.000392  0.001866  0.007152
                                 0.021725  0.053505  0.096896  0.124507  0.090912 -0.075706 -0.294110 -0.391184 -0.292984 -0.112608
                                -0.016157  0.000001 -0.000363  0.000084 -0.000429 -0.000003 -0.000512 -0.000001 -0.002463 -0.000021
                                -0.001178 -0.000023  0.000261  0.000009  0.000039 -0.000002 -0.000084 -0.000209 -0.000848 -0.000962
                                -0.000470 -0.000543  0.000201  0.000132 -0.000051 -0.000023 -0.000000 -0.000902 -0.002623 -0.002608
                                -0.000549  0.000731  0.001439  0.000454 -0.000537 -0.000006 -0.000169 -0.000000

   6.3   2    -0.3282  -23.0716  0.000000  0.000001  0.000005  0.000014  0.000041  0.000125  0.000378  0.001123  0.003131  0.007765
                                 0.015584  0.022826  0.013486 -0.024424 -0.079481 -0.090847  0.052863  0.203838  0.201460 -0.078346
                                -0.421554 -0.471692 -0.184631 -0.003026 -0.001692 -0.000000 -0.000001 -0.000005 -0.000022 -0.000083
                                -0.000253 -0.000624 -0.001126 -0.001445 -0.001018  0.001037  0.003586  0.005102  0.004194 -0.003295
                                -0.005180 -0.003771  0.000157 -0.000506 -0.000509 -0.000238 -0.000682 -0.000443 -0.001465 -0.000452
                                -0.003480 -0.003393 -0.003544 -0.006267 -0.000477 -0.002552 -0.000004  0.000001 -0.000255 -0.000005
                                -0.000403 -0.000106  0.000628 -0.000156 -0.000148 -0.000013 -0.000012 -0.002653 -0.009349 -0.018909
                                -0.012059  0.000747  0.002619  0.001243 -0.000298 -0.000011 -0.000008 -0.000114

   7.3   0     0.0240   -4.4534  0.000000  0.000000  0.000000  0.000001  0.000003  0.000009  0.000030  0.000079  0.000251  0.000539
                                 0.001292  0.001411  0.001727 -0.003370 -0.003019 -0.012024  0.012359  0.001939  0.037599 -0.043801
                                 0.036194 -0.198957  0.414808 -1.166712  1.780149 -0.000000 -0.000000 -0.000000 -0.000003 -0.000001
                                -0.000031 -0.000004 -0.000171  0.000114 -0.000493  0.000832 -0.001060  0.002611 -0.003666  0.007666
                                -0.024300  0.019862  0.037816  0.013670 -0.000107 -0.000050  0.000181 -0.000027 -0.000832 -0.000196
                                 0.002023 -0.000251 -0.016952 -0.002094  0.029839  0.002555 -0.000055 -0.000001  0.000298  0.000003
                                -0.002330 -0.000045 -0.000332  0.000035 -0.000064 -0.000002 -0.000004  0.000213 -0.002648  0.021201
                                -0.100760  0.000218 -0.000727 -0.005361  0.000122 -0.000000 -0.001973 -0.000009

   8.3   0     0.0851   -6.7490  0.000000  0.000000  0.000000  0.000001  0.000003  0.000008  0.000023  0.000073  0.000191  0.000509
                                 0.000930  0.001572  0.000539 -0.000877 -0.006314 -0.003489 -0.000251  0.018970  0.003296  0.010556
                                -0.064329  0.038200 -0.603456  0.817029 -0.456185  0.000000  0.000001  0.000016  0.000034  0.000273
                                 0.000407  0.002111  0.001323  0.006771 -0.003928  0.008941 -0.028776  0.021246 -0.066262  0.106803
                                -0.220857  0.652213 -1.295319  1.562148  0.000301 -0.000042 -0.000540 -0.000036  0.002255 -0.000145
                                -0.004927 -0.000307  0.036441 -0.001636 -0.074910  0.002022  0.000044 -0.000024 -0.000179  0.000115
                                 0.003373 -0.000457  0.004000  0.002985  0.000220  0.000005 -0.000004 -0.001267  0.010267 -0.046281
                                 0.364246  0.000345  0.001742 -0.001725 -0.001169  0.000010  0.005086  0.000057

                                   1 3d2-    1 3d2-    1 3d2-    1 3d2-    1 3d2-    1 3d2-    1 3d2-    1 3d2-    1 3d2-    1 3d2- 
                                   1 3d2-    1 3d2-    1 3d2-    1 3d2-    1 3d2-    1 3d2-    1 3d2-    1 3d2-    1 3d2-    1 4f2- 
                                   1 4f2-    1 4f2-    1 4f2-    1 4f2-    1 4f2-    1 5g2-    1 5g4-    1 5g2-    1 5g4-    1 5g2- 
                                   1 5g4-    1 5g2-    1 5g4-    1 6h4-    1 6h2-    2 3d2-    2 3d2-    2 3d2-    2 4f2-    2 4f2- 


   1.4   2   -22.1702 -159.7732  0.000020  0.000159  0.000981  0.004658  0.017747  0.053451  0.129580  0.235276  0.313977  0.288615
                                 0.151038  0.037271  0.002312  0.000419 -0.000194  0.000093 -0.000075  0.000037 -0.000010  0.000003
                                 0.000014  0.000005 -0.000000 -0.000001  0.000000  0.000000  0.000045  0.000001 -0.000008 -0.000002
                                 0.000005  0.000000 -0.000003  0.000000 -0.000001 -0.000000  0.000001  0.000001  0.000000 -0.000002

   2.4   2    -1.9431  -58.2958  0.000008  0.000064  0.000392  0.001867  0.007157  0.021741  0.053537  0.096972  0.124560  0.091017
                                -0.075820 -0.294077 -0.391785 -0.293256 -0.113034 -0.016428 -0.000411 -0.000386  0.000045 -0.000311
                                -0.000437 -0.001939 -0.001171  0.000115 -0.000025 -0.000008 -0.000294 -0.000224 -0.001345 -0.000221
                                -0.000773  0.000092  0.000170 -0.000023  0.000025 -0.000126 -0.000265 -0.000057  0.000174 -0.000019

   3.4   0     0.0850   -6.8092  0.000000  0.000001  0.000017  0.000037  0.000306  0.000446  0.002372  0.001428  0.007648 -0.004585
                                 0.010326 -0.032722  0.024690 -0.075459  0.122844 -0.258158  0.706453 -1.119324  1.573129  0.000048
                                 0.000011  0.000211 -0.000366 -0.001976  0.011314 -0.000044 -0.000035  0.000280  0.000185 -0.002368
                                -0.000598  0.002864  0.004793  0.000005 -0.000065 -0.000245  0.002365 -0.002700  0.000228 -0.003309

   4.4   0     0.2135  -10.7674 -0.000001 -0.000009 -0.000035 -0.000253 -0.000670 -0.002934 -0.004875 -0.014150 -0.007323 -0.023807
                                 0.035039 -0.004875  0.121076 -0.087940  0.199387 -0.681073  1.247267 -2.683757  1.460507 -0.000078
                                -0.000739  0.000898 -0.005860 -0.000406 -0.026010 -0.000041  0.000082  0.000208 -0.000422 -0.002310
                                 0.000558  0.000237 -0.014716 -0.000021 -0.000105 -0.000752  0.001725 -0.005084  0.000558 -0.005603

 HOMO      6.3    -0.328202 =      -8.9308eV
 LUMO     14.1     0.017208 =       0.4683eV
 LUMO-HOMO         0.345411 =       9.3991eV


 **********************************************************************************************************************************
 DATASETS  * FILE   NREC   LENGTH (MB)   RECORD NAMES
              1      22       22.24       500      610      700      900      950      970     1000      129      960     1700   
                                          VAR    BASINP    GEOM    SYMINP    ZMAT    AOBASIS   BASIS     P2S    ABASIS    OPER   
                                         1101     1401     1411     1412     1650     1100     1400     1410     1200     1210   
                                          SR      EKINR    POTR     PVPR    MOLCAS      S      EKIN      POT      H0       H01  
                                         1080     1600   
                                         AOSYM     SMH  

              2       4        3.76       700     1000      520     2100   
                                         GEOM     BASIS   MCVARS     RHF  

 PROGRAMS   *        TOTAL       RHF       INT
 CPU TIMES  *        53.14      3.83     49.13
 REAL TIME  *        58.39 SEC
 DISK USED  *         3.49 GB      
 SF USED    *         0.14 MB      
 GA USED    *         0.00 MB       (max)       0.00 MB       (current)
 **********************************************************************************************************************************
 SETTING SCF            =     -6791.54950125  AU                              
 SETTING _CC_NORM_MAX   =         2.00000000                                  


 PROGRAM * CCSD (Restricted open-shell coupled cluster)     Authors: C. Hampel, H.-J. Werner, 1991, M. Deegan, P.J. Knowles, 1992


 Convergence thresholds:  THRVAR = 1.00D-08  THRDEN = 1.06D-06

 CCSD(T)     terms to be evaluated (factor= 1.000)


 Number of closed-shell orbitals:  26 (  13   5   6   2 )
 Number of active  orbitals:        1 (   0   1   0   0 )
 Number of external orbitals:     310 ( 128  72  72  38 )

 Memory could be reduced to 357.02 Mwords without degradation in triples

 Number of N-1 electron functions:              53
 Number of N-2 electron functions:            1378
 Number of singly external CSFs:              5147
 Number of doubly external CSFs:          25795914
 Total number of CSFs:                    25801061

 Molecular orbitals read from record     2100.2  Type=RHF/CANONICAL (state 1.2)

 Integral transformation finished. Total CPU:  13.50 sec, npass=  1  Memory used:  37.09 MW

 Starting RMP2 calculation

 Wavefunction is spin-projected

 ITER.      SQ.NORM     CORR.ENERGY   TOTAL ENERGY   ENERGY CHANGE        DEN1      VAR(S)    VAR(P)  DIIS     TIME
   1      1.15387158    -1.91006037 -6793.45956163    -1.91006037    -0.00124754  0.18D-04  0.51D-03  1  1    18.40
   2      1.15510369    -1.91136467 -6793.46086592    -0.00130429    -0.00000491  0.12D-06  0.31D-05  2  2    23.10
   3      1.15519569    -1.91142164 -6793.46092289    -0.00005697    -0.00000001  0.22D-09  0.75D-08  3  3    28.60
   4      1.15519726    -1.91142181 -6793.46092306    -0.00000017    -0.00000000  0.11D-11  0.35D-10  4  4    34.52

 Norm of t1 vector:      0.03965809      S-energy:    -0.00233404      T1 diagnostic:  0.00003018
 Norm of t2 vector:      0.39194961      P-energy:    -1.90908777
                                         Alpha-Beta:  -1.27176010
                                         Alpha-Alpha: -0.32672343
                                         Beta-Beta:   -0.31060424

 Spin contamination <S**2-Sz**2-Sz>     0.00000000
  Reference energy                  -6791.549501251486
  RHF-RMP2 correlation energy          -1.911421809868
 !RHF-RMP2 energy                   -6793.460923061353
 (NB above energy spin projected)

 Starting RCCSD calculation

 ITER.      SQ.NORM     CORR.ENERGY   TOTAL ENERGY   ENERGY CHANGE        DEN1      VAR(S)    VAR(P)  DIIS     TIME
   1      1.13592767    -1.79710944 -6793.34661070    -1.79710944    -0.02777302  0.22D-02  0.31D-02  0  0    81.98
   2      1.14560493    -1.82355461 -6793.37305586    -0.02644517    -0.00113310  0.64D-04  0.24D-03  1  1   129.21
   3      1.14678600    -1.82177684 -6793.37127809     0.00177777    -0.00010368  0.37D-04  0.27D-04  2  2   175.63
   4      1.14820807    -1.82276809 -6793.37226934    -0.00099125    -0.00000533  0.26D-05  0.14D-05  3  3   220.24
   5      1.14841574    -1.82281454 -6793.37231579    -0.00004645    -0.00000078  0.53D-06  0.16D-06  4  4   266.53
   6      1.14850471    -1.82282551 -6793.37232676    -0.00001098    -0.00000005  0.36D-07  0.11D-07  5  5   311.64
   7      1.14851539    -1.82282750 -6793.37232875    -0.00000199    -0.00000001  0.34D-08  0.14D-08  6  6   363.72
   8      1.14851451    -1.82282623 -6793.37232748     0.00000127    -0.00000000  0.29D-09  0.12D-09  6  1   415.15
   9      1.14851545    -1.82282668 -6793.37232793    -0.00000046    -0.00000000  0.26D-10  0.14D-10  6  2   474.71

 Norm of t1 vector:      0.07511890      S-energy:    -0.00248618      T1 diagnostic:  0.00597135
                                                                       D1 diagnostic:  0.02738199
 Norm of t2 vector:      0.37798493      P-energy:    -1.82034050
                                         Alpha-Beta:  -1.24114972
                                         Alpha-Alpha: -0.29680656
                                         Beta-Beta:   -0.28238422

 Spin contamination <S**2-Sz**2-Sz>     0.00000000

 Memory could be reduced to 390.62 Mwords without degradation in triples
 

  Correlated core orbitals:             1.1       2.1       3.1       4.1       5.1       6.1       7.1       8.1       9.1      10.1
                                       11.1       1.2       2.2       3.2       4.2       5.2       1.3       2.3       3.3       4.3
                                        5.3       1.4       2.4
  Orbital energies:                 -1174.9436 -183.7432 -164.7852  -38.0926  -31.7649  -22.1734  -22.1679   -7.1022   -5.0484   -1.9650
                                       -1.9443 -164.7882  -31.7702  -22.1724   -5.0556   -1.9560 -164.7851  -31.7635  -22.1679   -5.0395
                                       -1.9414  -22.1713   -1.9476
 
  RCCSD core-core energy               -1.501764688320
  RCCSD core-valence energy            -0.183485515020
  RCCSD valence correlation energy     -0.137576479835
 

 RESULTS
 =======

  Reference energy                  -6791.549501251486
  RCCSD singles energy                 -0.002486183625
  RCCSD pair energy                    -1.820340499550
  RCCSD correlation energy             -1.822826683175
  Triples (T) contribution             -0.030472195406
  Total correlation energy             -1.853298878581
 
  RHF-RCCSD energy                  -6793.372327934661
  RHF-RCCSD[T] energy               -6793.403278014306
  RHF-RCCSD-T energy                -6793.402713290388
 !RHF-RCCSD(T) energy               -6793.402800130068

 Program statistics:

 Available memory in ccsd:               999993798
 Min. memory needed in ccsd:              70894231
 Max. memory used in ccsd:               104263128
 Max. memory used in cckext:              84316528 ( 9 integral passes)
 Max. memory used in cckint:              37094289 ( 1 integral passes)



 **********************************************************************************************************************************
 DATASETS  * FILE   NREC   LENGTH (MB)   RECORD NAMES
              1      22       22.24       500      610      700      900      950      970     1000      129      960     1700   
                                          VAR    BASINP    GEOM    SYMINP    ZMAT    AOBASIS   BASIS     P2S    ABASIS    OPER   
                                         1101     1401     1411     1412     1650     1100     1400     1410     1200     1210   
                                          SR      EKINR    POTR     PVPR    MOLCAS      S      EKIN      POT      H0       H01  
                                         1080     1600   
                                         AOSYM     SMH  

              2       4        3.76       700     1000      520     2100   
                                         GEOM     BASIS   MCVARS     RHF  

 PROGRAMS   *        TOTAL  RCCSD(T)       RHF       INT
 CPU TIMES  *      1567.80   1514.59      3.83     49.13
 REAL TIME  *      1952.08 SEC
 DISK USED  *        39.55 GB      
 SF USED    *         7.73 GB      
 GA USED    *         0.00 MB       (max)       0.00 MB       (current)
 **********************************************************************************************************************************
 SETTING CCSD           =     -6793.40280013  AU                              

 RCCSD(T)/USERDEF energy=  -6793.402800130068

        RCCSD(T)        RHF-SCF 
  -6793.40280013  -6791.54950125
 **********************************************************************************************************************************
 Molpro calculation terminated
 Variable memory released
