/global/cscratch1/sd/bkincaid/Ir/250-610/runs/scf_300

     Program PWSCF v.6.4.1 starts on 17Jan2022 at 13:46:38 

     This program is part of the open-source Quantum ESPRESSO suite
     for quantum simulation of materials; please cite
         "P. Giannozzi et al., J. Phys.:Condens. Matter 21 395502 (2009);
         "P. Giannozzi et al., J. Phys.:Condens. Matter 29 465901 (2017);
          URL http://www.quantum-espresso.org", 
     in publications or presentations arising from this work. More details at
     http://www.quantum-espresso.org/quote

     Parallel version (MPI & OpenMP), running on      32 processor cores
     Number of MPI processes:                32
     Threads/MPI process:                     1

     MPI processes distributed on     1 nodes
     R & G space division:  proc/nbgrp/npool/nimage =      32
     Reading input from scf_300.in

     Current dimensions of program PWSCF are:
     Max number of different atomic species (ntypx) = 10
     Max number of k-points (npk) =  40000
     Max angular momentum in pseudopotentials (lmaxx) =  3

     IMPORTANT: XC functional enforced from input :
     Exchange-correlation      = PBE ( 1  4  3  4 0 0)
     Any further DFT definition will be discarded
     Please, verify this is what you really want


     gamma-point specific algorithms are used
     Message from routine setup:
     the system is metallic, specify occupations

     Subspace diagonalization in iterative solution of the eigenvalue problem:
     one sub-group per band group will be used
     scalapack distributed-memory algorithm (size of sub-group:  4*  4 procs)

     Message from routine setup:
     DEPRECATED: symmetry with ibrav=0, use correct ibrav instead
 
     Parallelization info
     --------------------
     sticks:   dense  smooth     PW     G-vecs:    dense   smooth      PW
     Min        1534    1534    381               255834   255834   31973
     Max        1536    1536    384               255844   255844   31988
     Sum       49101   49101  12281              8186791  8186791 1023517
 


     bravais-lattice index     =            0
     lattice parameter (alat)  =      22.6767  a.u.
     unit-cell volume          =   11661.1222 (a.u.)^3
     number of atoms/cell      =            1
     number of atomic types    =            1
     number of electrons       =        17.00 (up:  10.00, down:   7.00)
     number of Kohn-Sham states=           12
     kinetic-energy cutoff     =     300.0000  Ry
     charge density cutoff     =    1200.0000  Ry
     convergence threshold     =      1.0E-06
     mixing beta               =       0.7000
     number of iterations used =            8  plain     mixing
     Exchange-correlation      = PBE ( 1  4  3  4 0 0)

     celldm(1)=  22.676714  celldm(2)=   0.000000  celldm(3)=   0.000000
     celldm(4)=   0.000000  celldm(5)=   0.000000  celldm(6)=   0.000000

     crystal axes: (cart. coord. in units of alat)
               a(1) = (   1.000000   0.000000   0.000000 )  
               a(2) = (   0.000000   1.000000   0.000000 )  
               a(3) = (   0.000000   0.000000   1.000000 )  

     reciprocal axes: (cart. coord. in units 2 pi/alat)
               b(1) = (  1.000000  0.000000  0.000000 )  
               b(2) = (  0.000000  1.000000  0.000000 )  
               b(3) = (  0.000000  0.000000  1.000000 )  


     PseudoPot. # 1 for Ir read from file:
     ./Ir.upf
     MD5 check sum: 4ec64f0b3ebe11de5a1e063b7aff0c74
     Pseudo is Norm-conserving, Zval = 17.0
     Generated by new atomic code, or converted to UPF format
     Using radial grid of 1188 points,  3 beta functions with: 
                l(1) =   1
                l(2) =   2
                l(3) =   3

     atomic species   valence    mass     pseudopotential
        Ir            17.00   192.20000     Ir( 1.00)

     Starting magnetic structure 
     atomic species   magnetization
        Ir           0.500

     48 Sym. Ops., with inversion, found


                                    s                        frac. trans.

      isym =  1     identity                                     

 cryst.   s( 1) = (     1          0          0      )
                  (     0          1          0      )
                  (     0          0          1      )

 cart.    s( 1) = (  1.0000000  0.0000000  0.0000000 )
                  (  0.0000000  1.0000000  0.0000000 )
                  (  0.0000000  0.0000000  1.0000000 )


      isym =  2     180 deg rotation - cart. axis [0,0,1]        

 cryst.   s( 2) = (    -1          0          0      )
                  (     0         -1          0      )
                  (     0          0          1      )

 cart.    s( 2) = ( -1.0000000  0.0000000  0.0000000 )
                  (  0.0000000 -1.0000000  0.0000000 )
                  (  0.0000000  0.0000000  1.0000000 )


      isym =  3     180 deg rotation - cart. axis [0,1,0]        

 cryst.   s( 3) = (    -1          0          0      )
                  (     0          1          0      )
                  (     0          0         -1      )

 cart.    s( 3) = ( -1.0000000  0.0000000  0.0000000 )
                  (  0.0000000  1.0000000  0.0000000 )
                  (  0.0000000  0.0000000 -1.0000000 )


      isym =  4     180 deg rotation - cart. axis [1,0,0]        

 cryst.   s( 4) = (     1          0          0      )
                  (     0         -1          0      )
                  (     0          0         -1      )

 cart.    s( 4) = (  1.0000000  0.0000000  0.0000000 )
                  (  0.0000000 -1.0000000  0.0000000 )
                  (  0.0000000  0.0000000 -1.0000000 )


      isym =  5     180 deg rotation - cart. axis [1,1,0]        

 cryst.   s( 5) = (     0          1          0      )
                  (     1          0          0      )
                  (     0          0         -1      )

 cart.    s( 5) = (  0.0000000  1.0000000  0.0000000 )
                  (  1.0000000  0.0000000  0.0000000 )
                  (  0.0000000  0.0000000 -1.0000000 )


      isym =  6     180 deg rotation - cart. axis [1,-1,0]       

 cryst.   s( 6) = (     0         -1          0      )
                  (    -1          0          0      )
                  (     0          0         -1      )

 cart.    s( 6) = (  0.0000000 -1.0000000  0.0000000 )
                  ( -1.0000000  0.0000000  0.0000000 )
                  (  0.0000000  0.0000000 -1.0000000 )


      isym =  7      90 deg rotation - cart. axis [0,0,-1]       

 cryst.   s( 7) = (     0         -1          0      )
                  (     1          0          0      )
                  (     0          0          1      )

 cart.    s( 7) = (  0.0000000  1.0000000  0.0000000 )
                  ( -1.0000000  0.0000000  0.0000000 )
                  (  0.0000000  0.0000000  1.0000000 )


      isym =  8      90 deg rotation - cart. axis [0,0,1]        

 cryst.   s( 8) = (     0          1          0      )
                  (    -1          0          0      )
                  (     0          0          1      )

 cart.    s( 8) = (  0.0000000 -1.0000000  0.0000000 )
                  (  1.0000000  0.0000000  0.0000000 )
                  (  0.0000000  0.0000000  1.0000000 )


      isym =  9     180 deg rotation - cart. axis [1,0,1]        

 cryst.   s( 9) = (     0          0          1      )
                  (     0         -1          0      )
                  (     1          0          0      )

 cart.    s( 9) = (  0.0000000  0.0000000  1.0000000 )
                  (  0.0000000 -1.0000000  0.0000000 )
                  (  1.0000000  0.0000000  0.0000000 )


      isym = 10     180 deg rotation - cart. axis [-1,0,1]       

 cryst.   s(10) = (     0          0         -1      )
                  (     0         -1          0      )
                  (    -1          0          0      )

 cart.    s(10) = (  0.0000000  0.0000000 -1.0000000 )
                  (  0.0000000 -1.0000000  0.0000000 )
                  ( -1.0000000  0.0000000  0.0000000 )


      isym = 11      90 deg rotation - cart. axis [0,1,0]        

 cryst.   s(11) = (     0          0         -1      )
                  (     0          1          0      )
                  (     1          0          0      )

 cart.    s(11) = (  0.0000000  0.0000000  1.0000000 )
                  (  0.0000000  1.0000000  0.0000000 )
                  ( -1.0000000  0.0000000  0.0000000 )


      isym = 12      90 deg rotation - cart. axis [0,-1,0]       

 cryst.   s(12) = (     0          0          1      )
                  (     0          1          0      )
                  (    -1          0          0      )

 cart.    s(12) = (  0.0000000  0.0000000 -1.0000000 )
                  (  0.0000000  1.0000000  0.0000000 )
                  (  1.0000000  0.0000000  0.0000000 )


      isym = 13     180 deg rotation - cart. axis [0,1,1]        

 cryst.   s(13) = (    -1          0          0      )
                  (     0          0          1      )
                  (     0          1          0      )

 cart.    s(13) = ( -1.0000000  0.0000000  0.0000000 )
                  (  0.0000000  0.0000000  1.0000000 )
                  (  0.0000000  1.0000000  0.0000000 )


      isym = 14     180 deg rotation - cart. axis [0,1,-1]       

 cryst.   s(14) = (    -1          0          0      )
                  (     0          0         -1      )
                  (     0         -1          0      )

 cart.    s(14) = ( -1.0000000  0.0000000  0.0000000 )
                  (  0.0000000  0.0000000 -1.0000000 )
                  (  0.0000000 -1.0000000  0.0000000 )


      isym = 15      90 deg rotation - cart. axis [-1,0,0]       

 cryst.   s(15) = (     1          0          0      )
                  (     0          0         -1      )
                  (     0          1          0      )

 cart.    s(15) = (  1.0000000  0.0000000  0.0000000 )
                  (  0.0000000  0.0000000  1.0000000 )
                  (  0.0000000 -1.0000000  0.0000000 )


      isym = 16      90 deg rotation - cart. axis [1,0,0]        

 cryst.   s(16) = (     1          0          0      )
                  (     0          0          1      )
                  (     0         -1          0      )

 cart.    s(16) = (  1.0000000  0.0000000  0.0000000 )
                  (  0.0000000  0.0000000 -1.0000000 )
                  (  0.0000000  1.0000000  0.0000000 )


      isym = 17     120 deg rotation - cart. axis [-1,-1,-1]     

 cryst.   s(17) = (     0          0          1      )
                  (     1          0          0      )
                  (     0          1          0      )

 cart.    s(17) = (  0.0000000  1.0000000  0.0000000 )
                  (  0.0000000  0.0000000  1.0000000 )
                  (  1.0000000  0.0000000  0.0000000 )


      isym = 18     120 deg rotation - cart. axis [-1,1,1]       

 cryst.   s(18) = (     0          0         -1      )
                  (    -1          0          0      )
                  (     0          1          0      )

 cart.    s(18) = (  0.0000000 -1.0000000  0.0000000 )
                  (  0.0000000  0.0000000  1.0000000 )
                  ( -1.0000000  0.0000000  0.0000000 )


      isym = 19     120 deg rotation - cart. axis [1,1,-1]       

 cryst.   s(19) = (     0          0         -1      )
                  (     1          0          0      )
                  (     0         -1          0      )

 cart.    s(19) = (  0.0000000  1.0000000  0.0000000 )
                  (  0.0000000  0.0000000 -1.0000000 )
                  ( -1.0000000  0.0000000  0.0000000 )


      isym = 20     120 deg rotation - cart. axis [1,-1,1]       

 cryst.   s(20) = (     0          0          1      )
                  (    -1          0          0      )
                  (     0         -1          0      )

 cart.    s(20) = (  0.0000000 -1.0000000  0.0000000 )
                  (  0.0000000  0.0000000 -1.0000000 )
                  (  1.0000000  0.0000000  0.0000000 )


      isym = 21     120 deg rotation - cart. axis [1,1,1]        

 cryst.   s(21) = (     0          1          0      )
                  (     0          0          1      )
                  (     1          0          0      )

 cart.    s(21) = (  0.0000000  0.0000000  1.0000000 )
                  (  1.0000000  0.0000000  0.0000000 )
                  (  0.0000000  1.0000000  0.0000000 )


      isym = 22     120 deg rotation - cart. axis [-1,1,-1]      

 cryst.   s(22) = (     0         -1          0      )
                  (     0          0         -1      )
                  (     1          0          0      )

 cart.    s(22) = (  0.0000000  0.0000000  1.0000000 )
                  ( -1.0000000  0.0000000  0.0000000 )
                  (  0.0000000 -1.0000000  0.0000000 )


      isym = 23     120 deg rotation - cart. axis [1,-1,-1]      

 cryst.   s(23) = (     0         -1          0      )
                  (     0          0          1      )
                  (    -1          0          0      )

 cart.    s(23) = (  0.0000000  0.0000000 -1.0000000 )
                  ( -1.0000000  0.0000000  0.0000000 )
                  (  0.0000000  1.0000000  0.0000000 )


      isym = 24     120 deg rotation - cart. axis [-1,-1,1]      

 cryst.   s(24) = (     0          1          0      )
                  (     0          0         -1      )
                  (    -1          0          0      )

 cart.    s(24) = (  0.0000000  0.0000000 -1.0000000 )
                  (  1.0000000  0.0000000  0.0000000 )
                  (  0.0000000 -1.0000000  0.0000000 )


      isym = 25     inversion                                    

 cryst.   s(25) = (    -1          0          0      )
                  (     0         -1          0      )
                  (     0          0         -1      )

 cart.    s(25) = ( -1.0000000  0.0000000  0.0000000 )
                  (  0.0000000 -1.0000000  0.0000000 )
                  (  0.0000000  0.0000000 -1.0000000 )


      isym = 26     inv. 180 deg rotation - cart. axis [0,0,1]   

 cryst.   s(26) = (     1          0          0      )
                  (     0          1          0      )
                  (     0          0         -1      )

 cart.    s(26) = (  1.0000000  0.0000000  0.0000000 )
                  (  0.0000000  1.0000000  0.0000000 )
                  (  0.0000000  0.0000000 -1.0000000 )


      isym = 27     inv. 180 deg rotation - cart. axis [0,1,0]   

 cryst.   s(27) = (     1          0          0      )
                  (     0         -1          0      )
                  (     0          0          1      )

 cart.    s(27) = (  1.0000000  0.0000000  0.0000000 )
                  (  0.0000000 -1.0000000  0.0000000 )
                  (  0.0000000  0.0000000  1.0000000 )


      isym = 28     inv. 180 deg rotation - cart. axis [1,0,0]   

 cryst.   s(28) = (    -1          0          0      )
                  (     0          1          0      )
                  (     0          0          1      )

 cart.    s(28) = ( -1.0000000  0.0000000  0.0000000 )
                  (  0.0000000  1.0000000  0.0000000 )
                  (  0.0000000  0.0000000  1.0000000 )


      isym = 29     inv. 180 deg rotation - cart. axis [1,1,0]   

 cryst.   s(29) = (     0         -1          0      )
                  (    -1          0          0      )
                  (     0          0          1      )

 cart.    s(29) = (  0.0000000 -1.0000000  0.0000000 )
                  ( -1.0000000  0.0000000  0.0000000 )
                  (  0.0000000  0.0000000  1.0000000 )


      isym = 30     inv. 180 deg rotation - cart. axis [1,-1,0]  

 cryst.   s(30) = (     0          1          0      )
                  (     1          0          0      )
                  (     0          0          1      )

 cart.    s(30) = (  0.0000000  1.0000000  0.0000000 )
                  (  1.0000000  0.0000000  0.0000000 )
                  (  0.0000000  0.0000000  1.0000000 )


      isym = 31     inv.  90 deg rotation - cart. axis [0,0,-1]  

 cryst.   s(31) = (     0          1          0      )
                  (    -1          0          0      )
                  (     0          0         -1      )

 cart.    s(31) = (  0.0000000 -1.0000000  0.0000000 )
                  (  1.0000000  0.0000000  0.0000000 )
                  (  0.0000000  0.0000000 -1.0000000 )


      isym = 32     inv.  90 deg rotation - cart. axis [0,0,1]   

 cryst.   s(32) = (     0         -1          0      )
                  (     1          0          0      )
                  (     0          0         -1      )

 cart.    s(32) = (  0.0000000  1.0000000  0.0000000 )
                  ( -1.0000000  0.0000000  0.0000000 )
                  (  0.0000000  0.0000000 -1.0000000 )


      isym = 33     inv. 180 deg rotation - cart. axis [1,0,1]   

 cryst.   s(33) = (     0          0         -1      )
                  (     0          1          0      )
                  (    -1          0          0      )

 cart.    s(33) = (  0.0000000  0.0000000 -1.0000000 )
                  (  0.0000000  1.0000000  0.0000000 )
                  ( -1.0000000  0.0000000  0.0000000 )


      isym = 34     inv. 180 deg rotation - cart. axis [-1,0,1]  

 cryst.   s(34) = (     0          0          1      )
                  (     0          1          0      )
                  (     1          0          0      )

 cart.    s(34) = (  0.0000000  0.0000000  1.0000000 )
                  (  0.0000000  1.0000000  0.0000000 )
                  (  1.0000000  0.0000000  0.0000000 )


      isym = 35     inv.  90 deg rotation - cart. axis [0,1,0]   

 cryst.   s(35) = (     0          0          1      )
                  (     0         -1          0      )
                  (    -1          0          0      )

 cart.    s(35) = (  0.0000000  0.0000000 -1.0000000 )
                  (  0.0000000 -1.0000000  0.0000000 )
                  (  1.0000000  0.0000000  0.0000000 )


      isym = 36     inv.  90 deg rotation - cart. axis [0,-1,0]  

 cryst.   s(36) = (     0          0         -1      )
                  (     0         -1          0      )
                  (     1          0          0      )

 cart.    s(36) = (  0.0000000  0.0000000  1.0000000 )
                  (  0.0000000 -1.0000000  0.0000000 )
                  ( -1.0000000  0.0000000  0.0000000 )


      isym = 37     inv. 180 deg rotation - cart. axis [0,1,1]   

 cryst.   s(37) = (     1          0          0      )
                  (     0          0         -1      )
                  (     0         -1          0      )

 cart.    s(37) = (  1.0000000  0.0000000  0.0000000 )
                  (  0.0000000  0.0000000 -1.0000000 )
                  (  0.0000000 -1.0000000  0.0000000 )


      isym = 38     inv. 180 deg rotation - cart. axis [0,1,-1]  

 cryst.   s(38) = (     1          0          0      )
                  (     0          0          1      )
                  (     0          1          0      )

 cart.    s(38) = (  1.0000000  0.0000000  0.0000000 )
                  (  0.0000000  0.0000000  1.0000000 )
                  (  0.0000000  1.0000000  0.0000000 )


      isym = 39     inv.  90 deg rotation - cart. axis [-1,0,0]  

 cryst.   s(39) = (    -1          0          0      )
                  (     0          0          1      )
                  (     0         -1          0      )

 cart.    s(39) = ( -1.0000000  0.0000000  0.0000000 )
                  (  0.0000000  0.0000000 -1.0000000 )
                  (  0.0000000  1.0000000  0.0000000 )


      isym = 40     inv.  90 deg rotation - cart. axis [1,0,0]   

 cryst.   s(40) = (    -1          0          0      )
                  (     0          0         -1      )
                  (     0          1          0      )

 cart.    s(40) = ( -1.0000000  0.0000000  0.0000000 )
                  (  0.0000000  0.0000000  1.0000000 )
                  (  0.0000000 -1.0000000  0.0000000 )


      isym = 41     inv. 120 deg rotation - cart. axis [-1,-1,-1]

 cryst.   s(41) = (     0          0         -1      )
                  (    -1          0          0      )
                  (     0         -1          0      )

 cart.    s(41) = (  0.0000000 -1.0000000  0.0000000 )
                  (  0.0000000  0.0000000 -1.0000000 )
                  ( -1.0000000  0.0000000  0.0000000 )


      isym = 42     inv. 120 deg rotation - cart. axis [-1,1,1]  

 cryst.   s(42) = (     0          0          1      )
                  (     1          0          0      )
                  (     0         -1          0      )

 cart.    s(42) = (  0.0000000  1.0000000  0.0000000 )
                  (  0.0000000  0.0000000 -1.0000000 )
                  (  1.0000000  0.0000000  0.0000000 )


      isym = 43     inv. 120 deg rotation - cart. axis [1,1,-1]  

 cryst.   s(43) = (     0          0          1      )
                  (    -1          0          0      )
                  (     0          1          0      )

 cart.    s(43) = (  0.0000000 -1.0000000  0.0000000 )
                  (  0.0000000  0.0000000  1.0000000 )
                  (  1.0000000  0.0000000  0.0000000 )


      isym = 44     inv. 120 deg rotation - cart. axis [1,-1,1]  

 cryst.   s(44) = (     0          0         -1      )
                  (     1          0          0      )
                  (     0          1          0      )

 cart.    s(44) = (  0.0000000  1.0000000  0.0000000 )
                  (  0.0000000  0.0000000  1.0000000 )
                  ( -1.0000000  0.0000000  0.0000000 )


      isym = 45     inv. 120 deg rotation - cart. axis [1,1,1]   

 cryst.   s(45) = (     0         -1          0      )
                  (     0          0         -1      )
                  (    -1          0          0      )

 cart.    s(45) = (  0.0000000  0.0000000 -1.0000000 )
                  ( -1.0000000  0.0000000  0.0000000 )
                  (  0.0000000 -1.0000000  0.0000000 )


      isym = 46     inv. 120 deg rotation - cart. axis [-1,1,-1] 

 cryst.   s(46) = (     0          1          0      )
                  (     0          0          1      )
                  (    -1          0          0      )

 cart.    s(46) = (  0.0000000  0.0000000 -1.0000000 )
                  (  1.0000000  0.0000000  0.0000000 )
                  (  0.0000000  1.0000000  0.0000000 )


      isym = 47     inv. 120 deg rotation - cart. axis [1,-1,-1] 

 cryst.   s(47) = (     0          1          0      )
                  (     0          0         -1      )
                  (     1          0          0      )

 cart.    s(47) = (  0.0000000  0.0000000  1.0000000 )
                  (  1.0000000  0.0000000  0.0000000 )
                  (  0.0000000 -1.0000000  0.0000000 )


      isym = 48     inv. 120 deg rotation - cart. axis [-1,-1,1] 

 cryst.   s(48) = (     0         -1          0      )
                  (     0          0          1      )
                  (     1          0          0      )

 cart.    s(48) = (  0.0000000  0.0000000  1.0000000 )
                  ( -1.0000000  0.0000000  0.0000000 )
                  (  0.0000000  1.0000000  0.0000000 )


   Cartesian axes

     site n.     atom                  positions (alat units)
         1           Ir  tau(   1) = (   0.5000000   0.5000000   0.5000000  )

   Crystallographic axes

     site n.     atom                  positions (cryst. coord.)
         1           Ir  tau(   1) = (  0.5000000  0.5000000  0.5000000  )

     number of k points=     1
                       cart. coord. in units 2pi/alat
        k(    1) = (   0.0000000   0.0000000   0.0000000), wk =   1.0000000

                       cryst. coord.
        k(    1) = (   0.0000000   0.0000000   0.0000000), wk =   1.0000000

     Dense  grid:  4093396 G-vectors     FFT dimensions: ( 256, 256, 256)

     Dynamical RAM for                 wfc:       2.93 MB

     Dynamical RAM for     wfc (w. buffer):       8.78 MB

     Dynamical RAM for           str. fact:       1.95 MB

     Dynamical RAM for           local pot:       0.00 MB

     Dynamical RAM for          nlocal pot:       3.66 MB

     Dynamical RAM for                qrad:       4.01 MB

     Dynamical RAM for          rho,v,vnew:      35.71 MB

     Dynamical RAM for               rhoin:      11.90 MB

     Dynamical RAM for            rho*nmix:      62.46 MB

     Dynamical RAM for           G-vectors:       8.30 MB

     Dynamical RAM for          h,s,v(r/c):       0.00 MB

     Dynamical RAM for          <psi|beta>:       0.00 MB

     Dynamical RAM for                 psi:      11.71 MB

     Dynamical RAM for                hpsi:      11.71 MB

     Dynamical RAM for      wfcinit/wfcrot:       7.81 MB

     Estimated static dynamical RAM per process >     164.68 MB

     Estimated max dynamical RAM per process >     188.10 MB

     Estimated total dynamical RAM >       5.88 GB
     Generating pointlists ...
     new r_m :   0.4125 (alat units)  9.3541 (a.u.) for type    1

     Initial potential from superposition of free atoms

     starting charge   14.48040, renormalised to   17.00000

     negative rho (up, down):  3.803E-03 0.000E+00
     Starting wfcs are   16 randomized atomic wfcs

     total cpu time spent up to now is        5.3 secs

     Self-consistent Calculation

     iteration #  1     ecut=   300.00 Ry     beta= 0.70
     Davidson diagonalization with overlap
     ethr =  1.00E-02,  avg # of iterations = 13.0

     negative rho (up, down):  2.717E-08 2.714E-02

     total cpu time spent up to now is       13.4 secs

     total energy              =    -199.86718011 Ry
     Harris-Foulkes estimate   =    -211.33107886 Ry
     estimated scf accuracy    <      14.80137069 Ry

     total magnetization       =     3.00 Bohr mag/cell
     absolute magnetization    =     5.71 Bohr mag/cell

     iteration #  2     ecut=   300.00 Ry     beta= 0.70
     Davidson diagonalization with overlap
     ethr =  1.00E-02,  avg # of iterations =  7.5

     negative rho (up, down):  1.316E-08 2.516E-02

     total cpu time spent up to now is       20.0 secs

     total energy              =    -209.26516741 Ry
     Harris-Foulkes estimate   =    -213.55751861 Ry
     estimated scf accuracy    <       7.19923495 Ry

     total magnetization       =     3.00 Bohr mag/cell
     absolute magnetization    =     3.03 Bohr mag/cell

     iteration #  3     ecut=   300.00 Ry     beta= 0.70
     Davidson diagonalization with overlap
     ethr =  1.00E-02,  avg # of iterations =  3.0

     negative rho (up, down):  8.340E-09 2.586E-02

     total cpu time spent up to now is       24.8 secs

     total energy              =    -209.16620682 Ry
     Harris-Foulkes estimate   =    -209.75420209 Ry
     estimated scf accuracy    <       1.20710901 Ry

     total magnetization       =     3.00 Bohr mag/cell
     absolute magnetization    =     3.04 Bohr mag/cell

     iteration #  4     ecut=   300.00 Ry     beta= 0.70
     Davidson diagonalization with overlap
     ethr =  7.10E-03,  avg # of iterations =  1.5

     negative rho (up, down):  4.283E-02 5.975E-02

     total cpu time spent up to now is       28.7 secs

     total energy              =    -209.01051615 Ry
     Harris-Foulkes estimate   =    -209.22996508 Ry
     estimated scf accuracy    <       0.30860622 Ry

     total magnetization       =     3.00 Bohr mag/cell
     absolute magnetization    =     3.05 Bohr mag/cell

     iteration #  5     ecut=   300.00 Ry     beta= 0.70
     Davidson diagonalization with overlap
     ethr =  1.82E-03,  avg # of iterations =  5.5

     negative rho (up, down):  1.004E-11 2.039E-02

     total cpu time spent up to now is       34.5 secs

     total energy              =    -209.09727284 Ry
     Harris-Foulkes estimate   =    -209.11680162 Ry
     estimated scf accuracy    <       0.03325292 Ry

     total magnetization       =     3.00 Bohr mag/cell
     absolute magnetization    =     3.07 Bohr mag/cell

     iteration #  6     ecut=   300.00 Ry     beta= 0.70
     Davidson diagonalization with overlap
     ethr =  1.96E-04,  avg # of iterations =  9.5

     negative rho (up, down):  7.969E-12 1.957E-02

     total cpu time spent up to now is       41.2 secs

     total energy              =    -209.11112787 Ry
     Harris-Foulkes estimate   =    -209.11120317 Ry
     estimated scf accuracy    <       0.03691120 Ry

     total magnetization       =     3.00 Bohr mag/cell
     absolute magnetization    =     3.04 Bohr mag/cell

     iteration #  7     ecut=   300.00 Ry     beta= 0.70
     Davidson diagonalization with overlap
     ethr =  1.96E-04,  avg # of iterations =  1.0

     negative rho (up, down):  8.431E-09 3.434E-02

     total cpu time spent up to now is       45.2 secs

     total energy              =    -209.11090596 Ry
     Harris-Foulkes estimate   =    -209.11145249 Ry
     estimated scf accuracy    <       0.03995302 Ry

     total magnetization       =     3.00 Bohr mag/cell
     absolute magnetization    =     3.04 Bohr mag/cell

     iteration #  8     ecut=   300.00 Ry     beta= 0.70
     Davidson diagonalization with overlap
     ethr =  1.96E-04,  avg # of iterations =  1.0

     negative rho (up, down):  1.330E-07 1.881E-02

     total cpu time spent up to now is       49.3 secs

     total energy              =    -209.11171701 Ry
     Harris-Foulkes estimate   =    -209.11177263 Ry
     estimated scf accuracy    <       0.01551182 Ry

     total magnetization       =     3.00 Bohr mag/cell
     absolute magnetization    =     3.06 Bohr mag/cell

     iteration #  9     ecut=   300.00 Ry     beta= 0.70
     Davidson diagonalization with overlap
     ethr =  9.12E-05,  avg # of iterations =  1.0

     negative rho (up, down):  7.247E-03 1.677E-01

     total cpu time spent up to now is       53.3 secs

     total energy              =    -209.11238062 Ry
     Harris-Foulkes estimate   =    -209.11193767 Ry
     estimated scf accuracy    <       0.01046944 Ry

     total magnetization       =     3.00 Bohr mag/cell
     absolute magnetization    =     3.06 Bohr mag/cell

     iteration # 10     ecut=   300.00 Ry     beta= 0.70
     Davidson diagonalization with overlap
     ethr =  6.16E-05,  avg # of iterations =  1.0

     negative rho (up, down):  3.623E-07 1.455E-02

     total cpu time spent up to now is       57.5 secs

     total energy              =    -209.11300761 Ry
     Harris-Foulkes estimate   =    -209.11309132 Ry
     estimated scf accuracy    <       0.00565440 Ry

     total magnetization       =     3.00 Bohr mag/cell
     absolute magnetization    =     3.06 Bohr mag/cell

     iteration # 11     ecut=   300.00 Ry     beta= 0.70
     Davidson diagonalization with overlap
     ethr =  3.33E-05,  avg # of iterations =  2.0

     negative rho (up, down):  1.181E-06 2.368E-02

     total cpu time spent up to now is       62.0 secs

     total energy              =    -209.11331209 Ry
     Harris-Foulkes estimate   =    -209.11412683 Ry
     estimated scf accuracy    <       0.00435044 Ry

     total magnetization       =     3.00 Bohr mag/cell
     absolute magnetization    =     3.05 Bohr mag/cell

     iteration # 12     ecut=   300.00 Ry     beta= 0.70
     Davidson diagonalization with overlap
     ethr =  2.56E-05,  avg # of iterations =  2.0

     negative rho (up, down):  8.519E-07 2.137E-02

     total cpu time spent up to now is       66.3 secs

     total energy              =    -209.11405607 Ry
     Harris-Foulkes estimate   =    -209.11451360 Ry
     estimated scf accuracy    <       0.00305370 Ry

     total magnetization       =     3.00 Bohr mag/cell
     absolute magnetization    =     3.04 Bohr mag/cell

     iteration # 13     ecut=   300.00 Ry     beta= 0.70
     Davidson diagonalization with overlap
     ethr =  1.80E-05,  avg # of iterations =  1.0

     negative rho (up, down):  3.064E-04 1.798E-01

     total cpu time spent up to now is       70.4 secs

     total energy              =    -209.11477591 Ry
     Harris-Foulkes estimate   =    -209.11438884 Ry
     estimated scf accuracy    <       0.00195971 Ry

     total magnetization       =     3.00 Bohr mag/cell
     absolute magnetization    =     3.04 Bohr mag/cell

     iteration # 14     ecut=   300.00 Ry     beta= 0.70
     Davidson diagonalization with overlap
     ethr =  1.15E-05,  avg # of iterations =  2.0

     negative rho (up, down):  5.252E-04 1.844E-01

     total cpu time spent up to now is       74.7 secs

     total energy              =    -209.11521205 Ry
     Harris-Foulkes estimate   =    -209.11500219 Ry
     estimated scf accuracy    <       0.00178553 Ry

     total magnetization       =     3.00 Bohr mag/cell
     absolute magnetization    =     3.04 Bohr mag/cell

     iteration # 15     ecut=   300.00 Ry     beta= 0.70
     Davidson diagonalization with overlap
     ethr =  1.05E-05,  avg # of iterations =  1.0

     negative rho (up, down):  1.188E-05 1.584E-01

     total cpu time spent up to now is       78.7 secs

     total energy              =    -209.11539304 Ry
     Harris-Foulkes estimate   =    -209.11528968 Ry
     estimated scf accuracy    <       0.00145293 Ry

     total magnetization       =     3.00 Bohr mag/cell
     absolute magnetization    =     3.04 Bohr mag/cell

     iteration # 16     ecut=   300.00 Ry     beta= 0.70
     Davidson diagonalization with overlap
     c_bands:  1 eigenvalues not converged
     ethr =  8.55E-06,  avg # of iterations = 16.5

     negative rho (up, down):  8.780E-05 1.815E-01

     total cpu time spent up to now is       86.9 secs

     total energy              =    -209.11659175 Ry
     Harris-Foulkes estimate   =    -209.11697249 Ry
     estimated scf accuracy    <       0.00298623 Ry

     total magnetization       =     3.00 Bohr mag/cell
     absolute magnetization    =     3.04 Bohr mag/cell

     iteration # 17     ecut=   300.00 Ry     beta= 0.70
     Davidson diagonalization with overlap
     ethr =  8.55E-06,  avg # of iterations =  1.0

     negative rho (up, down):  6.198E-04 1.911E-01

     total cpu time spent up to now is       91.0 secs

     total energy              =    -209.11671863 Ry
     Harris-Foulkes estimate   =    -209.11666891 Ry
     estimated scf accuracy    <       0.00135328 Ry

     total magnetization       =     3.00 Bohr mag/cell
     absolute magnetization    =     3.03 Bohr mag/cell

     iteration # 18     ecut=   300.00 Ry     beta= 0.70
     Davidson diagonalization with overlap
     ethr =  7.96E-06,  avg # of iterations =  1.0

     negative rho (up, down):  4.239E-04 1.775E-01

     total cpu time spent up to now is       95.1 secs

     total energy              =    -209.11468885 Ry
     Harris-Foulkes estimate   =    -209.11677656 Ry
     estimated scf accuracy    <       0.00095661 Ry

     total magnetization       =     3.00 Bohr mag/cell
     absolute magnetization    =     3.03 Bohr mag/cell

     iteration # 19     ecut=   300.00 Ry     beta= 0.70
     Davidson diagonalization with overlap
     ethr =  5.63E-06,  avg # of iterations =  6.0

     negative rho (up, down):  1.615E-04 1.796E-01

     total cpu time spent up to now is      100.7 secs

     total energy              =    -209.11570357 Ry
     Harris-Foulkes estimate   =    -209.11627587 Ry
     estimated scf accuracy    <       0.01231970 Ry

     total magnetization       =     3.00 Bohr mag/cell
     absolute magnetization    =     3.03 Bohr mag/cell

     iteration # 20     ecut=   300.00 Ry     beta= 0.70
     Davidson diagonalization with overlap
     ethr =  5.63E-06,  avg # of iterations =  1.0

     negative rho (up, down):  2.159E-04 1.899E-01

     total cpu time spent up to now is      104.8 secs

     total energy              =    -209.11552159 Ry
     Harris-Foulkes estimate   =    -209.11583791 Ry
     estimated scf accuracy    <       0.00988478 Ry

     total magnetization       =     3.00 Bohr mag/cell
     absolute magnetization    =     3.04 Bohr mag/cell

     iteration # 21     ecut=   300.00 Ry     beta= 0.70
     Davidson diagonalization with overlap
     ethr =  5.63E-06,  avg # of iterations =  2.0

     negative rho (up, down):  1.113E-08 2.694E-03

     total cpu time spent up to now is      109.3 secs

     total energy              =    -209.11356749 Ry
     Harris-Foulkes estimate   =    -209.11592794 Ry
     estimated scf accuracy    <       0.00243650 Ry

     total magnetization       =     3.00 Bohr mag/cell
     absolute magnetization    =     3.04 Bohr mag/cell

     iteration # 22     ecut=   300.00 Ry     beta= 0.70
     Davidson diagonalization with overlap
     ethr =  5.63E-06,  avg # of iterations =  2.5

     negative rho (up, down):  2.476E-08 5.004E-03

     total cpu time spent up to now is      113.8 secs

     total energy              =    -209.11483405 Ry
     Harris-Foulkes estimate   =    -209.11485697 Ry
     estimated scf accuracy    <       0.00079111 Ry

     total magnetization       =     3.00 Bohr mag/cell
     absolute magnetization    =     3.05 Bohr mag/cell

     iteration # 23     ecut=   300.00 Ry     beta= 0.70
     Davidson diagonalization with overlap
     ethr =  4.65E-06,  avg # of iterations =  1.0

     negative rho (up, down):  2.543E-07 3.273E-02

     total cpu time spent up to now is      117.9 secs

     total energy              =    -209.11498730 Ry
     Harris-Foulkes estimate   =    -209.11485871 Ry
     estimated scf accuracy    <       0.00051907 Ry

     total magnetization       =     3.00 Bohr mag/cell
     absolute magnetization    =     3.05 Bohr mag/cell

     iteration # 24     ecut=   300.00 Ry     beta= 0.70
     Davidson diagonalization with overlap
     ethr =  3.05E-06,  avg # of iterations =  1.0

     negative rho (up, down):  2.128E-09 5.908E-03

     total cpu time spent up to now is      122.0 secs

     total energy              =    -209.11370755 Ry
     Harris-Foulkes estimate   =    -209.11513981 Ry
     estimated scf accuracy    <       0.00174508 Ry

     total magnetization       =     3.00 Bohr mag/cell
     absolute magnetization    =     3.04 Bohr mag/cell

     iteration # 25     ecut=   300.00 Ry     beta= 0.70
     Davidson diagonalization with overlap
     ethr =  3.05E-06,  avg # of iterations =  7.0

     negative rho (up, down):  2.579E-09 5.865E-03

     total cpu time spent up to now is      127.7 secs

     total energy              =    -209.11487272 Ry
     Harris-Foulkes estimate   =    -209.11485249 Ry
     estimated scf accuracy    <       0.00280944 Ry

     total magnetization       =     3.00 Bohr mag/cell
     absolute magnetization    =     3.04 Bohr mag/cell

     iteration # 26     ecut=   300.00 Ry     beta= 0.70
     Davidson diagonalization with overlap
     ethr =  3.05E-06,  avg # of iterations =  1.0

     negative rho (up, down):  1.353E-09 3.524E-03

     total cpu time spent up to now is      131.8 secs

     total energy              =    -209.11495705 Ry
     Harris-Foulkes estimate   =    -209.11493619 Ry
     estimated scf accuracy    <       0.00265022 Ry

     total magnetization       =     3.00 Bohr mag/cell
     absolute magnetization    =     3.04 Bohr mag/cell

     iteration # 27     ecut=   300.00 Ry     beta= 0.70
     Davidson diagonalization with overlap
     ethr =  3.05E-06,  avg # of iterations =  1.0

     negative rho (up, down):  3.119E-08 7.865E-03

     total cpu time spent up to now is      135.9 secs

     total energy              =    -209.11469237 Ry
     Harris-Foulkes estimate   =    -209.11510600 Ry
     estimated scf accuracy    <       0.00279906 Ry

     total magnetization       =     3.00 Bohr mag/cell
     absolute magnetization    =     3.04 Bohr mag/cell

     iteration # 28     ecut=   300.00 Ry     beta= 0.70
     Davidson diagonalization with overlap
     ethr =  3.05E-06,  avg # of iterations =  1.0

     negative rho (up, down):  1.264E-05 1.730E-01

     total cpu time spent up to now is      140.0 secs

     total energy              =    -209.11450686 Ry
     Harris-Foulkes estimate   =    -209.11488352 Ry
     estimated scf accuracy    <       0.00167307 Ry

     total magnetization       =     3.00 Bohr mag/cell
     absolute magnetization    =     3.04 Bohr mag/cell

     iteration # 29     ecut=   300.00 Ry     beta= 0.70
     Davidson diagonalization with overlap
     ethr =  3.05E-06,  avg # of iterations =  2.5

     negative rho (up, down):  2.085E-08 7.496E-03

     total cpu time spent up to now is      144.6 secs

     total energy              =    -209.11474703 Ry
     Harris-Foulkes estimate   =    -209.11479312 Ry
     estimated scf accuracy    <       0.00113706 Ry

     total magnetization       =     3.00 Bohr mag/cell
     absolute magnetization    =     3.05 Bohr mag/cell

     iteration # 30     ecut=   300.00 Ry     beta= 0.70
     Davidson diagonalization with overlap
     ethr =  3.05E-06,  avg # of iterations =  1.5

     negative rho (up, down):  2.071E-08 9.937E-03

     total cpu time spent up to now is      148.7 secs

     total energy              =    -209.11452213 Ry
     Harris-Foulkes estimate   =    -209.11484075 Ry
     estimated scf accuracy    <       0.00087794 Ry

     total magnetization       =     3.00 Bohr mag/cell
     absolute magnetization    =     3.05 Bohr mag/cell

     iteration # 31     ecut=   300.00 Ry     beta= 0.70
     Davidson diagonalization with overlap
     ethr =  3.05E-06,  avg # of iterations =  3.0

     negative rho (up, down):  4.357E-10 1.152E-03

     total cpu time spent up to now is      153.5 secs

     total energy              =    -209.11495595 Ry
     Harris-Foulkes estimate   =    -209.11496539 Ry
     estimated scf accuracy    <       0.00019574 Ry

     total magnetization       =     3.00 Bohr mag/cell
     absolute magnetization    =     3.05 Bohr mag/cell

     iteration # 32     ecut=   300.00 Ry     beta= 0.70
     Davidson diagonalization with overlap
     ethr =  1.15E-06,  avg # of iterations =  1.5

     negative rho (up, down):  1.274E-15 3.051E-04

     total cpu time spent up to now is      157.8 secs

     total energy              =    -209.11492163 Ry
     Harris-Foulkes estimate   =    -209.11497470 Ry
     estimated scf accuracy    <       0.00020624 Ry

     total magnetization       =     3.00 Bohr mag/cell
     absolute magnetization    =     3.04 Bohr mag/cell

     iteration # 33     ecut=   300.00 Ry     beta= 0.70
     Davidson diagonalization with overlap
     ethr =  1.15E-06,  avg # of iterations =  1.0

     negative rho (up, down):  0.000E+00 3.550E-04

     total cpu time spent up to now is      161.9 secs

     total energy              =    -209.11494202 Ry
     Harris-Foulkes estimate   =    -209.11494699 Ry
     estimated scf accuracy    <       0.00019601 Ry

     total magnetization       =     3.00 Bohr mag/cell
     absolute magnetization    =     3.04 Bohr mag/cell

     iteration # 34     ecut=   300.00 Ry     beta= 0.70
     Davidson diagonalization with overlap
     ethr =  1.15E-06,  avg # of iterations =  1.0

     negative rho (up, down):  0.000E+00 1.705E-04

     total cpu time spent up to now is      166.0 secs

     total energy              =    -209.11495344 Ry
     Harris-Foulkes estimate   =    -209.11494777 Ry
     estimated scf accuracy    <       0.00019500 Ry

     total magnetization       =     3.00 Bohr mag/cell
     absolute magnetization    =     3.04 Bohr mag/cell

     iteration # 35     ecut=   300.00 Ry     beta= 0.70
     Davidson diagonalization with overlap
     ethr =  1.15E-06,  avg # of iterations =  1.0

     negative rho (up, down):  0.000E+00 5.376E-05

     total cpu time spent up to now is      170.1 secs

     total energy              =    -209.11494193 Ry
     Harris-Foulkes estimate   =    -209.11496027 Ry
     estimated scf accuracy    <       0.00020784 Ry

     total magnetization       =     3.00 Bohr mag/cell
     absolute magnetization    =     3.04 Bohr mag/cell

     iteration # 36     ecut=   300.00 Ry     beta= 0.70
     Davidson diagonalization with overlap
     ethr =  1.15E-06,  avg # of iterations =  1.0

     total cpu time spent up to now is      174.2 secs

     total energy              =    -209.11488724 Ry
     Harris-Foulkes estimate   =    -209.11494503 Ry
     estimated scf accuracy    <       0.00011569 Ry

     total magnetization       =     3.00 Bohr mag/cell
     absolute magnetization    =     3.04 Bohr mag/cell

     iteration # 37     ecut=   300.00 Ry     beta= 0.70
     Davidson diagonalization with overlap
     ethr =  6.81E-07,  avg # of iterations =  2.5

     negative rho (up, down):  2.278E-08 4.868E-03

     total cpu time spent up to now is      178.7 secs

     total energy              =    -209.11491875 Ry
     Harris-Foulkes estimate   =    -209.11492349 Ry
     estimated scf accuracy    <       0.00002802 Ry

     total magnetization       =     3.00 Bohr mag/cell
     absolute magnetization    =     3.04 Bohr mag/cell

     iteration # 38     ecut=   300.00 Ry     beta= 0.70
     Davidson diagonalization with overlap
     ethr =  1.65E-07,  avg # of iterations =  2.0

     total cpu time spent up to now is      182.9 secs

     total energy              =    -209.11491973 Ry
     Harris-Foulkes estimate   =    -209.11492249 Ry
     estimated scf accuracy    <       0.00001045 Ry

     total magnetization       =     3.00 Bohr mag/cell
     absolute magnetization    =     3.04 Bohr mag/cell

     iteration # 39     ecut=   300.00 Ry     beta= 0.70
     Davidson diagonalization with overlap
     ethr =  6.15E-08,  avg # of iterations =  3.0

     total cpu time spent up to now is      187.5 secs

     total energy              =    -209.11491504 Ry
     Harris-Foulkes estimate   =    -209.11492325 Ry
     estimated scf accuracy    <       0.00001633 Ry

     total magnetization       =     3.00 Bohr mag/cell
     absolute magnetization    =     3.04 Bohr mag/cell

     iteration # 40     ecut=   300.00 Ry     beta= 0.70
     Davidson diagonalization with overlap
     ethr =  6.15E-08,  avg # of iterations =  2.0

     total cpu time spent up to now is      191.9 secs

     total energy              =    -209.11491951 Ry
     Harris-Foulkes estimate   =    -209.11492026 Ry
     estimated scf accuracy    <       0.00000300 Ry

     total magnetization       =     3.00 Bohr mag/cell
     absolute magnetization    =     3.04 Bohr mag/cell

     iteration # 41     ecut=   300.00 Ry     beta= 0.70
     Davidson diagonalization with overlap
     ethr =  1.77E-08,  avg # of iterations =  3.0

     total cpu time spent up to now is      196.3 secs

     total energy              =    -209.11492075 Ry
     Harris-Foulkes estimate   =    -209.11492073 Ry
     estimated scf accuracy    <       0.00000238 Ry

     total magnetization       =     3.00 Bohr mag/cell
     absolute magnetization    =     3.04 Bohr mag/cell

     iteration # 42     ecut=   300.00 Ry     beta= 0.70
     Davidson diagonalization with overlap
     ethr =  1.40E-08,  avg # of iterations =  1.0

     total cpu time spent up to now is      200.4 secs

     total energy              =    -209.11492140 Ry
     Harris-Foulkes estimate   =    -209.11492102 Ry
     estimated scf accuracy    <       0.00000188 Ry

     total magnetization       =     3.00 Bohr mag/cell
     absolute magnetization    =     3.04 Bohr mag/cell

     iteration # 43     ecut=   300.00 Ry     beta= 0.70
     Davidson diagonalization with overlap
     ethr =  1.10E-08,  avg # of iterations =  3.0

     total cpu time spent up to now is      205.2 secs

     total energy              =    -209.11492203 Ry
     Harris-Foulkes estimate   =    -209.11492221 Ry
     estimated scf accuracy    <       0.00000297 Ry

     total magnetization       =     3.00 Bohr mag/cell
     absolute magnetization    =     3.04 Bohr mag/cell

     iteration # 44     ecut=   300.00 Ry     beta= 0.70
     Davidson diagonalization with overlap
     ethr =  1.10E-08,  avg # of iterations =  1.5

     total cpu time spent up to now is      209.5 secs

     total energy              =    -209.11492226 Ry
     Harris-Foulkes estimate   =    -209.11492281 Ry
     estimated scf accuracy    <       0.00000370 Ry

     total magnetization       =     3.00 Bohr mag/cell
     absolute magnetization    =     3.04 Bohr mag/cell

     iteration # 45     ecut=   300.00 Ry     beta= 0.70
     Davidson diagonalization with overlap
     ethr =  1.10E-08,  avg # of iterations =  1.0

     total cpu time spent up to now is      213.6 secs

     total energy              =    -209.11492213 Ry
     Harris-Foulkes estimate   =    -209.11492258 Ry
     estimated scf accuracy    <       0.00000488 Ry

     total magnetization       =     3.00 Bohr mag/cell
     absolute magnetization    =     3.04 Bohr mag/cell

     iteration # 46     ecut=   300.00 Ry     beta= 0.70
     Davidson diagonalization with overlap
     ethr =  1.10E-08,  avg # of iterations =  1.5

     total cpu time spent up to now is      217.8 secs

     total energy              =    -209.11492280 Ry
     Harris-Foulkes estimate   =    -209.11492274 Ry
     estimated scf accuracy    <       0.00000557 Ry

     total magnetization       =     3.00 Bohr mag/cell
     absolute magnetization    =     3.04 Bohr mag/cell

     iteration # 47     ecut=   300.00 Ry     beta= 0.70
     Davidson diagonalization with overlap
     ethr =  1.10E-08,  avg # of iterations =  1.0

     total cpu time spent up to now is      221.9 secs

     total energy              =    -209.11491939 Ry
     Harris-Foulkes estimate   =    -209.11492287 Ry
     estimated scf accuracy    <       0.00000615 Ry

     total magnetization       =     3.00 Bohr mag/cell
     absolute magnetization    =     3.04 Bohr mag/cell

     iteration # 48     ecut=   300.00 Ry     beta= 0.70
     Davidson diagonalization with overlap
     ethr =  1.10E-08,  avg # of iterations =  2.5

     total cpu time spent up to now is      226.7 secs

     total energy              =    -209.11492207 Ry
     Harris-Foulkes estimate   =    -209.11492264 Ry
     estimated scf accuracy    <       0.00000728 Ry

     total magnetization       =     3.00 Bohr mag/cell
     absolute magnetization    =     3.04 Bohr mag/cell

     iteration # 49     ecut=   300.00 Ry     beta= 0.70
     Davidson diagonalization with overlap
     ethr =  1.10E-08,  avg # of iterations =  1.0

     total cpu time spent up to now is      230.8 secs

     total energy              =    -209.11492253 Ry
     Harris-Foulkes estimate   =    -209.11492259 Ry
     estimated scf accuracy    <       0.00000784 Ry

     total magnetization       =     3.00 Bohr mag/cell
     absolute magnetization    =     3.04 Bohr mag/cell

     iteration # 50     ecut=   300.00 Ry     beta= 0.70
     Davidson diagonalization with overlap
     ethr =  1.10E-08,  avg # of iterations =  1.0

     total cpu time spent up to now is      234.9 secs

     total energy              =    -209.11491473 Ry
     Harris-Foulkes estimate   =    -209.11492273 Ry
     estimated scf accuracy    <       0.00000696 Ry

     total magnetization       =     3.00 Bohr mag/cell
     absolute magnetization    =     3.04 Bohr mag/cell

     iteration # 51     ecut=   300.00 Ry     beta= 0.70
     Davidson diagonalization with overlap
     ethr =  1.10E-08,  avg # of iterations =  2.0

     total cpu time spent up to now is      239.6 secs

     total energy              =    -209.11491909 Ry
     Harris-Foulkes estimate   =    -209.11492056 Ry
     estimated scf accuracy    <       0.00000505 Ry

     total magnetization       =     3.00 Bohr mag/cell
     absolute magnetization    =     3.04 Bohr mag/cell

     iteration # 52     ecut=   300.00 Ry     beta= 0.70
     Davidson diagonalization with overlap
     ethr =  1.10E-08,  avg # of iterations =  1.5

     total cpu time spent up to now is      243.9 secs

     total energy              =    -209.11491626 Ry
     Harris-Foulkes estimate   =    -209.11492024 Ry
     estimated scf accuracy    <       0.00000470 Ry

     total magnetization       =     3.00 Bohr mag/cell
     absolute magnetization    =     3.04 Bohr mag/cell

     iteration # 53     ecut=   300.00 Ry     beta= 0.70
     Davidson diagonalization with overlap
     ethr =  1.10E-08,  avg # of iterations =  3.0

     total cpu time spent up to now is      248.7 secs

     total energy              =    -209.11491816 Ry
     Harris-Foulkes estimate   =    -209.11491964 Ry
     estimated scf accuracy    <       0.00000141 Ry

     total magnetization       =     3.00 Bohr mag/cell
     absolute magnetization    =     3.04 Bohr mag/cell

     iteration # 54     ecut=   300.00 Ry     beta= 0.70
     Davidson diagonalization with overlap
     ethr =  8.28E-09,  avg # of iterations =  2.0
 
     Magnetic moment per site:
     atom:    1    charge:   16.9998    magn:    3.0001    constr:    0.0000

     total cpu time spent up to now is      252.8 secs

     End of self-consistent calculation

 ------ SPIN UP ------------


          k = 0.0000 0.0000 0.0000 (511759 PWs)   bands (ev):

   -97.3971 -54.9228 -54.7129 -54.4572  -7.8847  -7.4786  -7.4111  -6.8138
    -6.6804  -6.0647  -1.2072  -1.0998

     occupation numbers 
     1.0000   1.0000   1.0000   1.0000   1.0000   1.0000   1.0000   1.0000
     1.0000   1.0000   0.0000   0.0000

 ------ SPIN DOWN ----------


          k = 0.0000 0.0000 0.0000 (511759 PWs)   bands (ev):

   -95.9054 -52.9815 -52.9769 -52.7203  -5.8406  -5.6086  -5.1869  -4.9625
    -4.9523  -4.8975  -0.6398  -0.6136

     occupation numbers 
     1.0000   1.0000   1.0000   1.0000   1.0000   1.0000   1.0000   0.0000
     0.0000   0.0000   0.0000   0.0000

     highest occupied, lowest unoccupied level (ev):    -5.1869   -4.9625

!    total energy              =    -209.11491958 Ry
     Harris-Foulkes estimate   =    -209.11491955 Ry
     estimated scf accuracy    <       0.00000009 Ry

     The total energy is the sum of the following terms:

     one-electron contribution =    -288.94609909 Ry
     hartree contribution      =     136.98408905 Ry
     xc contribution           =     -20.99339426 Ry
     ewald contribution        =     -36.15951528 Ry

     total magnetization       =     3.00 Bohr mag/cell
     absolute magnetization    =     3.04 Bohr mag/cell

     convergence has been achieved in  54 iterations

     Writing output data file pwscf.save/
 
     init_run     :      4.81s CPU      5.13s WALL (       1 calls)
     electrons    :    243.74s CPU    247.93s WALL (       1 calls)

     Called by init_run:
     wfcinit      :      1.06s CPU      1.15s WALL (       1 calls)
     wfcinit:atom :      0.02s CPU      0.03s WALL (       2 calls)
     wfcinit:wfcr :      1.00s CPU      1.07s WALL (       2 calls)
     potinit      :      1.32s CPU      1.40s WALL (       1 calls)
     hinit0       :      0.16s CPU      0.27s WALL (       1 calls)

     Called by electrons:
     c_bands      :    113.72s CPU    115.50s WALL (      54 calls)
     sum_band     :     40.42s CPU     40.65s WALL (      54 calls)
     v_of_rho     :     63.26s CPU     65.11s WALL (      55 calls)
     v_h          :      4.85s CPU      4.86s WALL (      55 calls)
     v_xc         :     58.41s CPU     60.25s WALL (      55 calls)
     mix_rho      :     25.23s CPU     25.42s WALL (      54 calls)

     Called by c_bands:
     init_us_2    :      1.35s CPU      1.38s WALL (     218 calls)
     regterg      :    110.93s CPU    112.65s WALL (     108 calls)

     Called by sum_band:

     Called by *egterg:
     h_psi        :    102.64s CPU    102.97s WALL (     392 calls)
     g_psi        :      0.33s CPU      0.33s WALL (     282 calls)
     rdiaghg      :      0.39s CPU      0.42s WALL (     390 calls)
     regterg:over :      2.09s CPU      2.11s WALL (     282 calls)
     regterg:upda :      3.33s CPU      3.37s WALL (     282 calls)
     regterg:last :      1.27s CPU      1.27s WALL (     118 calls)
     rdiaghg:chol :      0.06s CPU      0.06s WALL (     390 calls)
     rdiaghg:inve :      0.01s CPU      0.01s WALL (     390 calls)
     rdiaghg:para :      0.04s CPU      0.04s WALL (     780 calls)

     Called by h_psi:
     h_psi:pot    :    101.93s CPU    102.25s WALL (     392 calls)
     h_psi:calbec :      0.78s CPU      0.80s WALL (     392 calls)
     vloc_psi     :    100.22s CPU    100.51s WALL (     392 calls)
     add_vuspsi   :      0.92s CPU      0.93s WALL (     392 calls)

     General routines
     calbec       :      0.78s CPU      0.80s WALL (     392 calls)
     fft          :     55.50s CPU     55.96s WALL (     821 calls)
     ffts         :      5.97s CPU      5.99s WALL (     108 calls)
     fftw         :     97.63s CPU     98.00s WALL (    4040 calls)
 
     Parallel routines
     fft_scatt_xy :     31.25s CPU     31.32s WALL (    4969 calls)
     fft_scatt_yz :     56.37s CPU     56.85s WALL (    4969 calls)
 
     PWSCF        :   4m 8.87s CPU   4m14.10s WALL

 
   This run was terminated on:  13:50:52  17Jan2022            

=------------------------------------------------------------------------------=
   JOB DONE.
=------------------------------------------------------------------------------=
