<?xml version="1.0"?>
<molpro xmlns="http://www.molpro.net/schema/molpro-output"
  xmlns:xsd="http://www.w3.org/1999/XMLSchema"
  xmlns:cml="http://www.xml-cml.org/schema"
  xmlns:stm="http://www.xml-cml.org/schema"
  xmlns:xhtml="http://www.w3.org/1999/xhtml">
 <!--

 Nodes     nprocs
 nid01142    15
 Number of processes for MPI-2 version of Molpro:   nprocs(total)=   16   nprocs(compute)=   15   nprocs(helper)=    1

 Using customized tuning parameters: mindgm=7; mindgv=16; mindgc=1; mindgr=1; noblas=0; minvec=7
 default implementation of scratch files=sf

 --><job>
  <!--

 Variables initialized (889), CPU time= 3.24 sec
 Commands  initialized (702), CPU time= 0.01 sec, 572 directives.
 Default parameters read. Elapsed time= 0.21 sec

 Checking input...
 Passed
1


                                         ***  PROGRAM SYSTEM MOLPRO  ***
                                       Copyright, TTI GmbH Stuttgart, 2015
                                    Version 2015.1 linked Dec 29 2018 15:55:43


 **********************************************************************************************************************************
 LABEL *   Ir
  64 bit mpp version                                                                     DATE: 26-Dec-21          TIME: 18:06:01
 **********************************************************************************************************************************

 SHA1:             19cd028119e0e09f93f0674bd8af7968d9b3eff6
 **********************************************************************************************************************************
  -->
  <!--

 THRESHOLDS:

 ZERO    =  1.00D-12  ONEINT  =  1.00D-12  TWOINT  =  1.00D-12  PREFAC  =  1.00D-14  LOCALI  =  1.00D-09  EORDER  =  1.00D-04
 ENERGY  =  0.00D+00  ETEST   =  0.00D+00  EDENS   =  0.00D+00  THRDEDEF=  1.00D-06  GRADIENT=  1.00D-02  STEP    =  1.00D-03
 ORBITAL =  1.00D-05  CIVEC   =  1.00D-05  COEFF   =  1.00D-04  PRINTCI =  5.00D-02  PUNCHCI =  9.90D+01  OPTGRAD =  3.00D-04
 OPTENERG=  1.00D-06  OPTSTEP =  3.00D-04  THRGRAD =  1.00D-10  COMPRESS=  1.00D-11  VARMIN  =  1.00D-07  VARMAX  =  1.00D-03
 THRDOUB =  0.00D+00  THRDIV  =  1.00D-05  THRRED  =  1.00D-07  THRPSP  =  1.00D+00  THRDC   =  1.00D-10  THRCS   =  1.00D-10
 THRNRM  =  1.00D-08  THREQ   =  0.00D+00  THRDE   =  1.00D+00  THRREF  =  1.00D-05  SPARFAC =  1.00D+00  THRDLP  =  1.00D-07
 THRDIA  =  1.00D-10  THRDLS  =  1.00D-07  THRGPS  =  0.00D+00  THRKEX  =  0.00D+00  THRDIS  =  2.00D-01  THRVAR  =  1.00D-10
 THRLOC  =  1.00D-06  THRGAP  =  1.00D-06  THRLOCT = -1.00D+00  THRGAPT = -1.00D+00  THRORB  =  1.00D-06  THRMLTP =  0.00D+00
 THRCPQCI=  1.00D-10  KEXTA   =  0.00D+00  THRCOARS=  0.00D+00  SYMTOL  =  1.00D-06  GRADTOL =  1.00D-06  THROVL  =  1.00D-08
 THRORTH =  1.00D-08  GRID    =  1.00D-06  GRIDMAX =  1.00D-03  DTMAX   =  0.00D+00  THROCCDE=  1.00D-01  THROCCDE=  1.00D-01



 ZUNIT=ANG


Geometry recognized as XYZ

 SETTING S_PAR(1)       =         1.06140000
 SETTING S_PAR(2)       =         0.66400000
 SETTING P_PAR(1)       =         2.37210000
 SETTING P_PAR(2)       =         1.48350000
 SETTING D_PAR(1)       =         3.28090000
 SETTING D_PAR(2)       =         1.28120000
 SETTING F_PAR          =         2.14580000
 SETTING G_PAR          =         2.62980000
 SETTING H_PAR          =         1.03300000

 Variable memory set to  512000000 words,  buffer space   230000 words

  --><jobstep command="MINIMIZE" commandset="MINIMIZE">
   <!--


 PROGRAM * MINIMIZE (General minimization)     Authors: H.-J. Werner, P.J. Knowles, K.A. Peterson

 Minimize EVAL with respect to:        S_PAR(1)  S_PAR(2)  P_PAR(1)  P_PAR(2)  D_PAR(1)
                                       D_PAR(2)  F_PAR(1)  G_PAR(1)  H_PAR(1)
 Method BFGS will be used
 Variables are optimized in the space of (x/x0)


 Minimization using procedure=OPT_BASIS

 Running procedure=OPT_BASIS
 SETTING BASIS          =    USERDEF
   --><jobstep command="RHF-SCF" commandset="SCFPRO">
    <!--


 Current variables in basis input:

 Set= 1  S_PAR(1)            =       1.06140000
 Set= 1  S_PAR(2)            =       0.66400000
 Set= 1  P_PAR(1)            =       2.37210000
 Set= 1  P_PAR(2)            =       1.48350000
 Set= 1  D_PAR(1)            =       3.28090000
 Set= 1  D_PAR(2)            =       1.28120000
 Set= 1  F_PAR(1)            =       2.14580000
 Set= 1  G_PAR(1)            =       2.62980000
 Set= 1  H_PAR(1)            =       1.03300000

 Recomputing integrals since basis changed


 Using spherical harmonics



 PROGRAM * SEWARD (Integral evaluation for generally contracted gaussian basis sets)     Author: Roland Lindh, 1990

 Geometry written to block  1 of record 700

 Orientation using atomic masses
 Molecule type: Atom
 Symmetry elements: X,Y,Z
 Rotational constants:       0.0000000      0.0000000      0.0000000 GHz  (calculated with average atomic masses)

 Point group  D2h


    --><cml:molecule>
     <cml:symmetry pointGroup="D2h"/>
     <cml:atomArray>
      <cml:atom id="a1" elementType="Ir" x3="0.0" y3="0.0" z3="0.0"/>
     </cml:atomArray>
     <cml:bondArray>
     </cml:bondArray>
    </cml:molecule><!--

 ATOMIC COORDINATES

 NR  ATOM    CHARGE       X              Y              Z

   1  IR     17.00    0.000000000    0.000000000    0.000000000


          IR  CORE POTENTIAL

          g POTENTIAL

 POWERS             1              3              2              2
 EXPONENTIALS   12.17107       12.17014       5.602984       12.32034
 COEFFICIENTS   17.00000       206.9082      -23.15704      -143.2084

          s - g POTENTIAL

 POWERS             2              2
 EXPONENTIALS   6.284095       13.82629
 COEFFICIENTS   76.59951       438.8739

          p - g POTENTIAL

 POWERS             2              2
 EXPONENTIALS   5.346383       11.26419
 COEFFICIENTS   61.99194       262.7501

          d - g POTENTIAL

 POWERS             2              2
 EXPONENTIALS   4.766746       6.815210
 COEFFICIENTS   31.12365       123.9560

          f - g POTENTIAL

 POWERS             2              2
 EXPONENTIALS   2.786350       2.592946
 COEFFICIENTS   10.32928       11.88570


 BASIS DATA

   Nr Sym  Nuc  Type         Exponents   Contraction coefficients

    1.1 Ag    1  1s          81.883746    -0.000456    0.000109   -0.000038   -0.000756   -0.003820    0.000000
    2.1 Ag                   43.142946     0.007251   -0.002172    0.002972   -0.000013    0.015926    0.000000
    3.1 Ag                   22.731175    -0.076134    0.025226   -0.041889    0.049100    0.005889    0.000000
    4.1 Ag                   11.976612     0.392307   -0.137486    0.239038   -0.332761   -0.251139    0.000000
    5.1 Ag                    6.310243    -0.599162    0.226746   -0.395296    0.539193    0.184992    0.000000
    6.1 Ag                    3.324744    -0.476593    0.170008   -0.372238    0.945657    2.957254    0.000000
                              1.751742     0.610563   -0.264851    0.603962   -2.114954   -8.035766    0.000000
                              0.922959     0.693017   -0.402410    1.150634   -1.624113    6.505590    0.000000
                              0.486289     0.225546   -0.187447   -0.303613    4.484057    2.204108    0.000000
                              0.256216     0.005951    0.125771   -1.551674   -0.833538   -7.965627    0.000000
                              0.134995     0.006730    0.448621   -0.332414   -2.217561    4.807799    0.000000
                              0.071126    -0.002486    0.434740    0.662273    0.031899    0.979514    0.000000
                              0.037475     0.000625    0.243405    0.641326    1.202180   -1.704016    1.000000
    7.1 Ag    1  1s           1.061400     1.000000
    8.1 Ag    1  1s           0.664000     1.000000
    9.1 Ag    1  3d0         69.582346     0.000025
                             36.601738    -0.000064
                             19.253263    -0.000576
                             10.127610     0.015407
                              5.327330    -0.090881
                              2.802285     0.051156
                              1.474059     0.271027
                              0.775385     0.351688
                              0.407869     0.302463
                              0.214547     0.179813
                              0.112856     0.070886
                              0.059365     0.010937
                              0.031227     0.000567
   10.1 Ag    1  3d2+        69.582346     0.000025
                             36.601738    -0.000064
                             19.253263    -0.000576
                             10.127610     0.015407
                              5.327330    -0.090881
                              2.802285     0.051156
                              1.474059     0.271027
                              0.775385     0.351688
                              0.407869     0.302463
                              0.214547     0.179813
                              0.112856     0.070886
                              0.059365     0.010937
                              0.031227     0.000567
   11.1 Ag    1  3d0         69.582346    -0.000072
                             36.601738     0.000277
                             19.253263     0.000052
                             10.127610    -0.017626
                              5.327330     0.115701
                              2.802285    -0.072020
                              1.474059    -0.456700
                              0.775385    -0.416372
                              0.407869     0.235209
                              0.214547     0.527234
                              0.112856     0.277586
                              0.059365     0.049772
                              0.031227     0.001660
   12.1 Ag    1  3d2+        69.582346    -0.000072
                             36.601738     0.000277
                             19.253263     0.000052
                             10.127610    -0.017626
                              5.327330     0.115701
                              2.802285    -0.072020
                              1.474059    -0.456700
                              0.775385    -0.416372
                              0.407869     0.235209
                              0.214547     0.527234
                              0.112856     0.277586
                              0.059365     0.049772
                              0.031227     0.001660
   13.1 Ag    1  3d0         69.582346    -0.000104
                             36.601738     0.000414
                             19.253263    -0.000097
                             10.127610    -0.024748
                              5.327330     0.175276
                              2.802285    -0.137390
                              1.474059    -0.970951
                              0.775385     0.304447
                              0.407869     1.178125
                              0.214547    -0.387716
                              0.112856    -0.551097
                              0.059365    -0.152582
                              0.031227    -0.003177
   14.1 Ag    1  3d2+        69.582346    -0.000104
                             36.601738     0.000414
                             19.253263    -0.000097
                             10.127610    -0.024748
                              5.327330     0.175276
                              2.802285    -0.137390
                              1.474059    -0.970951
                              0.775385     0.304447
                              0.407869     1.178125
                              0.214547    -0.387716
                              0.112856    -0.551097
                              0.059365    -0.152582
                              0.031227    -0.003177
   15.1 Ag    1  3d0         69.582346     0.001660
                             36.601738    -0.007501
                             19.253263     0.023466
                             10.127610    -0.099653
                              5.327330     0.449329
                              2.802285    -0.699925
                              1.474059    -1.281520
                              0.775385     2.836972
                              0.407869    -1.450206
                              0.214547    -0.794421
                              0.112856     0.849320
                              0.059365     0.197209
                              0.031227     0.027497
   16.1 Ag    1  3d2+        69.582346     0.001660
                             36.601738    -0.007501
                             19.253263     0.023466
                             10.127610    -0.099653
                              5.327330     0.449329
                              2.802285    -0.699925
                              1.474059    -1.281520
                              0.775385     2.836972
                              0.407869    -1.450206
                              0.214547    -0.794421
                              0.112856     0.849320
                              0.059365     0.197209
                              0.031227     0.027497
   17.1 Ag    1  3d0         69.582346     0.000000
                             36.601738     0.000000
                             19.253263     0.000000
                             10.127610     0.000000
                              5.327330     0.000000
                              2.802285     0.000000
                              1.474059     0.000000
                              0.775385     0.000000
                              0.407869     0.000000
                              0.214547     0.000000
                              0.112856     0.000000
                              0.059365     0.000000
                              0.031227     1.000000
   18.1 Ag    1  3d2+        69.582346     0.000000
                             36.601738     0.000000
                             19.253263     0.000000
                             10.127610     0.000000
                              5.327330     0.000000
                              2.802285     0.000000
                              1.474059     0.000000
                              0.775385     0.000000
                              0.407869     0.000000
                              0.214547     0.000000
                              0.112856     0.000000
                              0.059365     0.000000
                              0.031227     1.000000
   19.1 Ag    1  3d0          3.280900     1.000000
   20.1 Ag    1  3d2+         3.280900     1.000000
   21.1 Ag    1  3d0          1.281200     1.000000
   22.1 Ag    1  3d2+         1.281200     1.000000
   23.1 Ag    1  5g0          1.523147     1.000000
   24.1 Ag    1  5g4+         1.523147     1.000000
   25.1 Ag    1  5g2+         1.523147     1.000000
   26.1 Ag    1  5g0          0.540489     1.000000
   27.1 Ag    1  5g4+         0.540489     1.000000
   28.1 Ag    1  5g2+         0.540489     1.000000
   29.1 Ag    1  5g0          2.629800     1.000000
   30.1 Ag    1  5g4+         2.629800     1.000000
   31.1 Ag    1  5g2+         2.629800     1.000000
    1.2 B3u   1  2px         80.754753     0.000049   -0.000042   -0.000262   -0.000919    0.005003    0.000000
    2.2 B3u                  42.532608     0.000099    0.000069    0.001072    0.004133   -0.024522    0.000000
    3.2 B3u                  22.401440    -0.007030    0.002710    0.001640   -0.004852    0.084013    0.000000
    4.2 B3u                  11.798583     0.078305   -0.034573   -0.052183   -0.062416   -0.323011    0.000000
    5.2 B3u                   6.214179    -0.246821    0.116184    0.184751    0.233816    0.910711    0.000000
    6.2 B3u                   3.272938    -0.082812    0.029428    0.120530    0.504950   -0.216282    0.000000
                              1.723819     0.447701   -0.224637   -0.585460   -2.361455   -4.134169    0.000000
                              0.907916     0.490763   -0.332112   -0.820919    1.046508    7.917912    0.000000
                              0.478189     0.232088   -0.112114    1.053718    2.478962   -6.766593    0.000000
                              0.251857     0.035712    0.425856    0.983090   -2.753523    2.059146    0.000000
                              0.132650     0.008228    0.545958   -0.660728    0.089947    1.384287    0.000000
                              0.069865    -0.000973    0.215607   -0.554789    0.766243   -1.115396    0.000000
                              0.036797     0.000521    0.018735   -0.065086    0.156345   -0.156129    1.000000
    7.2 B3u   1  2px          2.372100     1.000000
    8.2 B3u   1  2px          1.483500     1.000000
    9.2 B3u   1  4f1+         1.577106     1.000000
   10.2 B3u   1  4f3+         1.577106     1.000000
   11.2 B3u   1  4f1+         0.656915     1.000000
   12.2 B3u   1  4f3+         0.656915     1.000000
   13.2 B3u   1  4f1+         0.273626     1.000000
   14.2 B3u   1  4f3+         0.273626     1.000000
   15.2 B3u   1  4f1+         2.145800     1.000000
   16.2 B3u   1  4f3+         2.145800     1.000000
   17.2 B3u   1  6h1+         1.020070     1.000000
   18.2 B3u   1  6h3+         1.020070     1.000000
   19.2 B3u   1  6h5+         1.020070     1.000000
   20.2 B3u   1  6h1+         1.033000     1.000000
   21.2 B3u   1  6h3+         1.033000     1.000000
   22.2 B3u   1  6h5+         1.033000     1.000000
    1.3 B2u   1  2py         80.754753     0.000049   -0.000042   -0.000262   -0.000919    0.005003    0.000000
    2.3 B2u                  42.532608     0.000099    0.000069    0.001072    0.004133   -0.024522    0.000000
    3.3 B2u                  22.401440    -0.007030    0.002710    0.001640   -0.004852    0.084013    0.000000
    4.3 B2u                  11.798583     0.078305   -0.034573   -0.052183   -0.062416   -0.323011    0.000000
    5.3 B2u                   6.214179    -0.246821    0.116184    0.184751    0.233816    0.910711    0.000000
    6.3 B2u                   3.272938    -0.082812    0.029428    0.120530    0.504950   -0.216282    0.000000
                              1.723819     0.447701   -0.224637   -0.585460   -2.361455   -4.134169    0.000000
                              0.907916     0.490763   -0.332112   -0.820919    1.046508    7.917912    0.000000
                              0.478189     0.232088   -0.112114    1.053718    2.478962   -6.766593    0.000000
                              0.251857     0.035712    0.425856    0.983090   -2.753523    2.059146    0.000000
                              0.132650     0.008228    0.545958   -0.660728    0.089947    1.384287    0.000000
                              0.069865    -0.000973    0.215607   -0.554789    0.766243   -1.115396    0.000000
                              0.036797     0.000521    0.018735   -0.065086    0.156345   -0.156129    1.000000
    7.3 B2u   1  2py          2.372100     1.000000
    8.3 B2u   1  2py          1.483500     1.000000
    9.3 B2u   1  4f1-         1.577106     1.000000
   10.3 B2u   1  4f3-         1.577106     1.000000
   11.3 B2u   1  4f1-         0.656915     1.000000
   12.3 B2u   1  4f3-         0.656915     1.000000
   13.3 B2u   1  4f1-         0.273626     1.000000
   14.3 B2u   1  4f3-         0.273626     1.000000
   15.3 B2u   1  4f1-         2.145800     1.000000
   16.3 B2u   1  4f3-         2.145800     1.000000
   17.3 B2u   1  6h1-         1.020070     1.000000
   18.3 B2u   1  6h3-         1.020070     1.000000
   19.3 B2u   1  6h5-         1.020070     1.000000
   20.3 B2u   1  6h1-         1.033000     1.000000
   21.3 B2u   1  6h3-         1.033000     1.000000
   22.3 B2u   1  6h5-         1.033000     1.000000
    1.4 B1g   1  3d2-        69.582346     0.000025   -0.000072   -0.000104    0.001660    0.000000
    2.4 B1g                  36.601738    -0.000064    0.000277    0.000414   -0.007501    0.000000
    3.4 B1g                  19.253263    -0.000576    0.000052   -0.000097    0.023466    0.000000
    4.4 B1g                  10.127610     0.015407   -0.017626   -0.024748   -0.099653    0.000000
    5.4 B1g                   5.327330    -0.090881    0.115701    0.175276    0.449329    0.000000
                              2.802285     0.051156   -0.072020   -0.137390   -0.699925    0.000000
                              1.474059     0.271027   -0.456700   -0.970951   -1.281520    0.000000
                              0.775385     0.351688   -0.416372    0.304447    2.836972    0.000000
                              0.407869     0.302463    0.235209    1.178125   -1.450206    0.000000
                              0.214547     0.179813    0.527234   -0.387716   -0.794421    0.000000
                              0.112856     0.070886    0.277586   -0.551097    0.849320    0.000000
                              0.059365     0.010937    0.049772   -0.152582    0.197209    0.000000
                              0.031227     0.000567    0.001660   -0.003177    0.027497    1.000000
    6.4 B1g   1  3d2-         3.280900     1.000000
    7.4 B1g   1  3d2-         1.281200     1.000000
    8.4 B1g   1  5g2-         1.523147     1.000000
    9.4 B1g   1  5g4-         1.523147     1.000000
   10.4 B1g   1  5g2-         0.540489     1.000000
   11.4 B1g   1  5g4-         0.540489     1.000000
   12.4 B1g   1  5g2-         2.629800     1.000000
   13.4 B1g   1  5g4-         2.629800     1.000000
    1.5 B1u   1  2pz         80.754753     0.000049   -0.000042   -0.000262   -0.000919    0.005003    0.000000
    2.5 B1u                  42.532608     0.000099    0.000069    0.001072    0.004133   -0.024522    0.000000
    3.5 B1u                  22.401440    -0.007030    0.002710    0.001640   -0.004852    0.084013    0.000000
    4.5 B1u                  11.798583     0.078305   -0.034573   -0.052183   -0.062416   -0.323011    0.000000
    5.5 B1u                   6.214179    -0.246821    0.116184    0.184751    0.233816    0.910711    0.000000
    6.5 B1u                   3.272938    -0.082812    0.029428    0.120530    0.504950   -0.216282    0.000000
                              1.723819     0.447701   -0.224637   -0.585460   -2.361455   -4.134169    0.000000
                              0.907916     0.490763   -0.332112   -0.820919    1.046508    7.917912    0.000000
                              0.478189     0.232088   -0.112114    1.053718    2.478962   -6.766593    0.000000
                              0.251857     0.035712    0.425856    0.983090   -2.753523    2.059146    0.000000
                              0.132650     0.008228    0.545958   -0.660728    0.089947    1.384287    0.000000
                              0.069865    -0.000973    0.215607   -0.554789    0.766243   -1.115396    0.000000
                              0.036797     0.000521    0.018735   -0.065086    0.156345   -0.156129    1.000000
    7.5 B1u   1  2pz          2.372100     1.000000
    8.5 B1u   1  2pz          1.483500     1.000000
    9.5 B1u   1  4f0          1.577106     1.000000
   10.5 B1u   1  4f2+         1.577106     1.000000
   11.5 B1u   1  4f0          0.656915     1.000000
   12.5 B1u   1  4f2+         0.656915     1.000000
   13.5 B1u   1  4f0          0.273626     1.000000
   14.5 B1u   1  4f2+         0.273626     1.000000
   15.5 B1u   1  4f0          2.145800     1.000000
   16.5 B1u   1  4f2+         2.145800     1.000000
   17.5 B1u   1  6h2+         1.020070     1.000000
   18.5 B1u   1  6h4+         1.020070     1.000000
   19.5 B1u   1  6h0          1.020070     1.000000
   20.5 B1u   1  6h2+         1.033000     1.000000
   21.5 B1u   1  6h4+         1.033000     1.000000
   22.5 B1u   1  6h0          1.033000     1.000000
    1.6 B2g   1  3d1+        69.582346     0.000025   -0.000072   -0.000104    0.001660    0.000000
    2.6 B2g                  36.601738    -0.000064    0.000277    0.000414   -0.007501    0.000000
    3.6 B2g                  19.253263    -0.000576    0.000052   -0.000097    0.023466    0.000000
    4.6 B2g                  10.127610     0.015407   -0.017626   -0.024748   -0.099653    0.000000
    5.6 B2g                   5.327330    -0.090881    0.115701    0.175276    0.449329    0.000000
                              2.802285     0.051156   -0.072020   -0.137390   -0.699925    0.000000
                              1.474059     0.271027   -0.456700   -0.970951   -1.281520    0.000000
                              0.775385     0.351688   -0.416372    0.304447    2.836972    0.000000
                              0.407869     0.302463    0.235209    1.178125   -1.450206    0.000000
                              0.214547     0.179813    0.527234   -0.387716   -0.794421    0.000000
                              0.112856     0.070886    0.277586   -0.551097    0.849320    0.000000
                              0.059365     0.010937    0.049772   -0.152582    0.197209    0.000000
                              0.031227     0.000567    0.001660   -0.003177    0.027497    1.000000
    6.6 B2g   1  3d1+         3.280900     1.000000
    7.6 B2g   1  3d1+         1.281200     1.000000
    8.6 B2g   1  5g1+         1.523147     1.000000
    9.6 B2g   1  5g3+         1.523147     1.000000
   10.6 B2g   1  5g1+         0.540489     1.000000
   11.6 B2g   1  5g3+         0.540489     1.000000
   12.6 B2g   1  5g1+         2.629800     1.000000
   13.6 B2g   1  5g3+         2.629800     1.000000
    1.7 B3g   1  3d1-        69.582346     0.000025   -0.000072   -0.000104    0.001660    0.000000
    2.7 B3g                  36.601738    -0.000064    0.000277    0.000414   -0.007501    0.000000
    3.7 B3g                  19.253263    -0.000576    0.000052   -0.000097    0.023466    0.000000
    4.7 B3g                  10.127610     0.015407   -0.017626   -0.024748   -0.099653    0.000000
    5.7 B3g                   5.327330    -0.090881    0.115701    0.175276    0.449329    0.000000
                              2.802285     0.051156   -0.072020   -0.137390   -0.699925    0.000000
                              1.474059     0.271027   -0.456700   -0.970951   -1.281520    0.000000
                              0.775385     0.351688   -0.416372    0.304447    2.836972    0.000000
                              0.407869     0.302463    0.235209    1.178125   -1.450206    0.000000
                              0.214547     0.179813    0.527234   -0.387716   -0.794421    0.000000
                              0.112856     0.070886    0.277586   -0.551097    0.849320    0.000000
                              0.059365     0.010937    0.049772   -0.152582    0.197209    0.000000
                              0.031227     0.000567    0.001660   -0.003177    0.027497    1.000000
    6.7 B3g   1  3d1-         3.280900     1.000000
    7.7 B3g   1  3d1-         1.281200     1.000000
    8.7 B3g   1  5g1-         1.523147     1.000000
    9.7 B3g   1  5g3-         1.523147     1.000000
   10.7 B3g   1  5g1-         0.540489     1.000000
   11.7 B3g   1  5g3-         0.540489     1.000000
   12.7 B3g   1  5g1-         2.629800     1.000000
   13.7 B3g   1  5g3-         2.629800     1.000000
    1.8 Au    1  4f2-         1.577106     1.000000
    2.8 Au    1  4f2-         0.656915     1.000000
    3.8 Au    1  4f2-         0.273626     1.000000
    4.8 Au    1  4f2-         2.145800     1.000000
    5.8 Au    1  6h4-         1.020070     1.000000
    6.8 Au    1  6h2-         1.020070     1.000000
    7.8 Au    1  6h4-         1.033000     1.000000
    8.8 Au    1  6h2-         1.033000     1.000000

 NUCLEAR CHARGE:                   17
 NUMBER OF PRIMITIVE AOS:         277
 NUMBER OF SYMMETRY AOS:          212
 NUMBER OF CONTRACTIONS:          144   (  31Ag  +  22B3u +  22B2u +  13B1g +  22B1u +  13B2g +  13B3g +   8Au  )
 NUMBER OF CORE ORBITALS:           4   (   1Ag  +   1B3u +   1B2u +   0B1g +   1B1u +   0B2g +   0B3g +   0Au  )
 NUMBER OF VALENCE ORBITALS:        6   (   3Ag  +   0B3u +   0B2u +   1B1g +   0B1u +   1B2g +   1B3g +   0Au  )


 NUCLEAR REPULSION ENERGY    0.00000000

 EXTRA SYMMETRY OF AOS IN SYMMETRY 1:   1 1 1 1 1 1 1 1 2 3   2 3 2 3 2 3 2 3 2 3   2 3 4 5 6 4 5 6 4 5   6
 EXTRA SYMMETRY OF AOS IN SYMMETRY 2:   1 1 1 1 1 1 1 1 2 3   2 3 2 3 2 3 4 5 6 4   5 6
 EXTRA SYMMETRY OF AOS IN SYMMETRY 3:   1 1 1 1 1 1 1 1 2 3   2 3 2 3 2 3 4 5 6 4   5 6
 EXTRA SYMMETRY OF AOS IN SYMMETRY 4:   1 1 1 1 1 1 1 2 3 2   3 2 3
 EXTRA SYMMETRY OF AOS IN SYMMETRY 5:   1 1 1 1 1 1 1 1 2 3   2 3 2 3 2 3 4 5 6 4   5 6
 EXTRA SYMMETRY OF AOS IN SYMMETRY 6:   1 1 1 1 1 1 1 2 3 2   3 2 3
 EXTRA SYMMETRY OF AOS IN SYMMETRY 7:   1 1 1 1 1 1 1 2 3 2   3 2 3
 EXTRA SYMMETRY OF AOS IN SYMMETRY 8:   1 1 1 1 2 3 2 3

 Eigenvalues of metric

         1 0.374E-04 0.907E-03 0.135E-02 0.135E-02 0.926E-01 0.128E+00 0.128E+00 0.128E+00
         2 0.129E-03 0.129E-03 0.129E-03 0.527E-03 0.200E-01 0.200E-01 0.568E-01 0.102E+00
         3 0.129E-03 0.129E-03 0.129E-03 0.527E-03 0.200E-01 0.200E-01 0.568E-01 0.102E+00
         4 0.135E-02 0.128E+00 0.128E+00 0.183E+00 0.380E+00 0.817E+00 0.817E+00 0.100E+01
         5 0.129E-03 0.129E-03 0.129E-03 0.527E-03 0.200E-01 0.200E-01 0.568E-01 0.102E+00
         6 0.135E-02 0.128E+00 0.128E+00 0.183E+00 0.380E+00 0.817E+00 0.817E+00 0.100E+01
         7 0.135E-02 0.128E+00 0.128E+00 0.183E+00 0.380E+00 0.817E+00 0.817E+00 0.100E+01
         8 0.129E-03 0.129E-03 0.200E-01 0.247E+00 0.113E+01 0.200E+01 0.200E+01 0.260E+01


 Contracted 2-electron integrals neglected if value below      1.0D-12
 AO integral compression algorithm  1   Integral accuracy      1.0D-12

     52.691 MB (compressed) written to integral file ( 57.1%)

     Node minimum: 1.835 MB, node maximum: 6.554 MB


 NUMBER OF SORTED TWO-ELECTRON INTEGRALS:     469189.     BUFFER LENGTH:  32768
 NUMBER OF SEGMENTS:   1  SEGMENT LENGTH:     469189      RECORD LENGTH: 524288

 Memory used in sort:       1.03 MW

 SORT1 READ    11599838. AND WROTE      325498. INTEGRALS IN      1 RECORDS. CPU TIME:     0.32 SEC, REAL TIME:     0.36 SEC
 SORT2 READ     4948094. AND WROTE     7063297. INTEGRALS IN    255 RECORDS. CPU TIME:     0.02 SEC, REAL TIME:     0.08 SEC

 Node minimum:      452710.  Node maximum:      487861. integrals

 OPERATOR DM      FOR CENTER  0  COORDINATES:    0.000000    0.000000    0.000000


 **********************************************************************************************************************************
 DATASETS  * FILE   NREC   LENGTH (MB)   RECORD NAMES
              1      19       20.06       500      610      700      900      950      970     1000      129      960     1100
                                          VAR    BASINP    GEOM    SYMINP    ZMAT    AOBASIS   BASIS     P2S    ABASIS      S
                                         1400     1410     1420     1200     1210     1080     1600     1650     1700
                                           T        V       ECP      H0       H01     AOSYM     SMH    MOLCAS    OPER

 PROGRAMS   *        TOTAL       INT
 CPU TIMES  *         6.08      1.89
 REAL TIME  *         6.85 SEC
 DISK USED  *        99.03 MB
 GA USED    *         0.00 MB       (max)       0.00 MB       (current)
 **********************************************************************************************************************************


 PROGRAM * RHF-SCF (OPEN SHELL)       Authors: W. Meyer, H.-J. Werner


 NUMBER OF ELECTRONS:      10+    7-    SPACE SYMMETRY=1    SPIN SYMMETRY: Quartet
 CONVERGENCE THRESHOLDS:    1.00E-05 (Density)    1.00E-07 (Energy)
 MAX. NUMBER OF ITERATIONS:       60
 INTERPOLATION TYPE:            DIIS
 INTERPOLATION STEPS:              2 (START)      1 (STEP)
 LEVEL SHIFTS:                 -0.60 (CLOSED) -0.30 (OPEN)

 Number of closed-shell orbitals:    7 (   4   1   1   0   1   0   0   0 )
 Number of open-shell orbitals:      3 (   0   0   0   1   0   1   1   0 )



 Extra symmetries of mos in symmetry 1:   1   1   3   2

   Atom=IR basis=cc-pVTZ-PP        lmin=0  lmax=2

 Orbital guess generated from atomic densities. Full valence occupancy:    4   1   1   1   1   1   1   0


 Molecular orbital dump at record        4202.2

 ITERATION    DDIFF          GRAD             ENERGY        2-EL.EN.            DIPOLE MOMENTS         DIIS   ORB.
    1      0.000D+00      0.000D+00      -103.66124029    153.051048    0.00000    0.00000    0.00000    0    start
    2      0.000D+00      0.586D-02      -103.66648213    152.966651    0.00000    0.00000    0.00000    1    diag,B
    3      0.310D-02      0.155D-02      -103.66748667    153.062985    0.00000    0.00000    0.00000    2    diag,B
    4      0.109D-02      0.563D-03      -103.66768680    153.033038    0.00000    0.00000    0.00000    3    diag,B
    5      0.506D-03      0.276D-03      -103.66776636    153.004703    0.00000    0.00000    0.00000    4    diag,B
    6      0.479D-03      0.114D-03      -103.66778238    152.980148    0.00000    0.00000    0.00000    5    diag,B
    7      0.120D-02      0.458D-04      -103.66778500    152.971026    0.00000    0.00000    0.00000    6    fixocc
    8      0.121D-02      0.125D-04      -103.66778515    152.969510    0.00000    0.00000    0.00000    7    diag,B
    9      0.445D-03      0.181D-05      -103.66778515    152.969582    0.00000    0.00000    0.00000    8    diag,B
   10      0.401D-04      0.427D-06      -103.66778515    152.969563    0.00000    0.00000    0.00000    9    orth
   11      0.449D-05      0.157D-06      -103.66778515    152.969556    0.00000    0.00000    0.00000    0    orth

 Final alpha occupancy:   4   1   1   1   1   1   1   0
 Final beta  occupancy:   4   1   1   0   1   0   0   0

 !RHF STATE 1.1 Energy               -103.667785150615
    --><property name="Energy" method="RHF" principal="true" stateSymmetry="1" stateNumber="1"
      value="-103.667785150615"/><!--
 Nuclear energy                         0.00000000
 One-electron energy                 -180.15256301
 Two-electron energy                   76.48477786
 Virial quotient                       -2.97326295
 !RHF STATE 1.1 Dipole moment           0.00000000     0.00000000     0.00000000
 Dipole moment /Debye                   0.00000000     0.00000000     0.00000000
    --><property name="Dipole moment" method="RHF" principal="true" stateSymmetry="1"
      stateNumber="1" value="0.0 0.0 0.0"/><!--

 ELECTRON ORBITALS
 =================


   Orb  Occ    Energy  Couls-En    Coefficients

                                   1 1s      1 1s      1 1s      1 1s      1 1s      1 1s      1 1s      1 1s      1 3d0     1 3d2+
                                   1 3d0     1 3d2+    1 3d0     1 3d2+    1 3d0     1 3d2+    1 3d0     1 3d2+    1 3d0     1 3d2+
                                   1 3d0     1 3d2+    1 5g0     1 5g4+    1 5g2+    1 5g0     1 5g4+    1 5g2+    1 5g0     1 5g4+
                                   1 5g2+

   1.1   2    -4.2242  -18.8541  0.998991 -0.000457  0.000293 -0.000305 -0.000060  0.000205 -0.002261  0.003116 -0.000000  0.000000
                                 0.000000 -0.000000  0.000000 -0.000000 -0.000000  0.000000 -0.000000 -0.000000 -0.000000  0.000000
                                 0.000000 -0.000000  0.000584  0.000493 -0.000000  0.000927  0.000784 -0.000000 -0.000142 -0.000120
                                 0.000000

   2.1   2    -0.2965   -6.2566  0.000445  0.999332  0.000135  0.000224  0.000057  0.001032  0.001558 -0.002290 -0.000000 -0.000000
                                 0.000000  0.000000  0.000000  0.000000 -0.000000 -0.000000 -0.000000  0.000000 -0.000000 -0.000000
                                 0.000000  0.000000  0.000558  0.000472  0.000000  0.000116  0.000098 -0.000000  0.000214  0.000181
                                -0.000000

   3.1   2    -0.4587   -9.5405 -0.000000 -0.000000 -0.000000 -0.000000  0.000000  0.000000  0.000000 -0.000000  0.034499  1.002000
                                 0.000276  0.008011 -0.000150 -0.004368  0.000019  0.000542  0.000029  0.000847  0.000024  0.000706
                                -0.000130 -0.003776  0.000003 -0.000004 -0.000150  0.000026 -0.000031 -0.001186  0.000006 -0.000007
                                -0.000263

   4.1   2    -0.4587   -9.5405 -0.000000 -0.000000 -0.000000 -0.000000  0.000000  0.000000  0.000000 -0.000000  1.002000 -0.034499
                                 0.008011 -0.000276 -0.004368  0.000150  0.000542 -0.000019  0.000847 -0.000029  0.000706 -0.000024
                                -0.003776  0.000130  0.000097 -0.000115  0.000005  0.000766 -0.000906  0.000041  0.000170 -0.000201
                                 0.000009

                                   1 2px     1 2px     1 2px     1 2px     1 2px     1 2px     1 2px     1 2px     1 4f1+    1 4f3+
                                   1 4f1+    1 4f3+    1 4f1+    1 4f3+    1 4f1+    1 4f3+    1 6h1+    1 6h3+    1 6h5+    1 6h1+
                                   1 6h3+    1 6h5+

   1.2   2    -2.4549  -14.9757  1.001418 -0.000278  0.000033 -0.000059  0.000233  0.000243  0.001709 -0.002996 -0.001458  0.001883
                                -0.003189  0.004117 -0.001294  0.001670 -0.000346  0.000446  0.017194 -0.002795  0.017861 -0.017394
                                 0.002799 -0.018056

                                   1 2py     1 2py     1 2py     1 2py     1 2py     1 2py     1 2py     1 2py     1 4f1-    1 4f3-
                                   1 4f1-    1 4f3-    1 4f1-    1 4f3-    1 4f1-    1 4f3-    1 6h1-    1 6h3-    1 6h5-    1 6h1-
                                   1 6h3-    1 6h5-

   1.3   2    -2.4549  -14.9757  1.001418 -0.000278  0.000033 -0.000059  0.000233  0.000243  0.001709 -0.002996 -0.001458 -0.001883
                                -0.003189 -0.004117 -0.001294 -0.001670 -0.000346 -0.000446  0.017194  0.002795  0.017861 -0.017394
                                -0.002799 -0.018056

                                   1 3d2-    1 3d2-    1 3d2-    1 3d2-    1 3d2-    1 3d2-    1 3d2-    1 5g2-    1 5g4-    1 5g2-
                                   1 5g4-    1 5g2-    1 5g4-

   1.4   +    -0.5258   -9.6993  0.996393 -0.013670  0.006630 -0.000677 -0.001057 -0.000994  0.004970  0.001442 -0.000000  0.002042
                                 0.000000  0.000057  0.000000

                                   1 2pz     1 2pz     1 2pz     1 2pz     1 2pz     1 2pz     1 2pz     1 2pz     1 4f0     1 4f2+
                                   1 4f0     1 4f2+    1 4f0     1 4f2+    1 4f0     1 4f2+    1 6h2+    1 6h4+    1 6h0     1 6h2+
                                   1 6h4+    1 6h0

   1.5   2    -2.4549  -14.9757  1.001418 -0.000278  0.000033 -0.000059  0.000233  0.000243  0.001709 -0.002996  0.002382 -0.000000
                                 0.005208  0.000000  0.002113 -0.000000  0.000564  0.000000 -0.000000  0.011156  0.022317  0.000000
                                -0.011306 -0.022551

                                   1 3d1+    1 3d1+    1 3d1+    1 3d1+    1 3d1+    1 3d1+    1 3d1+    1 5g1+    1 5g3+    1 5g1+
                                   1 5g3+    1 5g1+    1 5g3+

   1.6   +    -0.5258   -9.6993  0.996393 -0.013670  0.006630 -0.000677 -0.001057 -0.000994  0.004970 -0.000510 -0.001349 -0.000722
                                -0.001910 -0.000020 -0.000053

                                   1 3d1-    1 3d1-    1 3d1-    1 3d1-    1 3d1-    1 3d1-    1 3d1-    1 5g1-    1 5g3-    1 5g1-
                                   1 5g3-    1 5g1-    1 5g3-

   1.7   +    -0.5258   -9.6993  0.996393 -0.013670  0.006630 -0.000677 -0.001057 -0.000994  0.004970 -0.000510  0.001349 -0.000722
                                 0.001910 -0.000020  0.000053

 HOMO      4.1    -0.458681 =     -12.4814eV
 LUMO      2.2     0.038194 =       1.0393eV
 LUMO-HOMO         0.496876 =      13.5207eV


 **********************************************************************************************************************************
 DATASETS  * FILE   NREC   LENGTH (MB)   RECORD NAMES
              1      19       20.07       500      610      700      900      950      970     1000      129      960     1100
                                          VAR    BASINP    GEOM    SYMINP    ZMAT    AOBASIS   BASIS     P2S    ABASIS      S
                                         1400     1410     1420     1200     1210     1080     1600     1650     1700
                                           T        V       ECP      H0       H01     AOSYM     SMH    MOLCAS    OPER

              2       5        3.12       200      700     1000      520     4202
                                        OPTIONS   GEOM     BASIS   MCVARS     RHF

 PROGRAMS   *        TOTAL       RHF       INT
 CPU TIMES  *         6.26      0.18      1.89
 REAL TIME  *         7.11 SEC
 DISK USED  *       454.66 MB
 SF USED    *         0.01 MB
 GA USED    *         0.00 MB       (max)       0.00 MB       (current)
 **********************************************************************************************************************************
    -->
    <time start="18:06:02" end="18:06:05" cpu="6.26" system="0.48" real="7.11"/>
    <storage units="megabyte" memory="4097.84" sf="0.01" df="355.64" eaf="99.03" ga="0.0"/>
   </jobstep><!--
   --><jobstep command="POP" commandset="POP">
    <!--


 PROGRAM * POP (Mulliken population analysis)


 Density matrix read from record         4202.2  Type=RHF/CHARGE (state 1.1)

 Population analysis by basis function type

 Unique atom        s        p        d        f        g    Total    Charge
   1  IR      3.99999  5.99954  6.99996  0.00046  0.00004 17.00000  - 0.00000


 **********************************************************************************************************************************
 DATASETS  * FILE   NREC   LENGTH (MB)   RECORD NAMES
              1      19       20.07       500      610      700      900      950      970     1000      129      960     1100
                                          VAR    BASINP    GEOM    SYMINP    ZMAT    AOBASIS   BASIS     P2S    ABASIS      S
                                         1400     1410     1420     1200     1210     1080     1600     1650     1700
                                           T        V       ECP      H0       H01     AOSYM     SMH    MOLCAS    OPER

              2       5        3.12       200      700     1000      520     4202
                                        OPTIONS   GEOM     BASIS   MCVARS     RHF

 PROGRAMS   *        TOTAL       POP       RHF       INT
 CPU TIMES  *         6.27      0.00      0.18      1.89
 REAL TIME  *         7.12 SEC
 DISK USED  *       454.66 MB
 SF USED    *         0.01 MB
 GA USED    *         0.00 MB       (max)       0.00 MB       (current)
 **********************************************************************************************************************************
    -->
    <time start="18:06:05" end="18:06:05" cpu="0.01" system="0.0" real="0.01"/>
    <storage units="megabyte" memory="4097.84" sf="0.01" df="355.64" eaf="99.03" ga="0.0"/>
   </jobstep><!--
   --><jobstep command="MULTI" commandset="MULTI">
    <!--


 Current variables in basis input:

 Set= 1  S_PAR(1)            =       1.06140000
 Set= 1  S_PAR(2)            =       0.66400000
 Set= 1  P_PAR(1)            =       2.37210000
 Set= 1  P_PAR(2)            =       1.48350000
 Set= 1  D_PAR(1)            =       3.28090000
 Set= 1  D_PAR(2)            =       1.28120000
 Set= 1  F_PAR(1)            =       2.14580000
 Set= 1  G_PAR(1)            =       2.62980000
 Set= 1  H_PAR(1)            =       1.03300000

 PROGRAM * MULTI (Direct Multiconfiguration SCF)       Authors: P.J. Knowles, H.-J. Werner (1984)     S.T. Elbert (1988)


 Number of frozen core orbitals:    5 (   2   1   1   0   1   0   0   0 )
 Number of active  orbitals:        5 (   2   0   0   1   0   1   1   0 )
 Number of external orbitals:     134 (  27  21  21  12  21  12  12   8 )

 State symmetry 1

 Number of electrons:     7    Spin symmetry=Quartet   Space symmetry=1
 Number of states:        1
 Number of CSFs:          1   (1 determinants, 10 intermediate states)

 State symmetry 2

 Number of electrons:     7    Spin symmetry=Quartet   Space symmetry=4
 Number of states:        3
 Number of CSFs:          3   (3 determinants, 10 intermediate states)

 State symmetry 3

 Number of electrons:     7    Spin symmetry=Quartet   Space symmetry=6
 Number of states:        3
 Number of CSFs:          3   (3 determinants, 10 intermediate states)

 State symmetry 4

 Number of electrons:     7    Spin symmetry=Quartet   Space symmetry=7
 Number of states:        3
 Number of CSFs:          3   (3 determinants, 10 intermediate states)

 Iteration controls:
             1  2  3  4  5  6  7  8  9 10 11 12 13 14 15 16 17 18 19 20 21 22 23 24 25 26 27 28 29 30 31 32 33 34 35 36 37 38 39
 DIAGCI      T  T  T  T  T  T  T  T  T  T  T  T  T  T  T  T  T  T  T  T  T  T  T  T  T  T  T  T  T  T  T  T  T  T  T  T  T  T  T
 WERNER      T  T  T  T  T  T  T  T  T  T  T  T  T  T  T  T  T  T  T  T  T  T  T  T  T  T  T  T  T  T  T  T  T  T  T  T  T  T  T
 INTERNAL    F  T  T  T  T  T  T  T  T  T  T  T  T  T  T  T  T  T  T  T  T  T  T  T  T  T  T  T  T  T  T  T  T  T  T  T  T  T  T

 Valence orbitals read from record       4202.2  Type=RHF/CANONICAL (state 1.1)
 Frozen core orbitals read from record   4202.2  Type=RHF/CANONICAL (state 1.1)
 *** IN SYMMETRY 1 ORBITAL  1 SYMMETRY CONTAMINATION OF 0.302D-02 HAS BEEN REMOVED
 *** IN SYMMETRY 1 ORBITAL  2 SYMMETRY CONTAMINATION OF 0.163D-02 HAS BEEN REMOVED
 *** IN SYMMETRY 1 ORBITAL  3 SYMMETRY CONTAMINATION OF 0.348D-01 HAS BEEN REMOVED
 *** IN SYMMETRY 1 ORBITAL  4 SYMMETRY CONTAMINATION OF 0.354D-01 HAS BEEN REMOVED

 EXTRA SYMMETRY OF MOS IN SYMMETRY 1:   0 0 3 2 2 3 1 2 3 1   2 3 1 5 6 4 3 2 1 5   6 4 2 3 5 6 4 1 2 3   1
 *** IN SYMMETRY 2 ORBITAL  1 SYMMETRY CONTAMINATION OF 0.825D-01 HAS BEEN REMOVED
 EXTRA SYMMETRY OF MOS IN SYMMETRY 2:   0 1 1 1 2 3 1 2 3 5   6 6 2 3 1 5 4 4 2 3   1 1
 *** IN SYMMETRY 3 ORBITAL  1 SYMMETRY CONTAMINATION OF 0.825D-01 HAS BEEN REMOVED
 EXTRA SYMMETRY OF MOS IN SYMMETRY 3:   0 1 1 1 2 3 1 2 3 5   6 6 2 3 1 5 4 4 2 3   1 1
 *** IN SYMMETRY 4 ORBITAL  1 SYMMETRY CONTAMINATION OF 0.344D-02 HAS BEEN REMOVED
 EXTRA SYMMETRY OF MOS IN SYMMETRY 4:   1 1 1 1 2 3 1 2 3 1   2 3 1
 *** IN SYMMETRY 5 ORBITAL  1 SYMMETRY CONTAMINATION OF 0.715D-01 HAS BEEN REMOVED
 EXTRA SYMMETRY OF MOS IN SYMMETRY 5:   0 1 1 1 3 2 1 3 2 5   4 6 3 2 1 5 4 6 3 2   1 1
 *** IN SYMMETRY 6 ORBITAL  1 SYMMETRY CONTAMINATION OF 0.444D-02 HAS BEEN REMOVED
 EXTRA SYMMETRY OF MOS IN SYMMETRY 6:   1 1 1 1 3 2 1 3 2 1   3 2 1
 *** IN SYMMETRY 7 ORBITAL  1 SYMMETRY CONTAMINATION OF 0.444D-02 HAS BEEN REMOVED
 EXTRA SYMMETRY OF MOS IN SYMMETRY 7:   1 1 1 1 3 2 1 3 2 1   3 2 1
 EXTRA SYMMETRY OF MOS IN SYMMETRY 8:   1 1 2 3 1 2 3 1

 Wavefunction dump at record             4203.2

 Convergence thresholds  0.10E-01 (gradient)  0.10E-05 (energy)  0.10E-02 (step length)

 Weight factors for state symmetry  1:    0.10000
 Weight factors for state symmetry  2:    0.10000   0.10000   0.10000
 Weight factors for state symmetry  3:    0.10000   0.10000   0.10000
 Weight factors for state symmetry  4:    0.10000   0.10000   0.10000

 Number of orbital rotations:       90   (     0 Core/Active      0 Core/Virtual   0 Active/Active     90 Active/Virtual)
 Total number of variables:        118


 ITER. MIC  NCI  NEG     ENERGY(VAR)     ENERGY(PROJ)   ENERGY CHANGE     GRAD(0)  GRAD(ORB)   GRAD(CI)     STEP       TIME

   1   22   16    0    -103.64690392    -103.64804470   -0.00114079    0.04170274 0.00000000 0.00000000  0.34D-01      0.21
   2   13   16    0    -103.64804779    -103.64804781   -0.00000003    0.00020774 0.00000000 0.00000000  0.14D-03      0.43
   3   43   36    0    -103.64804781    -103.64804781    0.00000000    0.00000001 0.00000000 0.00000000  0.38D-08      0.82

 ** WVFN ****  CONVERGENCE REACHED, FINAL GRADIENT:  0.44D-13



 Results for state 1.1
 =====================

 !MCSCF STATE 1.1 Energy             -103.665042022194
    --><property name="Energy" method="MCSCF" principal="true" stateSymmetry="1" stateNumber="1"
      value="-103.665042022194"/><!--
 Nuclear energy                         0.00000000
 Kinetic energy                        34.84744780
 One electron energy                 -180.13237331
 Two electron energy                   76.46733129
 Virial ratio                           3.97482452

 !MCSCF STATE 1.1 Dipole moment         0.00000000     0.00000000     0.00000000
 Dipole moment /Debye                   0.00000000     0.00000000     0.00000000
    --><property name="Dipole moment" method="MCSCF" principal="true" stateSymmetry="1"
      stateNumber="1" value="0.0 0.0 0.0"/><!--



 Results for state 1.4
 =====================

 !MCSCF STATE 1.4 Energy             -103.665042022194
    --><property name="Energy" method="MCSCF" principal="true" stateSymmetry="4" stateNumber="1"
      value="-103.665042022194"/><!--
 Nuclear energy                         0.00000000
 Kinetic energy                        34.84744780
 One electron energy                 -180.13237331
 Two electron energy                   76.46733129
 Virial ratio                           3.97482452

 !MCSCF STATE 1.4 Dipole moment         0.00000000     0.00000000     0.00000000
 Dipole moment /Debye                   0.00000000     0.00000000     0.00000000
    --><property name="Dipole moment" method="MCSCF" principal="true" stateSymmetry="4"
      stateNumber="1" value="0.0 0.0 0.0"/><!--

 Results for state 2.4
 =====================

 !MCSCF STATE 2.4 Energy             -103.665042022194
    --><property name="Energy" method="MCSCF" principal="true" stateSymmetry="4" stateNumber="2"
      value="-103.665042022194"/><!--
 Nuclear energy                         0.00000000
 Kinetic energy                        34.84744780
 One electron energy                 -180.13237331
 Two electron energy                   76.46733129
 Virial ratio                           3.97482452

 !MCSCF STATE 2.4 Dipole moment         0.00000000     0.00000000     0.00000000
 Dipole moment /Debye                   0.00000000     0.00000000     0.00000000
    --><property name="Dipole moment" method="MCSCF" principal="true" stateSymmetry="4"
      stateNumber="2" value="0.0 0.0 0.0"/><!--

 Results for state 3.4
 =====================

 !MCSCF STATE 3.4 Energy             -103.608394662114
    --><property name="Energy" method="MCSCF" principal="true" stateSymmetry="4" stateNumber="3"
      value="-103.608394662114"/><!--
 Nuclear energy                         0.00000000
 Kinetic energy                        34.84744780
 One electron energy                 -180.13237331
 Two electron energy                   76.52397865
 Virial ratio                           3.97319893

 !MCSCF STATE 3.4 Dipole moment         0.00000000     0.00000000     0.00000000
 Dipole moment /Debye                   0.00000000     0.00000000     0.00000000
    --><property name="Dipole moment" method="MCSCF" principal="true" stateSymmetry="4"
      stateNumber="3" value="0.0 0.0 0.0"/><!--



 Results for state 1.6
 =====================

 !MCSCF STATE 1.6 Energy             -103.665042022194
    --><property name="Energy" method="MCSCF" principal="true" stateSymmetry="6" stateNumber="1"
      value="-103.665042022194"/><!--
 Nuclear energy                         0.00000000
 Kinetic energy                        34.84744780
 One electron energy                 -180.13237331
 Two electron energy                   76.46733129
 Virial ratio                           3.97482452

 !MCSCF STATE 1.6 Dipole moment         0.00000000     0.00000000     0.00000000
 Dipole moment /Debye                   0.00000000     0.00000000     0.00000000
    --><property name="Dipole moment" method="MCSCF" principal="true" stateSymmetry="6"
      stateNumber="1" value="0.0 0.0 0.0"/><!--

 Results for state 2.6
 =====================

 !MCSCF STATE 2.6 Energy             -103.665042022194
    --><property name="Energy" method="MCSCF" principal="true" stateSymmetry="6" stateNumber="2"
      value="-103.665042022194"/><!--
 Nuclear energy                         0.00000000
 Kinetic energy                        34.84744780
 One electron energy                 -180.13237331
 Two electron energy                   76.46733129
 Virial ratio                           3.97482452

 !MCSCF STATE 2.6 Dipole moment         0.00000000     0.00000000     0.00000000
 Dipole moment /Debye                   0.00000000     0.00000000     0.00000000
    --><property name="Dipole moment" method="MCSCF" principal="true" stateSymmetry="6"
      stateNumber="2" value="0.0 0.0 0.0"/><!--

 Results for state 3.6
 =====================

 !MCSCF STATE 3.6 Energy             -103.608394662114
    --><property name="Energy" method="MCSCF" principal="true" stateSymmetry="6" stateNumber="3"
      value="-103.608394662114"/><!--
 Nuclear energy                         0.00000000
 Kinetic energy                        34.84744780
 One electron energy                 -180.13237331
 Two electron energy                   76.52397865
 Virial ratio                           3.97319893

 !MCSCF STATE 3.6 Dipole moment         0.00000000     0.00000000     0.00000000
 Dipole moment /Debye                   0.00000000     0.00000000     0.00000000
    --><property name="Dipole moment" method="MCSCF" principal="true" stateSymmetry="6"
      stateNumber="3" value="0.0 0.0 0.0"/><!--



 Results for state 1.7
 =====================

 !MCSCF STATE 1.7 Energy             -103.665042022194
    --><property name="Energy" method="MCSCF" principal="true" stateSymmetry="7" stateNumber="1"
      value="-103.665042022194"/><!--
 Nuclear energy                         0.00000000
 Kinetic energy                        34.84744780
 One electron energy                 -180.13237331
 Two electron energy                   76.46733129
 Virial ratio                           3.97482452

 !MCSCF STATE 1.7 Dipole moment         0.00000000     0.00000000     0.00000000
 Dipole moment /Debye                   0.00000000     0.00000000     0.00000000
    --><property name="Dipole moment" method="MCSCF" principal="true" stateSymmetry="7"
      stateNumber="1" value="0.0 0.0 0.0"/><!--

 Results for state 2.7
 =====================

 !MCSCF STATE 2.7 Energy             -103.665042022194
    --><property name="Energy" method="MCSCF" principal="true" stateSymmetry="7" stateNumber="2"
      value="-103.665042022194"/><!--
 Nuclear energy                         0.00000000
 Kinetic energy                        34.84744780
 One electron energy                 -180.13237331
 Two electron energy                   76.46733129
 Virial ratio                           3.97482452

 !MCSCF STATE 2.7 Dipole moment         0.00000000     0.00000000     0.00000000
 Dipole moment /Debye                   0.00000000     0.00000000     0.00000000
    --><property name="Dipole moment" method="MCSCF" principal="true" stateSymmetry="7"
      stateNumber="2" value="0.0 0.0 0.0"/><!--

 Results for state 3.7
 =====================

 !MCSCF STATE 3.7 Energy             -103.608394662114
    --><property name="Energy" method="MCSCF" principal="true" stateSymmetry="7" stateNumber="3"
      value="-103.608394662114"/><!--
 Nuclear energy                         0.00000000
 Kinetic energy                        34.84744780
 One electron energy                 -180.13237331
 Two electron energy                   76.52397865
 Virial ratio                           3.97319893

 !MCSCF STATE 3.7 Dipole moment         0.00000000     0.00000000     0.00000000
 Dipole moment /Debye                   0.00000000     0.00000000     0.00000000
    --><property name="Dipole moment" method="MCSCF" principal="true" stateSymmetry="7"
      stateNumber="3" value="0.0 0.0 0.0"/><!--

 State-averaged charge density matrix saved on record  4203.2 (density set 1)


 NATURAL ORBITALS (state averaged)
 =================================

   Orb     Occ        Energy       Coefficients

                                   1 1s      1 1s      1 1s      1 1s      1 1s      1 1s      1 1s      1 1s      1 3d0     1 3d2+
                                   1 3d0     1 3d2+    1 3d0     1 3d2+    1 3d0     1 3d2+    1 3d0     1 3d2+    1 3d0     1 3d2+
                                   1 3d0     1 3d2+    1 5g0     1 5g4+    1 5g2+    1 5g0     1 5g4+    1 5g2+    1 5g0     1 5g4+
                                   1 5g2+

   3.1  1.40000    -0.308499     0.000000  0.000000  0.000000  0.000000  0.000000  0.000000  0.000000  0.000000  1.000224  0.000000
                                -0.000245  0.000000 -0.000032  0.000000  0.000010  0.000000 -0.000028  0.000000  0.000037  0.000000
                                -0.000284  0.000000  0.000000  0.000000  0.000000  0.000000  0.000000  0.000000  0.000000  0.000000
                                 0.000000

   4.1  1.40000    -0.308499     0.000000  0.000000  0.000000  0.000000  0.000000  0.000000  0.000000  0.000000  0.000000  1.000224
                                 0.000000 -0.000245  0.000000 -0.000032  0.000000  0.000010  0.000000 -0.000028  0.000000  0.000037
                                 0.000000 -0.000284  0.000000  0.000000  0.000000  0.000000  0.000000  0.000000  0.000000  0.000000
                                 0.000000

                                   1 3d2-    1 3d2-    1 3d2-    1 3d2-    1 3d2-    1 3d2-    1 3d2-    1 5g2-    1 5g4-    1 5g2-
                                   1 5g4-    1 5g2-    1 5g4-

   1.4  1.40000    -0.308499     1.000224 -0.000245 -0.000032  0.000010 -0.000028  0.000037 -0.000284  0.000000  0.000000  0.000000
                                 0.000000  0.000000  0.000000

                                   1 3d1+    1 3d1+    1 3d1+    1 3d1+    1 3d1+    1 3d1+    1 3d1+    1 5g1+    1 5g3+    1 5g1+
                                   1 5g3+    1 5g1+    1 5g3+

   1.6  1.40000    -0.308499     1.000224 -0.000245 -0.000032  0.000010 -0.000028  0.000037 -0.000284  0.000000  0.000000  0.000000
                                 0.000000  0.000000  0.000000

                                   1 3d1-    1 3d1-    1 3d1-    1 3d1-    1 3d1-    1 3d1-    1 3d1-    1 5g1-    1 5g3-    1 5g1-
                                   1 5g3-    1 5g1-    1 5g3-

   1.7  1.40000    -0.308499     1.000224 -0.000245 -0.000032  0.000010 -0.000028  0.000037 -0.000284  0.000000  0.000000  0.000000
                                 0.000000  0.000000  0.000000


 EXTRA SYMMETRY OF MOS IN SYMMETRY 1:   0 0 2 3 2 3 1 2 3 1   2 3 1 4 6 5 3 2 1 5   4 6 2 3 5 4 6 1 2 3   1
 EXTRA SYMMETRY OF MOS IN SYMMETRY 2:   0 1 1 1 2 3 1 2 3 5   6 4 2 3 1 5 6 4 2 3   1 1
 EXTRA SYMMETRY OF MOS IN SYMMETRY 3:   0 1 1 1 2 3 1 2 3 5   6 4 2 3 1 5 6 4 2 3   1 1
 EXTRA SYMMETRY OF MOS IN SYMMETRY 4:   1 1 1 1 2 3 1 3 2 1   3 2 1
 EXTRA SYMMETRY OF MOS IN SYMMETRY 5:   0 1 1 1 3 2 1 3 2 6   5 4 2 3 1 6 4 5 2 3   1 1
 EXTRA SYMMETRY OF MOS IN SYMMETRY 6:   1 1 1 1 3 2 1 3 2 1   2 3 1
 EXTRA SYMMETRY OF MOS IN SYMMETRY 7:   1 1 1 1 3 2 1 3 2 1   2 3 1
 EXTRA SYMMETRY OF MOS IN SYMMETRY 8:   1 1 3 2 1 3 2 1

 Natural orbital dump (state averaged) at molpro section  4203.2    (Orbital set 2)



 **********************************************************************************************************************************
 DATASETS  * FILE   NREC   LENGTH (MB)   RECORD NAMES
              1      20       20.60       500      610      700      900      950      970     1000      129      960     1100
                                          VAR    BASINP    GEOM    SYMINP    ZMAT    AOBASIS   BASIS     P2S    ABASIS      S
                                         1400     1410     1420     1200     1210     1080     1600     1650     1700     1380
                                           T        V       ECP      H0       H01     AOSYM     SMH    MOLCAS    OPER     JKOP

              2       6        5.73       200      700     1000      520     4202     4203
                                        OPTIONS   GEOM     BASIS   MCVARS     RHF     MCSCF

 PROGRAMS   *        TOTAL     MULTI       POP       RHF       INT
 CPU TIMES  *         7.23      0.96      0.00      0.18      1.89
 REAL TIME  *         8.17 SEC
 DISK USED  *       454.66 MB
 SF USED    *        13.66 MB
 GA USED    *         0.00 MB       (max)       0.00 MB       (current)
 **********************************************************************************************************************************
    -->
    <time start="18:06:05" end="18:06:06" cpu="0.96" system="0.07" real="1.05"/>
    <storage units="megabyte" memory="4097.84" sf="13.66" df="355.64" eaf="99.03" ga="0.0"/>
   </jobstep><!--
   --><jobstep command="MULTI" commandset="MULTI">
    <!--


 Current variables in basis input:

 Set= 1  S_PAR(1)            =       1.06140000
 Set= 1  S_PAR(2)            =       0.66400000
 Set= 1  P_PAR(1)            =       2.37210000
 Set= 1  P_PAR(2)            =       1.48350000
 Set= 1  D_PAR(1)            =       3.28090000
 Set= 1  D_PAR(2)            =       1.28120000
 Set= 1  F_PAR(1)            =       2.14580000
 Set= 1  G_PAR(1)            =       2.62980000
 Set= 1  H_PAR(1)            =       1.03300000

 PROGRAM * MULTI (Direct Multiconfiguration SCF)       Authors: P.J. Knowles, H.-J. Werner (1984)     S.T. Elbert (1988)


 Number of closed-shell orbitals:   5 (   2   1   1   0   1   0   0   0 )
 Number of active  orbitals:        5 (   2   0   0   1   0   1   1   0 )
 Number of external orbitals:     134 (  27  21  21  12  21  12  12   8 )

 State symmetry 1

 Number of electrons:     7    Spin symmetry=Quartet   Space symmetry=1
 Number of states:        1
 Number of CSFs:          1   (1 determinants, 10 intermediate states)

 State symmetry 2

 Number of electrons:     7    Spin symmetry=Quartet   Space symmetry=4
 Number of states:        3
 Number of CSFs:          3   (3 determinants, 10 intermediate states)

 State symmetry 3

 Number of electrons:     7    Spin symmetry=Quartet   Space symmetry=6
 Number of states:        3
 Number of CSFs:          3   (3 determinants, 10 intermediate states)

 State symmetry 4

 Number of electrons:     7    Spin symmetry=Quartet   Space symmetry=7
 Number of states:        3
 Number of CSFs:          3   (3 determinants, 10 intermediate states)

 Iteration controls:
             1  2  3  4  5  6  7  8  9 10 11 12 13 14 15 16 17 18 19 20 21 22 23 24 25 26 27 28 29 30 31 32 33 34 35 36 37 38 39
 DIAGCI      T  T  T  T  T  T  T  T  T  T  T  T  T  T  T  T  T  T  T  T  T  T  T  T  T  T  T  T  T  T  T  T  T  T  T  T  T  T  T
 WERNER      T  T  T  T  T  T  T  T  T  T  T  T  T  T  T  T  T  T  T  T  T  T  T  T  T  T  T  T  T  T  T  T  T  T  T  T  T  T  T
 INTERNAL    F  T  T  T  T  T  T  T  T  T  T  T  T  T  T  T  T  T  T  T  T  T  T  T  T  T  T  T  T  T  T  T  T  T  T  T  T  T  T

 Molecular orbitals read from record     4203.2  Type=MCSCF/NATURAL (state averaged)

 EXTRA SYMMETRY OF MOS IN SYMMETRY 1:   1 1 2 3 2 3 1 2 3 1   2 3 1 4 6 5 3 2 1 5   4 6 2 3 5 4 6 1 2 3   1
 EXTRA SYMMETRY OF MOS IN SYMMETRY 2:   1 1 1 1 2 3 1 2 3 5   6 4 2 3 1 5 6 4 2 3   1 1
 EXTRA SYMMETRY OF MOS IN SYMMETRY 3:   1 1 1 1 2 3 1 2 3 5   6 4 2 3 1 5 6 4 2 3   1 1
 EXTRA SYMMETRY OF MOS IN SYMMETRY 4:   1 1 1 1 2 3 1 3 2 1   3 2 1
 EXTRA SYMMETRY OF MOS IN SYMMETRY 5:   1 1 1 1 3 2 1 3 2 6   5 4 2 3 1 6 4 5 2 3   1 1
 EXTRA SYMMETRY OF MOS IN SYMMETRY 6:   1 1 1 1 3 2 1 3 2 1   2 3 1
 EXTRA SYMMETRY OF MOS IN SYMMETRY 7:   1 1 1 1 3 2 1 3 2 1   2 3 1
 EXTRA SYMMETRY OF MOS IN SYMMETRY 8:   1 1 3 2 1 3 2 1

 Wavefunction dump at record             5202.2

 Convergence thresholds  0.10E-01 (gradient)  0.10E-05 (energy)  0.10E-02 (step length)

 Weight factors for state symmetry  1:    0.10000
 Weight factors for state symmetry  2:    0.10000   0.10000   0.10000
 Weight factors for state symmetry  3:    0.10000   0.10000   0.10000
 Weight factors for state symmetry  4:    0.10000   0.10000   0.10000

 Number of orbital rotations:      211   (     4 Core/Active    117 Core/Virtual   0 Active/Active     90 Active/Virtual)
 Total number of variables:        239


 ITER. MIC  NCI  NEG     ENERGY(VAR)     ENERGY(PROJ)   ENERGY CHANGE     GRAD(0)  GRAD(ORB)   GRAD(CI)     STEP       TIME

   1   39   20    0    -103.64804781    -103.64804896   -0.00000114    0.00232120 0.00000000 0.00000000  0.91D-03      0.75
   2   49   48    0    -103.64804896    -103.64804896   -0.00000000    0.00000036 0.00000000 0.00000000  0.20D-06      1.23

 ** WVFN ****  CONVERGENCE REACHED, FINAL GRADIENT:  0.60D-12



 Results for state 1.1
 =====================

 !MCSCF STATE 1.1 Energy             -103.665040976933
    --><property name="Energy" method="MCSCF" principal="true" stateSymmetry="1" stateNumber="1"
      value="-103.665040976933"/><!--
 Nuclear energy                         0.00000000
 Kinetic energy                        34.85047311
 One electron energy                 -180.13763403
 Two electron energy                   76.47259305
 Virial ratio                           3.97456625

 !MCSCF STATE 1.1 Dipole moment         0.00000000     0.00000000     0.00000000
 Dipole moment /Debye                   0.00000000     0.00000000     0.00000000
    --><property name="Dipole moment" method="MCSCF" principal="true" stateSymmetry="1"
      stateNumber="1" value="0.0 0.0 0.0"/><!--



 Results for state 1.4
 =====================

 !MCSCF STATE 1.4 Energy             -103.665040976933
    --><property name="Energy" method="MCSCF" principal="true" stateSymmetry="4" stateNumber="1"
      value="-103.665040976933"/><!--
 Nuclear energy                         0.00000000
 Kinetic energy                        34.85047311
 One electron energy                 -180.13763403
 Two electron energy                   76.47259305
 Virial ratio                           3.97456625

 !MCSCF STATE 1.4 Dipole moment         0.00000000     0.00000000     0.00000000
 Dipole moment /Debye                   0.00000000     0.00000000     0.00000000
    --><property name="Dipole moment" method="MCSCF" principal="true" stateSymmetry="4"
      stateNumber="1" value="0.0 0.0 0.0"/><!--

 Results for state 2.4
 =====================

 !MCSCF STATE 2.4 Energy             -103.665040976933
    --><property name="Energy" method="MCSCF" principal="true" stateSymmetry="4" stateNumber="2"
      value="-103.665040976933"/><!--
 Nuclear energy                         0.00000000
 Kinetic energy                        34.85047311
 One electron energy                 -180.13763403
 Two electron energy                   76.47259305
 Virial ratio                           3.97456625

 !MCSCF STATE 2.4 Dipole moment         0.00000000     0.00000000     0.00000000
 Dipole moment /Debye                   0.00000000     0.00000000     0.00000000
    --><property name="Dipole moment" method="MCSCF" principal="true" stateSymmetry="4"
      stateNumber="2" value="0.0 0.0 0.0"/><!--

 Results for state 3.4
 =====================

 !MCSCF STATE 3.4 Energy             -103.608400909556
    --><property name="Energy" method="MCSCF" principal="true" stateSymmetry="4" stateNumber="3"
      value="-103.608400909556"/><!--
 Nuclear energy                         0.00000000
 Kinetic energy                        34.85047311
 One electron energy                 -180.13763403
 Two electron energy                   76.52923312
 Virial ratio                           3.97294102

 !MCSCF STATE 3.4 Dipole moment         0.00000000     0.00000000     0.00000000
 Dipole moment /Debye                   0.00000000     0.00000000     0.00000000
    --><property name="Dipole moment" method="MCSCF" principal="true" stateSymmetry="4"
      stateNumber="3" value="0.0 0.0 0.0"/><!--



 Results for state 1.6
 =====================

 !MCSCF STATE 1.6 Energy             -103.665040976933
    --><property name="Energy" method="MCSCF" principal="true" stateSymmetry="6" stateNumber="1"
      value="-103.665040976933"/><!--
 Nuclear energy                         0.00000000
 Kinetic energy                        34.85047311
 One electron energy                 -180.13763403
 Two electron energy                   76.47259305
 Virial ratio                           3.97456625

 !MCSCF STATE 1.6 Dipole moment         0.00000000     0.00000000     0.00000000
 Dipole moment /Debye                   0.00000000     0.00000000     0.00000000
    --><property name="Dipole moment" method="MCSCF" principal="true" stateSymmetry="6"
      stateNumber="1" value="0.0 0.0 0.0"/><!--

 Results for state 2.6
 =====================

 !MCSCF STATE 2.6 Energy             -103.665040976933
    --><property name="Energy" method="MCSCF" principal="true" stateSymmetry="6" stateNumber="2"
      value="-103.665040976933"/><!--
 Nuclear energy                         0.00000000
 Kinetic energy                        34.85047311
 One electron energy                 -180.13763403
 Two electron energy                   76.47259305
 Virial ratio                           3.97456625

 !MCSCF STATE 2.6 Dipole moment         0.00000000     0.00000000     0.00000000
 Dipole moment /Debye                   0.00000000     0.00000000     0.00000000
    --><property name="Dipole moment" method="MCSCF" principal="true" stateSymmetry="6"
      stateNumber="2" value="0.0 0.0 0.0"/><!--

 Results for state 3.6
 =====================

 !MCSCF STATE 3.6 Energy             -103.608400909556
    --><property name="Energy" method="MCSCF" principal="true" stateSymmetry="6" stateNumber="3"
      value="-103.608400909556"/><!--
 Nuclear energy                         0.00000000
 Kinetic energy                        34.85047311
 One electron energy                 -180.13763403
 Two electron energy                   76.52923312
 Virial ratio                           3.97294102

 !MCSCF STATE 3.6 Dipole moment         0.00000000     0.00000000     0.00000000
 Dipole moment /Debye                   0.00000000     0.00000000     0.00000000
    --><property name="Dipole moment" method="MCSCF" principal="true" stateSymmetry="6"
      stateNumber="3" value="0.0 0.0 0.0"/><!--



 Results for state 1.7
 =====================

 !MCSCF STATE 1.7 Energy             -103.665040976933
    --><property name="Energy" method="MCSCF" principal="true" stateSymmetry="7" stateNumber="1"
      value="-103.665040976933"/><!--
 Nuclear energy                         0.00000000
 Kinetic energy                        34.85047311
 One electron energy                 -180.13763403
 Two electron energy                   76.47259305
 Virial ratio                           3.97456625

 !MCSCF STATE 1.7 Dipole moment         0.00000000     0.00000000     0.00000000
 Dipole moment /Debye                   0.00000000     0.00000000     0.00000000
    --><property name="Dipole moment" method="MCSCF" principal="true" stateSymmetry="7"
      stateNumber="1" value="0.0 0.0 0.0"/><!--

 Results for state 2.7
 =====================

 !MCSCF STATE 2.7 Energy             -103.665040976933
    --><property name="Energy" method="MCSCF" principal="true" stateSymmetry="7" stateNumber="2"
      value="-103.665040976933"/><!--
 Nuclear energy                         0.00000000
 Kinetic energy                        34.85047311
 One electron energy                 -180.13763403
 Two electron energy                   76.47259305
 Virial ratio                           3.97456625

 !MCSCF STATE 2.7 Dipole moment         0.00000000     0.00000000     0.00000000
 Dipole moment /Debye                   0.00000000     0.00000000     0.00000000
    --><property name="Dipole moment" method="MCSCF" principal="true" stateSymmetry="7"
      stateNumber="2" value="0.0 0.0 0.0"/><!--

 Results for state 3.7
 =====================

 !MCSCF STATE 3.7 Energy             -103.608400909556
    --><property name="Energy" method="MCSCF" principal="true" stateSymmetry="7" stateNumber="3"
      value="-103.608400909556"/><!--
 Nuclear energy                         0.00000000
 Kinetic energy                        34.85047311
 One electron energy                 -180.13763403
 Two electron energy                   76.52923312
 Virial ratio                           3.97294102

 !MCSCF STATE 3.7 Dipole moment         0.00000000     0.00000000     0.00000000
 Dipole moment /Debye                   0.00000000     0.00000000     0.00000000
    --><property name="Dipole moment" method="MCSCF" principal="true" stateSymmetry="7"
      stateNumber="3" value="0.0 0.0 0.0"/><!--

 State-averaged charge density matrix saved on record  5202.2 (density set 1)


 NATURAL ORBITALS (state averaged)
 =================================

   Orb     Occ        Energy       Coefficients

                                   1 1s      1 1s      1 1s      1 1s      1 1s      1 1s      1 1s      1 1s      1 3d0     1 3d2+
                                   1 3d0     1 3d2+    1 3d0     1 3d2+    1 3d0     1 3d2+    1 3d0     1 3d2+    1 3d0     1 3d2+
                                   1 3d0     1 3d2+    1 5g0     1 5g4+    1 5g2+    1 5g0     1 5g4+    1 5g2+    1 5g0     1 5g4+
                                   1 5g2+

   1.1  2.00000    -4.225789     0.999014 -0.000530  0.000330 -0.000337 -0.000062  0.000238 -0.002199  0.003025  0.000000  0.000000
                                 0.000000  0.000000  0.000000  0.000000  0.000000  0.000000  0.000000  0.000000  0.000000  0.000000
                                 0.000000  0.000000  0.000000  0.000000  0.000000  0.000000  0.000000  0.000000  0.000000  0.000000
                                 0.000000

   2.1  2.00000    -0.296849     0.000601  1.000123 -0.000303  0.000191  0.000048  0.000104  0.001435 -0.002008  0.000000  0.000000
                                 0.000000  0.000000  0.000000  0.000000  0.000000  0.000000  0.000000  0.000000  0.000000  0.000000
                                 0.000000  0.000000  0.000000  0.000000  0.000000  0.000000  0.000000  0.000000  0.000000  0.000000
                                 0.000000

   3.1  1.40000    -0.308198     0.000000  0.000000  0.000000  0.000000  0.000000  0.000000  0.000000  0.000000  0.000000  1.000231
                                 0.000000 -0.000127  0.000000 -0.000065  0.000000  0.000021  0.000000 -0.000021  0.000000  0.000039
                                 0.000000 -0.000296  0.000000  0.000000  0.000000  0.000000  0.000000  0.000000  0.000000  0.000000
                                 0.000000

   4.1  1.40000    -0.308198     0.000000  0.000000  0.000000  0.000000  0.000000  0.000000  0.000000  0.000000  1.000231  0.000000
                                -0.000127  0.000000 -0.000065  0.000000  0.000021  0.000000 -0.000021  0.000000  0.000039  0.000000
                                -0.000296  0.000000  0.000000  0.000000  0.000000  0.000000  0.000000  0.000000  0.000000  0.000000
                                 0.000000

                                   1 2px     1 2px     1 2px     1 2px     1 2px     1 2px     1 2px     1 2px     1 4f1+    1 4f3+
                                   1 4f1+    1 4f3+    1 4f1+    1 4f3+    1 4f1+    1 4f3+    1 6h1+    1 6h3+    1 6h5+    1 6h1+
                                   1 6h3+    1 6h5+

   1.2  2.00000    -2.456016     1.001464 -0.000393 -0.000063 -0.000096  0.000232  0.000243  0.001719 -0.003012  0.000000  0.000000
                                 0.000000  0.000000  0.000000  0.000000  0.000000  0.000000  0.000000  0.000000  0.000000  0.000000
                                 0.000000  0.000000

                                   1 2py     1 2py     1 2py     1 2py     1 2py     1 2py     1 2py     1 2py     1 4f1-    1 4f3-
                                   1 4f1-    1 4f3-    1 4f1-    1 4f3-    1 4f1-    1 4f3-    1 6h1-    1 6h3-    1 6h5-    1 6h1-
                                   1 6h3-    1 6h5-

   1.3  2.00000    -2.456016     1.001464 -0.000393 -0.000063 -0.000096  0.000232  0.000243  0.001719 -0.003012  0.000000  0.000000
                                 0.000000  0.000000  0.000000  0.000000  0.000000  0.000000  0.000000  0.000000  0.000000  0.000000
                                 0.000000  0.000000

                                   1 3d2-    1 3d2-    1 3d2-    1 3d2-    1 3d2-    1 3d2-    1 3d2-    1 5g2-    1 5g4-    1 5g2-
                                   1 5g4-    1 5g2-    1 5g4-

   1.4  1.40000    -0.308198     1.000231 -0.000127 -0.000065  0.000021 -0.000021  0.000039 -0.000296  0.000000  0.000000  0.000000
                                 0.000000  0.000000  0.000000

                                   1 2pz     1 2pz     1 2pz     1 2pz     1 2pz     1 2pz     1 2pz     1 2pz     1 4f0     1 4f2+
                                   1 4f0     1 4f2+    1 4f0     1 4f2+    1 4f0     1 4f2+    1 6h2+    1 6h4+    1 6h0     1 6h2+
                                   1 6h4+    1 6h0

   1.5  2.00000    -2.456016     1.001464 -0.000393 -0.000063 -0.000096  0.000232  0.000243  0.001719 -0.003012  0.000000  0.000000
                                 0.000000  0.000000  0.000000  0.000000  0.000000  0.000000  0.000000  0.000000  0.000000  0.000000
                                 0.000000  0.000000

                                   1 3d1+    1 3d1+    1 3d1+    1 3d1+    1 3d1+    1 3d1+    1 3d1+    1 5g1+    1 5g3+    1 5g1+
                                   1 5g3+    1 5g1+    1 5g3+

   1.6  1.40000    -0.308198     1.000231 -0.000127 -0.000065  0.000021 -0.000021  0.000039 -0.000296  0.000000  0.000000  0.000000
                                 0.000000  0.000000  0.000000

                                   1 3d1-    1 3d1-    1 3d1-    1 3d1-    1 3d1-    1 3d1-    1 3d1-    1 5g1-    1 5g3-    1 5g1-
                                   1 5g3-    1 5g1-    1 5g3-

   1.7  1.40000    -0.308198     1.000231 -0.000127 -0.000065  0.000021 -0.000021  0.000039 -0.000296  0.000000  0.000000  0.000000
                                 0.000000  0.000000  0.000000


 EXTRA SYMMETRY OF MOS IN SYMMETRY 1:   1 1 3 2 2 3 1 2 3 1   2 3 1 4 6 5 3 2 1 5   4 6 2 3 5 4 6 1 2 3   1
 EXTRA SYMMETRY OF MOS IN SYMMETRY 5:   1 1 1 1 3 2 1 3 2 6   5 4 2 3 1 6 5 4 2 3   1 1

 Natural orbital dump (state averaged) at molpro section  5202.2    (Orbital set 2)


 CI vector for state symmetry 1
 ==============================

 22 a a a          1.0000000

 TOTAL ENERGIES                      -103.66504098

 CI vector for state symmetry 2
 ==============================

 a2 2 a a          1.0000000   0.0000000   0.0000000
 2a 2 a a          0.0000000   0.4472136   0.8944272
 aa a 2 2          0.0000000   0.8944272  -0.4472136

 TOTAL ENERGIES                      -103.66504098  -103.66504098  -103.60840091

 CI vector for state symmetry 3
 ==============================

 2a a 2 a         -0.0648325   0.8920744   0.4472136
 aa 2 a 2          0.8475392   0.2857924  -0.4472136
 a2 a 2 a          0.5267580  -0.3500371   0.7745967

 TOTAL ENERGIES                      -103.66504098  -103.66504098  -103.60840091

 CI vector for state symmetry 4
 ==============================

 2a a a 2          0.2451010   0.8601892  -0.4472136
 a2 a a 2          0.5869922   0.2354572   0.7745967
 aa 2 2 a          0.7715994  -0.4523653  -0.4472136

 TOTAL ENERGIES                      -103.66504098  -103.66504098  -103.60840091



 **********************************************************************************************************************************
 DATASETS  * FILE   NREC   LENGTH (MB)   RECORD NAMES
              1      20       21.90       500      610      700      900      950      970     1000      129      960     1100
[...]

   1.2   2    -2.4560  -14.9776  1.001464 -0.000393 -0.000063 -0.000096  0.000232  0.000243  0.001719 -0.003012  0.000000  0.000000
                                 0.000000  0.000000  0.000000  0.000000  0.000000  0.000000  0.000000  0.000000  0.000000  0.000000
                                 0.000000  0.000000

   2.2   0     0.0428   -3.3979 -0.037285 -0.036336  0.097638 -0.063708  0.037497  1.105760  0.104533 -0.192726  0.000000  0.000000
                                 0.000000  0.000000  0.000000  0.000000  0.000000  0.000000  0.000000  0.000000  0.000000  0.000000
                                 0.000000  0.000000

   3.2   0     0.2045   -3.6095 -0.234420  1.902054 -0.797222  0.393925 -0.199957 -1.839700 -0.524758  0.925862  0.000000  0.000000
                                 0.000000  0.000000  0.000000  0.000000  0.000000  0.000000  0.000000  0.000000  0.000000  0.000000
                                 0.000000  0.000000

                                   1 2py     1 2py     1 2py     1 2py     1 2py     1 2py     1 2py     1 2py     1 4f1-    1 4f3-
                                   1 4f1-    1 4f3-    1 4f1-    1 4f3-    1 4f1-    1 4f3-    1 6h1-    1 6h3-    1 6h5-    1 6h1-
                                   1 6h3-    1 6h5-

   1.3   2    -2.4560  -14.9776  1.001464 -0.000393 -0.000063 -0.000096  0.000232  0.000243  0.001719 -0.003012  0.000000  0.000000
                                 0.000000  0.000000  0.000000  0.000000  0.000000  0.000000  0.000000  0.000000  0.000000  0.000000
                                 0.000000  0.000000

   2.3   0     0.0428   -3.3979 -0.037285 -0.036336  0.097638 -0.063708  0.037497  1.105760  0.104533 -0.192726  0.000000  0.000000
                                 0.000000  0.000000  0.000000  0.000000  0.000000  0.000000  0.000000  0.000000  0.000000  0.000000
                                 0.000000  0.000000

   3.3   0     0.2045   -3.6095 -0.234420  1.902054 -0.797222  0.393925 -0.199957 -1.839700 -0.524758  0.925862  0.000000  0.000000
                                 0.000000  0.000000  0.000000  0.000000  0.000000  0.000000  0.000000  0.000000  0.000000  0.000000
                                 0.000000  0.000000

                                   1 3d2-    1 3d2-    1 3d2-    1 3d2-    1 3d2-    1 3d2-    1 3d2-    1 5g2-    1 5g4-    1 5g2-
                                   1 5g4-    1 5g2-    1 5g4-

   1.4   +    -0.3082   -9.4256  1.000231 -0.000127 -0.000065  0.000021 -0.000021  0.000039 -0.000296  0.000000  0.000000  0.000000
                                 0.000000  0.000000  0.000000

   2.4   0     0.1037   -2.2117 -0.258326 -0.025891  0.101854 -0.044668  1.082881 -0.025144  0.149629  0.000000  0.000000  0.000000
                                 0.000000  0.000000  0.000000

   3.4   0     0.4681   -3.6618  0.868178  0.474623 -0.874689  0.351628 -0.622714  0.174137 -1.043865  0.000000  0.000000  0.000000
                                 0.000000  0.000000  0.000000

                                   1 2pz     1 2pz     1 2pz     1 2pz     1 2pz     1 2pz     1 2pz     1 2pz     1 4f0     1 4f2+
                                   1 4f0     1 4f2+    1 4f0     1 4f2+    1 4f0     1 4f2+    1 6h2+    1 6h4+    1 6h0     1 6h2+
                                   1 6h4+    1 6h0

   1.5   2    -2.4560  -14.9776  1.001464 -0.000393 -0.000063 -0.000096  0.000232  0.000243  0.001719 -0.003012  0.000000  0.000000
                                 0.000000  0.000000  0.000000  0.000000  0.000000  0.000000  0.000000  0.000000  0.000000  0.000000
                                 0.000000  0.000000

   2.5   0     0.0428   -3.3979 -0.037285 -0.036336  0.097638 -0.063708  0.037497  1.105760  0.104533 -0.192726  0.000000  0.000000
                                 0.000000  0.000000  0.000000  0.000000  0.000000  0.000000  0.000000  0.000000  0.000000  0.000000
                                 0.000000  0.000000

   3.5   0     0.2045   -3.6095 -0.234420  1.902054 -0.797222  0.393925 -0.199957 -1.839700 -0.524758  0.925862  0.000000  0.000000
                                 0.000000  0.000000  0.000000  0.000000  0.000000  0.000000  0.000000  0.000000  0.000000  0.000000
                                 0.000000  0.000000

                                   1 3d1+    1 3d1+    1 3d1+    1 3d1+    1 3d1+    1 3d1+    1 3d1+    1 5g1+    1 5g3+    1 5g1+
                                   1 5g3+    1 5g1+    1 5g3+

   1.6   +    -0.3082   -9.4256  1.000231 -0.000127 -0.000065  0.000021 -0.000021  0.000039 -0.000296  0.000000  0.000000  0.000000
                                 0.000000  0.000000  0.000000

   2.6   0     0.1037   -2.2117 -0.258326 -0.025891  0.101854 -0.044668  1.082881 -0.025144  0.149629  0.000000  0.000000  0.000000
                                 0.000000  0.000000  0.000000

   3.6   0     0.4681   -3.6618  0.868178  0.474623 -0.874689  0.351628 -0.622714  0.174137 -1.043865  0.000000  0.000000  0.000000
                                 0.000000  0.000000  0.000000

                                   1 3d1-    1 3d1-    1 3d1-    1 3d1-    1 3d1-    1 3d1-    1 3d1-    1 5g1-    1 5g3-    1 5g1-
                                   1 5g3-    1 5g1-    1 5g3-

   1.7   +    -0.3082   -9.4256  1.000231 -0.000127 -0.000065  0.000021 -0.000021  0.000039 -0.000296  0.000000  0.000000  0.000000
                                 0.000000  0.000000  0.000000

   2.7   0     0.1037   -2.2117 -0.258326 -0.025891  0.101854 -0.044668  1.082881 -0.025144  0.149629  0.000000  0.000000  0.000000
                                 0.000000  0.000000  0.000000

   3.7   0     0.4681   -3.6618  0.868178  0.474623 -0.874689  0.351628 -0.622714  0.174137 -1.043865  0.000000  0.000000  0.000000
                                 0.000000  0.000000  0.000000

                                   1 4f2-    1 4f2-    1 4f2-    1 4f2-    1 6h4-    1 6h2-    1 6h4-    1 6h2-

   1.8   0     0.8728   -4.2734  0.227785 -0.184261  1.083053 -0.109261  0.000000  0.000000  0.000000  0.000000

   2.8   0     2.1804   -3.8832 -0.469227  1.497532 -0.889435  0.366980  0.000000  0.000000  0.000000  0.000000

 HOMO      4.1    -0.308198 =      -8.3865eV
 LUMO      2.2     0.042835 =       1.1656eV
 LUMO-HOMO         0.351033 =       9.5521eV


 **********************************************************************************************************************************
 DATASETS  * FILE   NREC   LENGTH (MB)   RECORD NAMES
              1      20       21.90       500      610      700      900      950      970     1000      129      960     1100
                                          VAR    BASINP    GEOM    SYMINP    ZMAT    AOBASIS   BASIS     P2S    ABASIS      S
                                         1400     1410     1420     1200     1210     1080     1600     1650     1700     1380
                                           T        V       ECP      H0       H01     AOSYM     SMH    MOLCAS    OPER     JKOP

              2       8       11.17       200      700     1000      520     4202     4203     5202     2101
                                        OPTIONS   GEOM     BASIS   MCVARS     RHF     MCSCF    MCSCF     RHF

 PROGRAMS   *        TOTAL       RHF     MULTI     MULTI       POP       RHF       INT
 CPU TIMES  *         8.77      0.04      1.49      0.96      0.00      0.18      1.89
 REAL TIME  *         9.83 SEC
 DISK USED  *       454.66 MB
 SF USED    *        17.91 MB
 GA USED    *         0.00 MB       (max)       0.00 MB       (current)
 **********************************************************************************************************************************
    -->
    <time start="18:06:07" end="18:06:07" cpu="0.04" system="0.01" real="0.07"/>
    <storage units="megabyte" memory="4097.84" sf="17.91" df="355.64" eaf="99.03" ga="0.0"/>
   </jobstep><!--
   --><jobstep command="DATA" commandset="DATA">
    <!--


 RECORD   4202.2 RENAMED TO   4302.2


 **********************************************************************************************************************************
 DATASETS  * FILE   NREC   LENGTH (MB)   RECORD NAMES
              1      20       21.90       500      610      700      900      950      970     1000      129      960     1100
                                          VAR    BASINP    GEOM    SYMINP    ZMAT    AOBASIS   BASIS     P2S    ABASIS      S
                                         1400     1410     1420     1200     1210     1080     1600     1650     1700     1380
                                           T        V       ECP      H0       H01     AOSYM     SMH    MOLCAS    OPER     JKOP

              2       8       11.17       200      700     1000      520     4302     4203     5202     2101
                                        OPTIONS   GEOM     BASIS   MCVARS     RHF     MCSCF    MCSCF     RHF

 PROGRAMS   *        TOTAL      DATA       RHF     MULTI     MULTI       POP       RHF       INT
 CPU TIMES  *         8.78      0.00      0.04      1.49      0.96      0.00      0.18      1.89
 REAL TIME  *         9.84 SEC
 DISK USED  *       454.66 MB
 SF USED    *        17.91 MB
 GA USED    *         0.00 MB       (max)       0.00 MB       (current)
 **********************************************************************************************************************************
    -->
    <time start="18:06:07" end="18:06:07" cpu="0.01" system="0.0" real="0.01"/>
    <storage units="megabyte" memory="4097.84" sf="17.91" df="355.64" eaf="99.03" ga="0.0"/>
   </jobstep><!--
   --><jobstep command="DATA" commandset="DATA">
    <!--


 RECORD   4203.2 RENAMED TO   4303.2


 **********************************************************************************************************************************
 DATASETS  * FILE   NREC   LENGTH (MB)   RECORD NAMES
              1      20       21.90       500      610      700      900      950      970     1000      129      960     1100
                                          VAR    BASINP    GEOM    SYMINP    ZMAT    AOBASIS   BASIS     P2S    ABASIS      S
                                         1400     1410     1420     1200     1210     1080     1600     1650     1700     1380
                                           T        V       ECP      H0       H01     AOSYM     SMH    MOLCAS    OPER     JKOP

              2       8       11.17       200      700     1000      520     4302     4303     5202     2101
                                        OPTIONS   GEOM     BASIS   MCVARS     RHF     MCSCF    MCSCF     RHF

 PROGRAMS   *        TOTAL      DATA      DATA       RHF     MULTI     MULTI       POP       RHF       INT
 CPU TIMES  *         8.78      0.00      0.00      0.04      1.49      0.96      0.00      0.18      1.89
 REAL TIME  *         9.85 SEC
 DISK USED  *       454.66 MB
 SF USED    *        17.91 MB
 GA USED    *         0.00 MB       (max)       0.00 MB       (current)
 **********************************************************************************************************************************
    -->
    <time start="18:06:07" end="18:06:07" cpu="0.0" system="0.0" real="0.01"/>
    <storage units="megabyte" memory="4097.84" sf="17.91" df="355.64" eaf="99.03" ga="0.0"/>
   </jobstep><!--
   --><jobstep command="DATA" commandset="DATA">
    <!--


 RECORD   5202.2 RENAMED TO   5302.2


 **********************************************************************************************************************************
 DATASETS  * FILE   NREC   LENGTH (MB)   RECORD NAMES
              1      20       21.90       500      610      700      900      950      970     1000      129      960     1100
                                          VAR    BASINP    GEOM    SYMINP    ZMAT    AOBASIS   BASIS     P2S    ABASIS      S
                                         1400     1410     1420     1200     1210     1080     1600     1650     1700     1380
                                           T        V       ECP      H0       H01     AOSYM     SMH    MOLCAS    OPER     JKOP

              2       8       11.17       200      700     1000      520     4302     4303     5302     2101
                                        OPTIONS   GEOM     BASIS   MCVARS     RHF     MCSCF    MCSCF     RHF

 PROGRAMS   *        TOTAL      DATA      DATA      DATA       RHF     MULTI     MULTI       POP       RHF       INT
 CPU TIMES  *         8.79      0.00      0.00      0.00      0.04      1.49      0.96      0.00      0.18      1.89
 REAL TIME  *         9.85 SEC
 DISK USED  *       454.66 MB
 SF USED    *        17.91 MB
 GA USED    *         0.00 MB       (max)       0.00 MB       (current)
 **********************************************************************************************************************************
    -->
    <time start="18:06:07" end="18:06:07" cpu="0.01" system="0.0" real="0.0"/>
    <storage units="megabyte" memory="4097.84" sf="17.91" df="355.64" eaf="99.03" ga="0.0"/>
   </jobstep><!--
   --><jobstep command="CI" commandset="CIPRO">
    <!--


 Current variables in basis input:

 Set= 1  S_PAR(1)            =       1.06140000
 Set= 1  S_PAR(2)            =       0.66400000
 Set= 1  P_PAR(1)            =       2.37210000
 Set= 1  P_PAR(2)            =       1.48350000
 Set= 1  D_PAR(1)            =       3.28090000
 Set= 1  D_PAR(2)            =       1.28120000
 Set= 1  F_PAR(1)            =       2.14580000
 Set= 1  G_PAR(1)            =       2.62980000
 Set= 1  H_PAR(1)            =       1.03300000

 PROGRAM * CI (Multireference internally contracted CI)     Authors: H.-J. Werner, P.J. Knowles, 1987


 Convergence thresholds:  THRVAR = 1.00D-08  THRDEN = 1.00D-06

 Number of optimized states:  1  Roots:   1
 Number of reference states:  1  Roots:   1

 Reference symmetry:                   1   Quartet
 Number of electrons:                 17
 Maximum number of shells:             3
 Maximum number of spin couplings:    14

 Reference space:        1 conf        1 CSFs
 N elec internal:       85 conf       85 CSFs
 N-1 el internal:      136 conf      346 CSFs
 N-2 el internal:       52 conf      409 CSFs

 Number of electrons in valence space:                     17
 Maximum number of open shell orbitals in reference space:  3
 Maximum number of open shell orbitals in internal spaces:  7


 Number of closed-shell orbitals:   7 (   4   1   1   0   1   0   0   0 )
 Number of active  orbitals:        3 (   0   0   0   1   0   1   1   0 )
 Number of external orbitals:     134 (  27  21  21  12  21  12  12   8 )

 Molecular orbitals read from record     2101.2  Type=RHF/CANONICAL (state 1.1)

 Coulomb and exchange operators available. No transformation done.

 Number of p-space configurations:   1

 Reference wavefunction optimized for reference space (refopt=1)

 State     Reference Energy
   1        -103.66504098

 Number of blocks in overlap matrix:    94   Smallest eigenvalue:  0.10D+01
 Number of N-2 electron functions:      94
 Number of N-1 electron functions:     346

 Number of internal configurations:                    4
 Number of singly external configurations:          5436
 Number of doubly external configurations:        108060
 Total number of contracted configurations:       113500
 Total number of uncontracted configurations:     480667

 Diagonal Coupling coefficients finished.               Storage:   26483 words, CPU-Time:      0.00 seconds.
 Energy denominators for pairs finished in 1 passes.    Storage:   67198 words, CPU-time:      0.02 seconds.

  ITER. STATE  ROOT     SQ.NORM     CORR.ENERGY   TOTAL ENERGY   ENERGY CHANGE       DEN1      VAR(S)    VAR(P)      TIME
    1     1     1     1.00000000     0.00000000  -103.66504098    -0.00000000    -0.68783995  0.33D-01  0.14D+00     0.54
    2     1     1     1.10831971    -0.54276380  -104.20780478    -0.54276380    -0.01756771  0.20D-02  0.28D-02     0.61
    3     1     1     1.09756740    -0.55936792  -104.22440890    -0.01660412    -0.00024799  0.30D-04  0.54D-04     0.67
    4     1     1     1.09739323    -0.55963157  -104.22467255    -0.00026365    -0.00001020  0.31D-05  0.15D-05     0.73
    5     1     1     1.09755984    -0.55964303  -104.22468401    -0.00001146    -0.00000041  0.48D-07  0.74D-07     0.80
    6     1     1     1.09761014    -0.55964346  -104.22468444    -0.00000043    -0.00000001  0.34D-08  0.24D-08     0.89


 =====================================
 Analysis of CPU times by interactions
 =====================================

       I      S      P

 I   1.1%
 S   1.1%  11.2%
 P  18.0%  10.1%   5.6%

 Initialization:  25.8%
 Other:           27.0%

 Total CPU:        0.9 seconds
 =====================================



 Reference coefficients greater than 0.0500000
 =============================================
 222222/2//           0.9543834



 RESULTS FOR STATE 1.1
 =====================

 Coefficient of reference function:   C(0) = 0.95438336 (fixed)   0.95438336 (relaxed)

 Energy contributions of configuration classes

 CLASS          SQ.NORM        ECORR1        ECORR2
 +++++++++++++++++++++++++++++++++++++++++++++++++++
 Internals    0.00024449   -0.00152521   -0.00151386
 Singles      0.01770454   -0.08905787   -0.09014377
 Pairs        0.07992947   -0.46906037   -0.46798583
 Total        1.09787850   -0.55964346   -0.55964346
 +++++++++++++++++++++++++++++++++++++++++++++++++++


 Reference energy                    -103.66504098
 Nuclear energy                         0.00000000
 Kinetic energy                        35.16889043
 One electron energy                 -179.81144450
 Two electron energy                   75.58676007
 Virial quotient                       -2.96354770
 Correlation energy                    -0.55964346
 !CI(SD) STATE 1.1 Energy            -104.224684435957
    --><property name="Energy" method="CI(SD)" principal="true" stateSymmetry="1"
      stateNumber="1" value="-104.224684435957"/><!--

 Properties without orbital relaxation:

 !CI(SD) STATE 1.1 Dipole moment        0.00000000     0.00000000     0.00000000
 Dipole moment /Debye                   0.00000000     0.00000000     0.00000000
    --><property name="Dipole moment" method="CI(SD)" principal="true" stateSymmetry="1"
      stateNumber="1" value="0.0 0.0 0.0"/><!--

 Cluster corrected energies          -104.27946150 (Davidson, fixed reference)
 Cluster corrected energies          -104.27946150 (Davidson, relaxed reference)

 Cluster corrected energies          -104.27509723 (Pople, fixed reference)
 Cluster corrected energies          -104.27509723 (Pople, relaxed reference)



 **********************************************************************************************************************************
 DATASETS  * FILE   NREC   LENGTH (MB)   RECORD NAMES
              1      20       21.90       500      610      700      900      950      970     1000      129      960     1100
                                          VAR    BASINP    GEOM    SYMINP    ZMAT    AOBASIS   BASIS     P2S    ABASIS      S
                                         1400     1410     1420     1200     1210     1080     1600     1650     1700     1380
                                           T        V       ECP      H0       H01     AOSYM     SMH    MOLCAS    OPER     JKOP

              2       8       11.17       200      700     1000      520     4302     4303     5302     2101
                                        OPTIONS   GEOM     BASIS   MCVARS     RHF     MCSCF    MCSCF     RHF

 PROGRAMS   *        TOTAL        CI      DATA      DATA      DATA       RHF     MULTI     MULTI       POP       RHF       INT
 CPU TIMES  *         9.76      0.96      0.00      0.00      0.00      0.04      1.49      0.96      0.00      0.18      1.89
 REAL TIME  *        11.53 SEC
 DISK USED  *       454.66 MB
 SF USED    *        17.91 MB
 GA USED    *         0.00 MB       (max)       0.00 MB       (current)
