
 Primary working directories    : /global/cscratch1/sd/bkincaid
 Secondary working directories  : /global/cscratch1/sd/bkincaid
 Wavefunction directory         : /global/homes/b/bkincaid/wfu/
 Main file repository           : /global/cscratch1/sd/bkincaid/

 SHA1      : 19cd028119e0e09f93f0674bd8af7968d9b3eff6
 NAME      : 2015.1.36
 ARCHNAME  : linux/x86_64
 FC        : /opt/cray/pe/craype/2.5.14/bin/ftn
 BLASLIB   : -L/opt/intel/compilers_and_libraries_2018.1.163/linux/mkl/lib/intel64 -Wl,-_start-group -lmkl_intel_ilp64 -lmkl_intel_thread -lmkl_core -Wl,-_end-group -liomp5
 id        : lbl

 Nodes     nprocs
 nid00780    23
 Number of processes for MPI-2 version of Molpro:   nprocs(total)=   24   nprocs(compute)=   23   nprocs(helper)=    1

 Using customized tuning parameters: mindgm=7; mindgv=16; mindgc=1; mindgr=1; noblas=0; minvec=7
 default implementation of scratch files=sf  

 ***,Calculation for PdH groundstate
 memory,512,m
 gthresh,twoint=1.0E-12
 gthresh,throvl=1.0E-12
                                                                                 !symmetry,nosym
 
 
 basis={
 Including file /global/u1/b/bkincaid/molpro/Pd/molecules/PdH/tz/ecps/bk16.7/bk16.7
 Including file /global/u1/b/bkincaid/molpro/Pd/molecules/PdH/tz/ecps/bk16.7/Pd-aug-cc-pwCVTZ.basis
 ecp,H,0,1,0
 3
 1, 21.24359508259891,   1.00000000000000
 3, 21.24359508259891,  21.24359508259891
 2, 21.77696655044365, -10.85192405303825
 1
 2, 1.000000000000000,   0.00000000000000
 Including file /global/u1/b/bkincaid/molpro/Pd/molecules/PdH/tz/ecps/bk16.7/H-aug-cc-pVTZ.basis
 }
 
 ne = 19
 
 A1=5
 B1=2
 B2=2
 A2=1
 
 do i=1,11
 z(i) = 1.679 - 0.05*(i-1)
 geometry={
 2
 PdH
 Pd 0.0 0.0 0.0
 H 0.0 0.0 z(i)
 }
 {rhf
 wf,nelec=ne,spin=1,sym=1
 occ,A1,B1,B2,A2
 closed,A1-1,B1,B2,A2
 }
 scf(i)=energy
 _CC_NORM_MAX=2.0
 {rccsd(t);maxit,100;core}
 ccsd(i)=energy
 enddo
 
 table,z,scf,ccsd
 save
 type,csv

 Variables initialized (889), CPU time= 0.01 sec
 Commands  initialized (702), CPU time= 0.01 sec, 572 directives.
 Default parameters read. Elapsed time= 0.14 sec

 Checking input...
 Passed
1


                                         ***  PROGRAM SYSTEM MOLPRO  ***
                                       Copyright, TTI GmbH Stuttgart, 2015
                                    Version 2015.1 linked Dec 29 2018 15:55:43


 **********************************************************************************************************************************
 LABEL *   Calculation for PdH groundstate                                               
  64 bit mpp version                                                                     DATE: 21-Apr-21          TIME: 02:28:29  
 **********************************************************************************************************************************

 SHA1:             19cd028119e0e09f93f0674bd8af7968d9b3eff6
 **********************************************************************************************************************************

 THRESHOLDS:

 ZERO    =  1.00D-12  ONEINT  =  1.00D-12  TWOINT  =  1.00D-12  PREFAC  =  1.00D-14  LOCALI  =  1.00D-09  EORDER  =  1.00D-04
 ENERGY  =  0.00D+00  ETEST   =  0.00D+00  EDENS   =  0.00D+00  THRDEDEF=  1.00D-06  GRADIENT=  1.00D-02  STEP    =  1.00D-03
 ORBITAL =  1.00D-05  CIVEC   =  1.00D-05  COEFF   =  1.00D-04  PRINTCI =  5.00D-02  PUNCHCI =  9.90D+01  OPTGRAD =  3.00D-04
 OPTENERG=  1.00D-06  OPTSTEP =  3.00D-04  THRGRAD =  1.00D-10  COMPRESS=  1.00D-11  VARMIN  =  1.00D-07  VARMAX  =  1.00D-03
 THRDOUB =  0.00D+00  THRDIV  =  1.00D-05  THRRED  =  1.00D-07  THRPSP  =  1.00D+00  THRDC   =  1.00D-10  THRCS   =  1.00D-10
 THRNRM  =  1.00D-08  THREQ   =  0.00D+00  THRDE   =  1.00D+00  THRREF  =  1.00D-05  SPARFAC =  1.00D+00  THRDLP  =  1.00D-07
 THRDIA  =  1.00D-10  THRDLS  =  1.00D-07  THRGPS  =  0.00D+00  THRKEX  =  0.00D+00  THRDIS  =  2.00D-01  THRVAR  =  1.00D-10
 THRLOC  =  1.00D-06  THRGAP  =  1.00D-06  THRLOCT = -1.00D+00  THRGAPT = -1.00D+00  THRORB  =  1.00D-06  THRMLTP =  0.00D+00
 THRCPQCI=  1.00D-10  KEXTA   =  0.00D+00  THRCOARS=  0.00D+00  SYMTOL  =  1.00D-06  GRADTOL =  1.00D-06  THROVL  =  1.00D-08
 THRORTH =  1.00D-08  GRID    =  1.00D-06  GRIDMAX =  1.00D-03  DTMAX   =  0.00D+00  THROCCDE=  1.00D-01  THROCCDE=  1.00D-01



 THRESHOLDS:

 ZERO    =  1.00D-12  ONEINT  =  1.00D-12  TWOINT  =  1.00D-12  PREFAC  =  1.00D-14  LOCALI  =  1.00D-09  EORDER  =  1.00D-04
 ENERGY  =  0.00D+00  ETEST   =  0.00D+00  EDENS   =  0.00D+00  THRDEDEF=  1.00D-06  GRADIENT=  1.00D-02  STEP    =  1.00D-03
 ORBITAL =  1.00D-05  CIVEC   =  1.00D-05  COEFF   =  1.00D-04  PRINTCI =  5.00D-02  PUNCHCI =  9.90D+01  OPTGRAD =  3.00D-04
 OPTENERG=  1.00D-06  OPTSTEP =  3.00D-04  THRGRAD =  1.00D-10  COMPRESS=  1.00D-11  VARMIN  =  1.00D-07  VARMAX  =  1.00D-03
 THRDOUB =  0.00D+00  THRDIV  =  1.00D-05  THRRED  =  1.00D-07  THRPSP  =  1.00D+00  THRDC   =  1.00D-10  THRCS   =  1.00D-10
 THRNRM  =  1.00D-08  THREQ   =  0.00D+00  THRDE   =  1.00D+00  THRREF  =  1.00D-05  SPARFAC =  1.00D+00  THRDLP  =  1.00D-07
 THRDIA  =  1.00D-10  THRDLS  =  1.00D-07  THRGPS  =  0.00D+00  THRKEX  =  0.00D+00  THRDIS  =  2.00D-01  THRVAR  =  1.00D-10
 THRLOC  =  1.00D-06  THRGAP  =  1.00D-06  THRLOCT = -1.00D+00  THRGAPT = -1.00D+00  THRORB  =  1.00D-06  THRMLTP =  0.00D+00
 THRCPQCI=  1.00D-10  KEXTA   =  0.00D+00  THRCOARS=  0.00D+00  SYMTOL  =  1.00D-06  GRADTOL =  1.00D-06  THROVL  =  1.00D-12
 THRORTH =  1.00D-08  GRID    =  1.00D-06  GRIDMAX =  1.00D-03  DTMAX   =  0.00D+00  THROCCDE=  1.00D-01  THROCCDE=  1.00D-01



 Variable memory set to  512000000 words,  buffer space   230000 words

 SETTING BASIS          =    USERDEF
 SETTING NE             =        19.00000000                                  
 SETTING A1             =         5.00000000                                  
 SETTING B1             =         2.00000000                                  
 SETTING B2             =         2.00000000                                  
 SETTING A2             =         1.00000000                                  

 DO I                   =         1.00000000   
 SETTING Z(1)           =         1.67900000                                  

Geometry recognized as XYZ



 Recomputing integrals since basis changed


 Using spherical harmonics



 PROGRAM * SEWARD (Integral evaluation for generally contracted gaussian basis sets)     Author: Roland Lindh, 1990

 Geometry written to block  1 of record 700


 Point group  C2v 



 ATOMIC COORDINATES

 NR  ATOM    CHARGE       X              Y              Z

   1  PD     18.00    0.000000000    0.000000000    0.000000000
   2  H       1.00    0.000000000    0.000000000    3.172850163

 Bond lengths in Bohr (Angstrom)

 1-2  3.172850163
     ( 1.679000000)

 NUCLEAR CHARGE:                   19
 NUMBER OF PRIMITIVE AOS:         312
 NUMBER OF SYMMETRY AOS:          263
 NUMBER OF CONTRACTIONS:          263   ( 116A1  +  59B1  +  59B2  +  29A2  )
 NUMBER OF CORE ORBITALS:           4   (   2A1  +   1B1  +   1B2  +   0A2  )
 NUMBER OF VALENCE ORBITALS:        7   (   4A1  +   1B1  +   1B2  +   1A2  )


 NUCLEAR REPULSION ENERGY    5.67313270

 EXTRA SYMMETRY OF AOS IN SYMMETRY 1:   1 1 1 1 1 1 1 1 1 1   1 1 1 1 1 1 1 1 1 1   1 1 1 1 1 1 1 1 1 1   1 1 1 1 1 1 1 1 1 1
                                        1 1 1 1 1 1 1 1 1 1   1 1 1 2 1 2 1 2 1 2   1 2 1 2 1 2 1 2 1 2   1 2 1 2 1 2 1 2 1 2
                                        1 2 1 2 1 2 1 2 1 2   1 2 1 2 1 3 2 1 3 2   1 3 2 1 1 1 1 1 1 1   1 1 1 2 1 2
 EXTRA SYMMETRY OF AOS IN SYMMETRY 2:   1 1 1 1 1 1 1 1 1 1   1 1 1 1 1 1 1 1 1 1   1 1 1 1 1 1 1 1 1 1   1 1 1 1 1 1 1 1 1 1
                                        1 2 1 2 1 2 1 2 1 2   1 2 1 2 1 1 1 1 1
 EXTRA SYMMETRY OF AOS IN SYMMETRY 3:   1 1 1 1 1 1 1 1 1 1   1 1 1 1 1 1 1 1 1 1   1 1 1 1 1 1 1 1 1 1   1 1 1 1 1 1 1 1 1 1
                                        1 2 1 2 1 2 1 2 1 2   1 2 1 2 1 1 1 1 1
 EXTRA SYMMETRY OF AOS IN SYMMETRY 4:   1 1 1 1 1 1 1 1 1 1   1 1 1 1 1 1 1 1 1 1   1 1 2 1 2 1 2 1 1

 Eigenvalues of metric

         1 0.947E-06 0.194E-05 0.903E-05 0.951E-05 0.282E-04 0.119E-03 0.266E-03 0.274E-03
         2 0.982E-06 0.946E-05 0.304E-03 0.471E-03 0.163E-02 0.301E-02 0.406E-02 0.938E-02
         3 0.982E-06 0.946E-05 0.304E-03 0.471E-03 0.163E-02 0.301E-02 0.406E-02 0.938E-02
         4 0.951E-05 0.307E-03 0.302E-02 0.107E-01 0.287E-01 0.530E-01 0.879E-01 0.105E+00


 Contracted 2-electron integrals neglected if value below      1.0D-13
 AO integral compression algorithm  1   Integral accuracy      1.0D-13

     585.892 MB (compressed) written to integral file ( 42.7%)

     Node minimum: 5.243 MB, node maximum: 63.701 MB


 NUMBER OF SORTED TWO-ELECTRON INTEGRALS:    6738189.     BUFFER LENGTH:  32768
 NUMBER OF SEGMENTS:   1  SEGMENT LENGTH:    6738189      RECORD LENGTH: 524288

 Memory used in sort:       7.30 MW

 SORT1 READ   171363336. AND WROTE     2847112. INTEGRALS IN      9 RECORDS. CPU TIME:     9.03 SEC, REAL TIME:     9.30 SEC
 SORT2 READ    66858833. AND WROTE   156329493. INTEGRALS IN   2162 RECORDS. CPU TIME:     0.25 SEC, REAL TIME:     1.04 SEC

 Node minimum:     6738189.  Node maximum:     6815662. integrals

 OPERATOR DM      FOR CENTER  0  COORDINATES:    0.000000    0.000000    0.000000


 **********************************************************************************************************************************
 DATASETS  * FILE   NREC   LENGTH (MB)   RECORD NAMES
              1      19       20.83       500      610      700      900      950      970     1000      129      960     1100   
                                          VAR    BASINP    GEOM    SYMINP    ZMAT    AOBASIS   BASIS     P2S    ABASIS      S 
                                         1400     1410     1420     1200     1210     1080     1600     1650     1700   
                                           T        V       ECP      H0       H01     AOSYM     SMH    MOLCAS    OPER   

 PROGRAMS   *        TOTAL       INT
 CPU TIMES  *        26.47     25.62
 REAL TIME  *        29.86 SEC
 DISK USED  *         1.44 GB      
 GA USED    *         0.00 MB       (max)       0.00 MB       (current)
 **********************************************************************************************************************************


 PROGRAM * RHF-SCF (OPEN SHELL)       Authors: W. Meyer, H.-J. Werner


 NUMBER OF ELECTRONS:      10+    9-    SPACE SYMMETRY=1    SPIN SYMMETRY: Doublet 
 CONVERGENCE THRESHOLDS:    1.00E-05 (Density)    1.00E-07 (Energy)
 MAX. NUMBER OF ITERATIONS:       60
 INTERPOLATION TYPE:            DIIS
 INTERPOLATION STEPS:              2 (START)      1 (STEP)
 LEVEL SHIFTS:                 -0.60 (CLOSED) -0.30 (OPEN) 

 Number of closed-shell orbitals:    9 (   4   2   2   1 )
 Number of open-shell orbitals:      1 (   1   0   0   0 )


 Orbital guess generated from atomic densities. Full valence occupancy:    6   2   2   1

 Molecular orbital dump at record        2100.2

 ITERATION    DDIFF          GRAD             ENERGY        2-EL.EN.            DIPOLE MOMENTS         DIIS   ORB.
    1      0.000D+00      0.000D+00      -127.38589615    214.698097    0.00000    0.00000   -0.46593    0    start
    2      0.000D+00      0.537D-02      -127.40878710    210.483004    0.00000    0.00000   -0.84420    1    diag,B
    3      0.171D-02      0.348D-02      -127.41464504    211.294185    0.00000    0.00000   -0.88160    2    diag,B
    4      0.781D-03      0.113D-02      -127.41999719    211.036480    0.00000    0.00000   -1.03266    3    diag,B
    5      0.682D-03      0.757D-03      -127.42524273    210.736764    0.00000    0.00000   -1.18612    4    diag,B
    6      0.594D-03      0.584D-03      -127.43027212    210.415372    0.00000    0.00000   -1.33617    5    diag,B
    7      0.582D-03      0.468D-03      -127.43426973    210.114641    0.00000    0.00000   -1.45995    6    fixocc
    8      0.647D-03      0.264D-03      -127.43541914    209.920291    0.00000    0.00000   -1.51296    7    diag,B
    9      0.363D-03      0.165D-03      -127.43571640    209.863450    0.00000    0.00000   -1.54032    8    diag,B
   10      0.258D-03      0.960D-04      -127.43572296    209.838483    0.00000    0.00000   -1.54191    9    orth
   11      0.136D-03      0.632D-04      -127.43574423    209.828441    0.00000    0.00000   -1.54797    9    diag,B
   12      0.584D-04      0.188D-04      -127.43574695    209.828219    0.00000    0.00000   -1.55023    9    diag,B
   13      0.260D-04      0.725D-05      -127.43574762    209.828604    0.00000    0.00000   -1.55138    9    diag,B
   14      0.183D-04      0.391D-05      -127.43574777    209.828444    0.00000    0.00000   -1.55219    9    diag,B
   15      0.697D-05      0.285D-05      -127.43574780    209.828229    0.00000    0.00000   -1.55255    9    diag,B
   16      0.397D-05      0.149D-05      -127.43574781    209.828108    0.00000    0.00000   -1.55255    0    orth

 Final alpha occupancy:   5   2   2   1
 Final beta  occupancy:   4   2   2   1

 !RHF STATE 1.1 Energy               -127.435747807681
 Nuclear energy                         5.67313270
 One-electron energy                 -238.02293444
 Two-electron energy                  104.91405394
 Virial quotient                       -2.61550951
 !RHF STATE 1.1 Dipole moment           0.00000000     0.00000000    -1.55255157
 Dipole moment /Debye                   0.00000000     0.00000000    -3.94593401

 Orbital energies:

         1.1          2.1          3.1          4.1          5.1          6.1          7.1
     -4.019882    -2.568319    -0.430946    -0.404622    -0.409215     0.000421     0.031315

         1.2          2.2          3.2          4.2
     -2.565044    -0.453986     0.023580     0.080281

         1.3          2.3          3.3          4.3
     -2.565044    -0.453986     0.023580     0.080281

         1.4          2.4          3.4
     -0.430946     0.097439     0.324839

 HOMO      5.1    -0.409215 =     -11.1353eV
 LUMO      6.1     0.000421 =       0.0115eV
 LUMO-HOMO         0.409636 =      11.1468eV


 **********************************************************************************************************************************
 DATASETS  * FILE   NREC   LENGTH (MB)   RECORD NAMES
              1      19       20.87       500      610      700      900      950      970     1000      129      960     1100   
                                          VAR    BASINP    GEOM    SYMINP    ZMAT    AOBASIS   BASIS     P2S    ABASIS      S 
                                         1400     1410     1420     1200     1210     1080     1600     1650     1700   
                                           T        V       ECP      H0       H01     AOSYM     SMH    MOLCAS    OPER   

              2       4        3.40       700     1000      520     2100   
                                         GEOM     BASIS   MCVARS     RHF  

 PROGRAMS   *        TOTAL       RHF       INT
 CPU TIMES  *        29.26      2.79     25.62
 REAL TIME  *        33.10 SEC
 DISK USED  *         2.07 GB      
 SF USED    *         0.09 MB      
 GA USED    *         0.00 MB       (max)       0.00 MB       (current)
 **********************************************************************************************************************************
 SETTING SCF(1)         =      -127.43574781  AU                              
 SETTING _CC_NORM_MAX   =         2.00000000                                  


 PROGRAM * CCSD (Restricted open-shell coupled cluster)     Authors: C. Hampel, H.-J. Werner, 1991, M. Deegan, P.J. Knowles, 1992


 Convergence thresholds:  THRVAR = 1.00D-08  THRDEN = 1.00D-06

 CCSD(T)     terms to be evaluated (factor= 1.000)


 Number of closed-shell orbitals:   9 (   4   2   2   1 )
 Number of active  orbitals:        1 (   1   0   0   0 )
 Number of external orbitals:     253 ( 111  57  57  28 )

 Memory could be reduced to 77.45 Mwords without degradation in triples

 Number of N-1 electron functions:              19
 Number of N-2 electron functions:             171
 Number of singly external CSFs:              1520
 Number of doubly external CSFs:           2149669
 Total number of CSFs:                     2151189

 Molecular orbitals read from record     2100.2  Type=RHF/CANONICAL (state 1.1)

 Integral transformation finished. Total CPU:   2.29 sec, npass=  1  Memory used:   6.84 MW

 Starting RMP2 calculation

 Wavefunction is spin-projected

 ITER.      SQ.NORM     CORR.ENERGY   TOTAL ENERGY   ENERGY CHANGE        DEN1      VAR(S)    VAR(P)  DIIS     TIME
   1      1.14652815    -0.76855164  -128.20429945    -0.76855164    -0.00136446  0.15D-04  0.56D-03  1  1     4.12
   2      1.14792735    -0.77000635  -128.20575415    -0.00145471    -0.00000884  0.83D-06  0.55D-05  2  2     5.80
   3      1.14805213    -0.77007393  -128.20582174    -0.00006759    -0.00000009  0.27D-07  0.58D-07  3  3     7.45
   4      1.14805812    -0.77007522  -128.20582303    -0.00000129    -0.00000000  0.55D-09  0.66D-09  4  4     9.24
   5      1.14805829    -0.77007523  -128.20582304    -0.00000001    -0.00000000  0.12D-10  0.89D-11  5  5    10.90

 Norm of t1 vector:      0.02951921      S-energy:    -0.00253500      T1 diagnostic:  0.00075950
 Norm of t2 vector:      0.38364946      P-energy:    -0.76754023
                                         Alpha-Beta:  -0.53596776
                                         Alpha-Alpha: -0.12649405
                                         Beta-Beta:   -0.10507842

 Spin contamination <S**2-Sz**2-Sz>     0.00000000
  Reference energy                   -127.435747807681
  RHF-RMP2 correlation energy          -0.770075232632
 !RHF-RMP2 energy                    -128.205823040313
 (NB above energy spin projected)

 Starting RCCSD calculation

 ITER.      SQ.NORM     CORR.ENERGY   TOTAL ENERGY   ENERGY CHANGE        DEN1      VAR(S)    VAR(P)  DIIS     TIME
   1      1.13063830    -0.72285931  -128.15860712    -0.72285931    -0.01913549  0.60D-02  0.33D-02  1  1    14.60
   2      1.14559418    -0.73902194  -128.17476975    -0.01616263    -0.00203608  0.87D-03  0.60D-03  2  2    18.30
   3      1.15811901    -0.74158400  -128.17733181    -0.00256206    -0.00065688  0.74D-03  0.73D-04  3  3    22.12
   4      1.17151265    -0.74370290  -128.17945071    -0.00211890    -0.00024134  0.26D-03  0.34D-04  4  4    26.07
   5      1.18743129    -0.74523723  -128.18098503    -0.00153432    -0.00006397  0.62D-04  0.12D-04  5  5    29.85
   6      1.19603815    -0.74573782  -128.18148563    -0.00050060    -0.00001608  0.16D-04  0.29D-05  6  6    33.67
   7      1.20167735    -0.74606142  -128.18180923    -0.00032360    -0.00000408  0.38D-05  0.82D-06  6  2    37.52
   8      1.20194540    -0.74603848  -128.18178629     0.00002294    -0.00000071  0.53D-06  0.17D-06  6  1    41.71
   9      1.20271168    -0.74607728  -128.18182509    -0.00003880    -0.00000012  0.97D-07  0.30D-07  6  4    45.90
  10      1.20265067    -0.74607218  -128.18181999     0.00000510    -0.00000002  0.19D-07  0.49D-08  6  3    49.63
  11      1.20267680    -0.74607311  -128.18182092    -0.00000093    -0.00000001  0.66D-08  0.11D-08  6  5    53.75

 Norm of t1 vector:      0.23156410      S-energy:    -0.00261799      T1 diagnostic:  0.03704633
                                                                       D1 diagnostic:  0.11486515
 Norm of t2 vector:      0.38607624      P-energy:    -0.74345512
                                         Alpha-Beta:  -0.53893150
                                         Alpha-Alpha: -0.11093763
                                         Beta-Beta:   -0.09358600

 Singles amplitudes (print threshold =  0.500E-01):

         I         SYM. A    A   T(IA) [Alpha-Alpha]

         5         1         2      0.06898473
         5         1         4      0.06364066
 
         I         SYM. A    A   T(IA) [Beta-Beta]

         4         1         1     -0.16240520

 Spin contamination <S**2-Sz**2-Sz>     0.00000000

 Memory could be reduced to 80.80 Mwords without degradation in triples
 

  Correlated core orbitals:             1.1       2.1       1.2       1.3
  Orbital energies:                    -4.0477   -2.6307   -2.5846   -2.5846
 
  RCCSD core-core energy               -0.117317052131
  RCCSD core-valence energy            -0.260253247309
  RCCSD valence correlation energy     -0.368502814338
 

 RESULTS
 =======

  Reference energy                   -127.435747807681
  RCCSD singles energy                 -0.002617994027
  RCCSD pair energy                    -0.743455119751
  RCCSD correlation energy             -0.746073113778
  Triples (T) contribution             -0.029893796901
  Total correlation energy             -0.775966910680
 
  RHF-RCCSD energy                   -128.181820921459
  RHF-RCCSD[T] energy                -128.214148450499
  RHF-RCCSD-T energy                 -128.211528578729
 !RHF-RCCSD(T) energy                -128.211714718361

 Program statistics:

 Available memory in ccsd:               511999000
 Min. memory needed in ccsd:               6371840
 Max. memory used in ccsd:                 8994336
 Max. memory used in cckext:               7244967 (11 integral passes)
 Max. memory used in cckint:               6842122 ( 1 integral passes)



 **********************************************************************************************************************************
 DATASETS  * FILE   NREC   LENGTH (MB)   RECORD NAMES
              1      19       20.87       500      610      700      900      950      970     1000      129      960     1100   
                                          VAR    BASINP    GEOM    SYMINP    ZMAT    AOBASIS   BASIS     P2S    ABASIS      S 
                                         1400     1410     1420     1200     1210     1080     1600     1650     1700   
                                           T        V       ECP      H0       H01     AOSYM     SMH    MOLCAS    OPER   

              2       4        3.40       700     1000      520     2100   
                                         GEOM     BASIS   MCVARS     RHF  

 PROGRAMS   *        TOTAL  RCCSD(T)       RHF       INT
 CPU TIMES  *       109.77     80.51      2.79     25.62
 REAL TIME  *       144.20 SEC
 DISK USED  *         8.20 GB      
 SF USED    *         1.24 GB      
 GA USED    *         0.00 MB       (max)       0.00 MB       (current)
 **********************************************************************************************************************************
 SETTING CCSD(1)        =      -128.21171472  AU                              

 DO I                   =         2.00000000   
 SETTING Z(2)           =         1.62900000                                  

Geometry recognized as XYZ



 Recomputing integrals since geometry changed


 PROGRAM * SEWARD (Integral evaluation for generally contracted gaussian basis sets)     Author: Roland Lindh, 1990

 Geometry written to block  1 of record 700


 Point group  C2v 



 ATOMIC COORDINATES

 NR  ATOM    CHARGE       X              Y              Z

   1  PD     18.00    0.000000000    0.000000000    0.000000000
   2  H       1.00    0.000000000    0.000000000    3.078363857

 Bond lengths in Bohr (Angstrom)

 1-2  3.078363857
     ( 1.629000000)

 NUCLEAR CHARGE:                   19
 NUMBER OF PRIMITIVE AOS:         312
 NUMBER OF SYMMETRY AOS:          263
 NUMBER OF CONTRACTIONS:          263   ( 116A1  +  59B1  +  59B2  +  29A2  )
 NUMBER OF CORE ORBITALS:           4   (   2A1  +   1B1  +   1B2  +   0A2  )
 NUMBER OF VALENCE ORBITALS:        7   (   4A1  +   1B1  +   1B2  +   1A2  )


 NUCLEAR REPULSION ENERGY    5.84726200

 EXTRA SYMMETRY OF AOS IN SYMMETRY 1:   1 1 1 1 1 1 1 1 1 1   1 1 1 1 1 1 1 1 1 1   1 1 1 1 1 1 1 1 1 1   1 1 1 1 1 1 1 1 1 1
                                        1 1 1 1 1 1 1 1 1 1   1 1 1 2 1 2 1 2 1 2   1 2 1 2 1 2 1 2 1 2   1 2 1 2 1 2 1 2 1 2
                                        1 2 1 2 1 2 1 2 1 2   1 2 1 2 1 3 2 1 3 2   1 3 2 1 1 1 1 1 1 1   1 1 1 2 1 2
 EXTRA SYMMETRY OF AOS IN SYMMETRY 2:   1 1 1 1 1 1 1 1 1 1   1 1 1 1 1 1 1 1 1 1   1 1 1 1 1 1 1 1 1 1   1 1 1 1 1 1 1 1 1 1
                                        1 2 1 2 1 2 1 2 1 2   1 2 1 2 1 1 1 1 1
 EXTRA SYMMETRY OF AOS IN SYMMETRY 3:   1 1 1 1 1 1 1 1 1 1   1 1 1 1 1 1 1 1 1 1   1 1 1 1 1 1 1 1 1 1   1 1 1 1 1 1 1 1 1 1
                                        1 2 1 2 1 2 1 2 1 2   1 2 1 2 1 1 1 1 1
 EXTRA SYMMETRY OF AOS IN SYMMETRY 4:   1 1 1 1 1 1 1 1 1 1   1 1 1 1 1 1 1 1 1 1   1 1 2 1 2 1 2 1 1

 Eigenvalues of metric

         1 0.939E-06 0.194E-05 0.901E-05 0.951E-05 0.280E-04 0.119E-03 0.225E-03 0.272E-03
         2 0.982E-06 0.946E-05 0.304E-03 0.471E-03 0.163E-02 0.301E-02 0.405E-02 0.935E-02
         3 0.982E-06 0.946E-05 0.304E-03 0.471E-03 0.163E-02 0.301E-02 0.405E-02 0.935E-02
         4 0.951E-05 0.307E-03 0.302E-02 0.107E-01 0.287E-01 0.530E-01 0.873E-01 0.105E+00


 Contracted 2-electron integrals neglected if value below      1.0D-13
 AO integral compression algorithm  1   Integral accuracy      1.0D-13

     588.775 MB (compressed) written to integral file ( 42.9%)

     Node minimum: 4.981 MB, node maximum: 63.701 MB


 NUMBER OF SORTED TWO-ELECTRON INTEGRALS:    6738189.     BUFFER LENGTH:  32768
 NUMBER OF SEGMENTS:   1  SEGMENT LENGTH:    6738189      RECORD LENGTH: 524288

 Memory used in sort:       7.30 MW

 SORT1 READ   171363336. AND WROTE     2857933. INTEGRALS IN      9 RECORDS. CPU TIME:     4.73 SEC, REAL TIME:     4.90 SEC
 SORT2 READ    67105292. AND WROTE   156329493. INTEGRALS IN   1610 RECORDS. CPU TIME:     0.60 SEC, REAL TIME:     0.93 SEC

 Node minimum:     6738189.  Node maximum:     6815662. integrals

 OPERATOR DM      FOR CENTER  0  COORDINATES:    0.000000    0.000000    0.000000


 **********************************************************************************************************************************
 DATASETS  * FILE   NREC   LENGTH (MB)   RECORD NAMES
              1      19       20.83       500      610      700      900      950      970     1000      129      960     1100   
                                          VAR    BASINP    GEOM    SYMINP    ZMAT    AOBASIS   BASIS     P2S    ABASIS      S 
                                         1400     1410     1420     1200     1210     1080     1600     1650     1700   
                                           T        V       ECP      H0       H01     AOSYM     SMH    MOLCAS    OPER   

              2       4        3.40       700     1000      520     2100   
                                         GEOM     BASIS   MCVARS     RHF  

 PROGRAMS   *        TOTAL       INT  RCCSD(T)       RHF       INT
 CPU TIMES  *       131.95     22.18     80.51      2.79     25.62
 REAL TIME  *       167.85 SEC
 DISK USED  *         8.32 GB      
 SF USED    *         1.24 GB      
 GA USED    *         0.00 MB       (max)       0.00 MB       (current)
 **********************************************************************************************************************************


 PROGRAM * RHF-SCF (OPEN SHELL)       Authors: W. Meyer, H.-J. Werner


 NUMBER OF ELECTRONS:      10+    9-    SPACE SYMMETRY=1    SPIN SYMMETRY: Doublet 
 CONVERGENCE THRESHOLDS:    1.00E-05 (Density)    1.00E-07 (Energy)
 MAX. NUMBER OF ITERATIONS:       60
 INTERPOLATION TYPE:            DIIS
 INTERPOLATION STEPS:              2 (START)      1 (STEP)
 LEVEL SHIFTS:                 -0.60 (CLOSED) -0.30 (OPEN) 

 Number of closed-shell orbitals:    9 (   4   2   2   1 )
 Number of open-shell orbitals:      1 (   1   0   0   0 )


 Molecular orbitals read from record     2100.2  Type=RHF/CANONICAL (state 1.1)

 Molecular orbital dump at record        2100.2

 ITERATION    DDIFF          GRAD             ENERGY        2-EL.EN.            DIPOLE MOMENTS         DIIS   ORB.
    1      0.000D+00      0.000D+00      -127.43579754    210.171984    0.00000    0.00000   -1.51969    0    start
    2      0.000D+00      0.221D-02      -127.43603796    210.178569    0.00000    0.00000   -1.52223    1    diag,B
    3      0.200D-03      0.134D-03      -127.43608869    210.195226    0.00000    0.00000   -1.51588    2    diag,B
    4      0.523D-04      0.806D-04      -127.43613379    210.209936    0.00000    0.00000   -1.50785    3    diag,B
    5      0.513D-04      0.534D-04      -127.43617050    210.231304    0.00000    0.00000   -1.49664    4    diag,B
    6      0.504D-04      0.353D-04      -127.43619197    210.249563    0.00000    0.00000   -1.48494    5    diag,B
    7      0.520D-04      0.152D-04      -127.43619523    210.258244    0.00000    0.00000   -1.48074    6    diag,B
    8      0.214D-04      0.660D-05      -127.43619551    210.258936    0.00000    0.00000   -1.48029    7    orth
    9      0.796D-05      0.322D-05      -127.43619556    210.259442    0.00000    0.00000   -1.48063    8    diag,B
   10      0.591D-05      0.153D-05      -127.43619557    210.259543    0.00000    0.00000   -1.48068    0    orth

 Final alpha occupancy:   5   2   2   1
 Final beta  occupancy:   4   2   2   1

 !RHF STATE 1.1 Energy               -127.436195571767
 Nuclear energy                         5.84726200
 One-electron energy                 -238.41322887
 Two-electron energy                  105.12977130
 Virial quotient                       -2.61458275
 !RHF STATE 1.1 Dipole moment           0.00000000     0.00000000    -1.48068424
 Dipole moment /Debye                   0.00000000     0.00000000    -3.76327744

 Orbital energies:

         1.1          2.1          3.1          4.1          5.1          6.1          7.1
     -4.016669    -2.565847    -0.427634    -0.416299    -0.395138     0.001916     0.030901

         1.2          2.2          3.2          4.2
     -2.561627    -0.450981     0.023733     0.080521

         1.3          2.3          3.3          4.3
     -2.561627    -0.450981     0.023733     0.080521

         1.4          2.4          3.4
     -0.427634     0.097688     0.325631

 HOMO      5.1    -0.395138 =     -10.7522eV
 LUMO      6.1     0.001916 =       0.0521eV
 LUMO-HOMO         0.397054 =      10.8044eV


 **********************************************************************************************************************************
 DATASETS  * FILE   NREC   LENGTH (MB)   RECORD NAMES
              1      19       20.87       500      610      700      900      950      970     1000      129      960     1100   
                                          VAR    BASINP    GEOM    SYMINP    ZMAT    AOBASIS   BASIS     P2S    ABASIS      S 
                                         1400     1410     1420     1200     1210     1080     1600     1650     1700   
                                           T        V       ECP      H0       H01     AOSYM     SMH    MOLCAS    OPER   

              2       4        3.40       700     1000      520     2100   
                                         GEOM     BASIS   MCVARS     RHF  

 PROGRAMS   *        TOTAL       RHF       INT  RCCSD(T)       RHF       INT
 CPU TIMES  *       133.62      1.60     22.18     80.51      2.79     25.62
 REAL TIME  *       169.97 SEC
 DISK USED  *         8.32 GB      
 SF USED    *         1.24 GB      
 GA USED    *         0.00 MB       (max)       0.00 MB       (current)
 **********************************************************************************************************************************
 SETTING SCF(2)         =      -127.43619557  AU                              
 SETTING _CC_NORM_MAX   =         2.00000000                                  


 PROGRAM * CCSD (Restricted open-shell coupled cluster)     Authors: C. Hampel, H.-J. Werner, 1991, M. Deegan, P.J. Knowles, 1992


 Convergence thresholds:  THRVAR = 1.00D-08  THRDEN = 1.00D-06

 CCSD(T)     terms to be evaluated (factor= 1.000)


 Number of closed-shell orbitals:   9 (   4   2   2   1 )
 Number of active  orbitals:        1 (   1   0   0   0 )
 Number of external orbitals:     253 ( 111  57  57  28 )

 Memory could be reduced to 80.26 Mwords without degradation in triples

 Number of N-1 electron functions:              19
 Number of N-2 electron functions:             171
 Number of singly external CSFs:              1520
 Number of doubly external CSFs:           2149669
 Total number of CSFs:                     2151189

 Molecular orbitals read from record     2100.2  Type=RHF/CANONICAL (state 1.1)

 Integral transformation finished. Total CPU:   2.19 sec, npass=  1  Memory used:   6.84 MW

 Starting RMP2 calculation

 Wavefunction is spin-projected

 ITER.      SQ.NORM     CORR.ENERGY   TOTAL ENERGY   ENERGY CHANGE        DEN1      VAR(S)    VAR(P)  DIIS     TIME
   1      1.14795494    -0.77292846  -128.20912403    -0.77292846    -0.00136249  0.16D-04  0.55D-03  1  1     3.54
   2      1.14933803    -0.77438030  -128.21057587    -0.00145184    -0.00000836  0.85D-06  0.51D-05  2  2     4.98
   3      1.14945701    -0.77444539  -128.21064096    -0.00006509    -0.00000009  0.27D-07  0.50D-07  3  3     6.65
   4      1.14946251    -0.77444656  -128.21064213    -0.00000117    -0.00000000  0.53D-09  0.55D-09  4  4     8.31
   5      1.14946266    -0.77444657  -128.21064215    -0.00000002    -0.00000000  0.11D-10  0.72D-11  5  5     9.71

 Norm of t1 vector:      0.02988246      S-energy:    -0.00247553      T1 diagnostic:  0.00076987
 Norm of t2 vector:      0.38544740      P-energy:    -0.77197105
                                         Alpha-Beta:  -0.53847415
                                         Alpha-Alpha: -0.12729206
                                         Beta-Beta:   -0.10620483

 Spin contamination <S**2-Sz**2-Sz>     0.00000000
  Reference energy                   -127.436195571767
  RHF-RMP2 correlation energy          -0.774446573807
 !RHF-RMP2 energy                    -128.210642145574
 (NB above energy spin projected)

 Starting RCCSD calculation

 ITER.      SQ.NORM     CORR.ENERGY   TOTAL ENERGY   ENERGY CHANGE        DEN1      VAR(S)    VAR(P)  DIIS     TIME
   1      1.13068122    -0.72535279  -128.16154836    -0.72535279    -0.01943049  0.59D-02  0.33D-02  1  1    13.29
   2      1.14538688    -0.74172919  -128.17792476    -0.01637641    -0.00197742  0.84D-03  0.58D-03  2  2    16.55
   3      1.15718239    -0.74415100  -128.18034658    -0.00242181    -0.00062262  0.70D-03  0.67D-04  3  3    19.78
   4      1.16976917    -0.74617857  -128.18237414    -0.00202756    -0.00022265  0.24D-03  0.31D-04  4  4    23.09
   5      1.18422517    -0.74760485  -128.18380042    -0.00142628    -0.00005829  0.57D-04  0.10D-04  5  5    26.44
   6      1.19166677    -0.74803807  -128.18423365    -0.00043322    -0.00001486  0.16D-04  0.25D-05  6  6    29.85
   7      1.19679311    -0.74833954  -128.18453511    -0.00030147    -0.00000367  0.36D-05  0.66D-06  6  2    33.56
   8      1.19710178    -0.74831984  -128.18451541     0.00001970    -0.00000063  0.47D-06  0.15D-06  6  1    36.93
   9      1.19771202    -0.74834959  -128.18454516    -0.00002974    -0.00000012  0.10D-06  0.26D-07  6  4    40.24
  10      1.19769290    -0.74834618  -128.18454175     0.00000340    -0.00000003  0.26D-07  0.51D-08  6  3    43.68
  11      1.19771137    -0.74834628  -128.18454185    -0.00000010    -0.00000001  0.10D-07  0.15D-08  6  5    46.99
  12      1.19768138    -0.74834172  -128.18453729     0.00000456    -0.00000000  0.27D-08  0.42D-09  6  1    50.99
  13      1.19767807    -0.74834092  -128.18453649     0.00000080    -0.00000000  0.74D-09  0.17D-09  6  6    54.84

 Norm of t1 vector:      0.22322385      S-energy:    -0.00252057      T1 diagnostic:  0.03571149
                                                                       D1 diagnostic:  0.10717184
 Norm of t2 vector:      0.38451162      P-energy:    -0.74582035
                                         Alpha-Beta:  -0.54025332
                                         Alpha-Alpha: -0.11136952
                                         Beta-Beta:   -0.09419751

 Singles amplitudes (print threshold =  0.500E-01):

         I         SYM. A    A   T(IA) [Alpha-Alpha]

         5         1         2      0.06895955
         5         1         4      0.06644353
 
         I         SYM. A    A   T(IA) [Beta-Beta]

         4         1         1     -0.15151130

 Spin contamination <S**2-Sz**2-Sz>     0.00000000

 Memory could be reduced to 80.80 Mwords without degradation in triples
 

  Correlated core orbitals:             1.1       2.1       1.2       1.3
  Orbital energies:                    -4.0434   -2.6255   -2.5803   -2.5803
 
  RCCSD core-core energy               -0.117161966329
  RCCSD core-valence energy            -0.260431875558
  RCCSD valence correlation energy     -0.370747073344
 

 RESULTS
 =======

  Reference energy                   -127.436195571767
  RCCSD singles energy                 -0.002520566607
  RCCSD pair energy                    -0.745820348624
  RCCSD correlation energy             -0.748340915231
  Triples (T) contribution             -0.030125617353
  Total correlation energy             -0.778466532584
 
  RHF-RCCSD energy                   -128.184536486997
  RHF-RCCSD[T] energy                -128.216994144976
  RHF-RCCSD-T energy                 -128.214474622357
 !RHF-RCCSD(T) energy                -128.214662104350

 Program statistics:

 Available memory in ccsd:               511999000
 Min. memory needed in ccsd:               6371840
 Max. memory used in ccsd:                 8994336
 Max. memory used in cckext:               7244967 (13 integral passes)
 Max. memory used in cckint:               6842122 ( 1 integral passes)



 **********************************************************************************************************************************
 DATASETS  * FILE   NREC   LENGTH (MB)   RECORD NAMES
              1      19       20.87       500      610      700      900      950      970     1000      129      960     1100   
                                          VAR    BASINP    GEOM    SYMINP    ZMAT    AOBASIS   BASIS     P2S    ABASIS      S 
                                         1400     1410     1420     1200     1210     1080     1600     1650     1700   
                                           T        V       ECP      H0       H01     AOSYM     SMH    MOLCAS    OPER   

              2       4        3.40       700     1000      520     2100   
                                         GEOM     BASIS   MCVARS     RHF  

 PROGRAMS   *        TOTAL  RCCSD(T)       RHF       INT  RCCSD(T)       RHF       INT
 CPU TIMES  *       215.21     81.59      1.60     22.18     80.51      2.79     25.62
 REAL TIME  *       279.46 SEC
 DISK USED  *         8.32 GB      
 SF USED    *         1.24 GB      
 GA USED    *         0.00 MB       (max)       0.00 MB       (current)
 **********************************************************************************************************************************
 SETTING CCSD(2)        =      -128.21466210  AU                              

 DO I                   =         3.00000000   
 SETTING Z(3)           =         1.57900000                                  

Geometry recognized as XYZ



 Recomputing integrals since geometry changed


 PROGRAM * SEWARD (Integral evaluation for generally contracted gaussian basis sets)     Author: Roland Lindh, 1990

 Geometry written to block  1 of record 700


 Point group  C2v 



 ATOMIC COORDINATES

 NR  ATOM    CHARGE       X              Y              Z

   1  PD     18.00    0.000000000    0.000000000    0.000000000
   2  H       1.00    0.000000000    0.000000000    2.983877551

 Bond lengths in Bohr (Angstrom)

 1-2  2.983877551
     ( 1.579000000)

 NUCLEAR CHARGE:                   19
 NUMBER OF PRIMITIVE AOS:         312
 NUMBER OF SYMMETRY AOS:          263
 NUMBER OF CONTRACTIONS:          263   ( 116A1  +  59B1  +  59B2  +  29A2  )
 NUMBER OF CORE ORBITALS:           4   (   2A1  +   1B1  +   1B2  +   0A2  )
 NUMBER OF VALENCE ORBITALS:        7   (   4A1  +   1B1  +   1B2  +   1A2  )


 NUCLEAR REPULSION ENERGY    6.03241912

 EXTRA SYMMETRY OF AOS IN SYMMETRY 1:   1 1 1 1 1 1 1 1 1 1   1 1 1 1 1 1 1 1 1 1   1 1 1 1 1 1 1 1 1 1   1 1 1 1 1 1 1 1 1 1
                                        1 1 1 1 1 1 1 1 1 1   1 1 1 2 1 2 1 2 1 2   1 2 1 2 1 2 1 2 1 2   1 2 1 2 1 2 1 2 1 2
                                        1 2 1 2 1 2 1 2 1 2   1 2 1 2 1 3 2 1 3 2   1 3 2 1 1 1 1 1 1 1   1 1 1 2 1 2
 EXTRA SYMMETRY OF AOS IN SYMMETRY 2:   1 1 1 1 1 1 1 1 1 1   1 1 1 1 1 1 1 1 1 1   1 1 1 1 1 1 1 1 1 1   1 1 1 1 1 1 1 1 1 1
                                        1 2 1 2 1 2 1 2 1 2   1 2 1 2 1 1 1 1 1
 EXTRA SYMMETRY OF AOS IN SYMMETRY 3:   1 1 1 1 1 1 1 1 1 1   1 1 1 1 1 1 1 1 1 1   1 1 1 1 1 1 1 1 1 1   1 1 1 1 1 1 1 1 1 1
                                        1 2 1 2 1 2 1 2 1 2   1 2 1 2 1 1 1 1 1
 EXTRA SYMMETRY OF AOS IN SYMMETRY 4:   1 1 1 1 1 1 1 1 1 1   1 1 1 1 1 1 1 1 1 1   1 1 2 1 2 1 2 1 1

 Eigenvalues of metric

         1 0.930E-06 0.193E-05 0.898E-05 0.951E-05 0.277E-04 0.119E-03 0.188E-03 0.272E-03
         2 0.982E-06 0.947E-05 0.304E-03 0.471E-03 0.163E-02 0.301E-02 0.405E-02 0.931E-02
         3 0.982E-06 0.947E-05 0.304E-03 0.471E-03 0.163E-02 0.301E-02 0.405E-02 0.931E-02
         4 0.951E-05 0.307E-03 0.302E-02 0.107E-01 0.287E-01 0.530E-01 0.866E-01 0.105E+00


 Contracted 2-electron integrals neglected if value below      1.0D-13
 AO integral compression algorithm  1   Integral accuracy      1.0D-13

     591.397 MB (compressed) written to integral file ( 43.1%)

     Node minimum: 3.932 MB, node maximum: 63.701 MB


 NUMBER OF SORTED TWO-ELECTRON INTEGRALS:    6738189.     BUFFER LENGTH:  32768
 NUMBER OF SEGMENTS:   1  SEGMENT LENGTH:    6738189      RECORD LENGTH: 524288

 Memory used in sort:       7.30 MW

 SORT1 READ   171363336. AND WROTE     2867609. INTEGRALS IN      9 RECORDS. CPU TIME:     6.51 SEC, REAL TIME:     7.63 SEC
 SORT2 READ    67333241. AND WROTE   156329493. INTEGRALS IN   2990 RECORDS. CPU TIME:     0.55 SEC, REAL TIME:     0.74 SEC

 Node minimum:     6738189.  Node maximum:     6815662. integrals

 OPERATOR DM      FOR CENTER  0  COORDINATES:    0.000000    0.000000    0.000000


 **********************************************************************************************************************************
 DATASETS  * FILE   NREC   LENGTH (MB)   RECORD NAMES
              1      19       20.83       500      610      700      900      950      970     1000      129      960     1100   
                                          VAR    BASINP    GEOM    SYMINP    ZMAT    AOBASIS   BASIS     P2S    ABASIS      S 
                                         1400     1410     1420     1200     1210     1080     1600     1650     1700   
                                           T        V       ECP      H0       H01     AOSYM     SMH    MOLCAS    OPER   

              2       4        3.40       700     1000      520     2100   
                                         GEOM     BASIS   MCVARS     RHF  

 PROGRAMS   *        TOTAL       INT  RCCSD(T)       RHF       INT  RCCSD(T)       RHF       INT
 CPU TIMES  *       238.44     23.23     81.59      1.60     22.18     80.51      2.79     25.62
 REAL TIME  *       304.87 SEC
 DISK USED  *         8.47 GB      
 SF USED    *         1.24 GB      
 GA USED    *         0.00 MB       (max)       0.00 MB       (current)
 **********************************************************************************************************************************


 PROGRAM * RHF-SCF (OPEN SHELL)       Authors: W. Meyer, H.-J. Werner


 NUMBER OF ELECTRONS:      10+    9-    SPACE SYMMETRY=1    SPIN SYMMETRY: Doublet 
 CONVERGENCE THRESHOLDS:    1.00E-05 (Density)    1.00E-07 (Energy)
 MAX. NUMBER OF ITERATIONS:       60
 INTERPOLATION TYPE:            DIIS
 INTERPOLATION STEPS:              2 (START)      1 (STEP)
 LEVEL SHIFTS:                 -0.60 (CLOSED) -0.30 (OPEN) 

 Number of closed-shell orbitals:    9 (   4   2   2   1 )
 Number of open-shell orbitals:      1 (   1   0   0   0 )


 Molecular orbitals read from record     2100.2  Type=RHF/CANONICAL (state 1.1)

 Molecular orbital dump at record        2100.2

 ITERATION    DDIFF          GRAD             ENERGY        2-EL.EN.            DIPOLE MOMENTS         DIIS   ORB.
    1      0.000D+00      0.000D+00      -127.43526800    210.611702    0.00000    0.00000   -1.44909    0    start
    2      0.000D+00      0.243D-02      -127.43555270    210.621136    0.00000    0.00000   -1.45260    1    diag,B
    3      0.246D-03      0.145D-03      -127.43561209    210.637422    0.00000    0.00000   -1.44568    2    diag,B
    4      0.530D-04      0.872D-04      -127.43566483    210.652514    0.00000    0.00000   -1.43727    3    diag,B
    5      0.554D-04      0.590D-04      -127.43571032    210.674072    0.00000    0.00000   -1.42489    4    diag,B
    6      0.593D-04      0.393D-04      -127.43573856    210.694673    0.00000    0.00000   -1.41099    5    diag,B
    7      0.655D-04      0.165D-04      -127.43574244    210.703845    0.00000    0.00000   -1.40608    6    diag,B
    8      0.244D-04      0.692D-05      -127.43574274    210.704519    0.00000    0.00000   -1.40549    7    orth
    9      0.818D-05      0.337D-05      -127.43574280    210.705101    0.00000    0.00000   -1.40581    8    diag,B
   10      0.622D-05      0.162D-05      -127.43574281    210.705179    0.00000    0.00000   -1.40587    0    orth

 Final alpha occupancy:   5   2   2   1
 Final beta  occupancy:   4   2   2   1

 !RHF STATE 1.1 Energy               -127.435742806788
 Nuclear energy                         6.03241912
 One-electron energy                 -238.82075147
 Two-electron energy                  105.35258953
 Virial quotient                       -2.61347302
 !RHF STATE 1.1 Dipole moment           0.00000000     0.00000000    -1.40587308
 Dipole moment /Debye                   0.00000000     0.00000000    -3.57313890

 Orbital energies:

         1.1          2.1          3.1          4.1          5.1          6.1          7.1
     -4.013536    -2.563690    -0.429009    -0.424358    -0.380129     0.003427     0.030464

         1.2          2.2          3.2          4.2
     -2.558256    -0.448140     0.023864     0.080681

         1.3          2.3          3.3          4.3
     -2.558256    -0.448140     0.023864     0.080681

         1.4          2.4          3.4
     -0.424358     0.097932     0.326388

 HOMO      5.1    -0.380129 =     -10.3438eV
 LUMO      6.1     0.003427 =       0.0933eV
 LUMO-HOMO         0.383557 =      10.4371eV


 **********************************************************************************************************************************
 DATASETS  * FILE   NREC   LENGTH (MB)   RECORD NAMES
              1      19       20.87       500      610      700      900      950      970     1000      129      960     1100   
                                          VAR    BASINP    GEOM    SYMINP    ZMAT    AOBASIS   BASIS     P2S    ABASIS      S 
                                         1400     1410     1420     1200     1210     1080     1600     1650     1700   
                                           T        V       ECP      H0       H01     AOSYM     SMH    MOLCAS    OPER   

              2       4        3.40       700     1000      520     2100   
                                         GEOM     BASIS   MCVARS     RHF  

 PROGRAMS   *        TOTAL       RHF       INT  RCCSD(T)       RHF       INT  RCCSD(T)       RHF       INT
 CPU TIMES  *       239.83      1.39     23.23     81.59      1.60     22.18     80.51      2.79     25.62
 REAL TIME  *       306.38 SEC
 DISK USED  *         8.47 GB      
 SF USED    *         1.24 GB      
 GA USED    *         0.00 MB       (max)       0.00 MB       (current)
 **********************************************************************************************************************************
 SETTING SCF(3)         =      -127.43574281  AU                              
 SETTING _CC_NORM_MAX   =         2.00000000                                  


 PROGRAM * CCSD (Restricted open-shell coupled cluster)     Authors: C. Hampel, H.-J. Werner, 1991, M. Deegan, P.J. Knowles, 1992


 Convergence thresholds:  THRVAR = 1.00D-08  THRDEN = 1.00D-06

 CCSD(T)     terms to be evaluated (factor= 1.000)


 Number of closed-shell orbitals:   9 (   4   2   2   1 )
 Number of active  orbitals:        1 (   1   0   0   0 )
 Number of external orbitals:     253 ( 111  57  57  28 )

 Memory could be reduced to 80.26 Mwords without degradation in triples

 Number of N-1 electron functions:              19
 Number of N-2 electron functions:             171
 Number of singly external CSFs:              1520
 Number of doubly external CSFs:           2149669
 Total number of CSFs:                     2151189

 Molecular orbitals read from record     2100.2  Type=RHF/CANONICAL (state 1.1)

 Integral transformation finished. Total CPU:   2.63 sec, npass=  1  Memory used:   6.84 MW

 Starting RMP2 calculation

 Wavefunction is spin-projected

 ITER.      SQ.NORM     CORR.ENERGY   TOTAL ENERGY   ENERGY CHANGE        DEN1      VAR(S)    VAR(P)  DIIS     TIME
   1      1.14950143    -0.77760786  -128.21335067    -0.77760786    -0.00135815  0.16D-04  0.54D-03  1  1     3.98
   2      1.15086486    -0.77905392  -128.21479673    -0.00144606    -0.00000779  0.84D-06  0.46D-05  2  2     5.37
   3      1.15097732    -0.77911605  -128.21485885    -0.00006212    -0.00000008  0.27D-07  0.42D-07  3  3     7.51
   4      1.15098227    -0.77911707  -128.21485988    -0.00000103    -0.00000000  0.51D-09  0.44D-09  4  4     8.91
   5      1.15098241    -0.77911709  -128.21485990    -0.00000002    -0.00000000  0.11D-10  0.54D-11  5  5    10.28

 Norm of t1 vector:      0.03010716      S-energy:    -0.00239498      T1 diagnostic:  0.00076878
 Norm of t2 vector:      0.38739640      P-energy:    -0.77672211
                                         Alpha-Beta:  -0.54116858
                                         Alpha-Alpha: -0.12815343
                                         Beta-Beta:   -0.10740011

 Spin contamination <S**2-Sz**2-Sz>     0.00000000
  Reference energy                   -127.435742806788
  RHF-RMP2 correlation energy          -0.779117091913
 !RHF-RMP2 energy                    -128.214859898700
 (NB above energy spin projected)

 Starting RCCSD calculation

 ITER.      SQ.NORM     CORR.ENERGY   TOTAL ENERGY   ENERGY CHANGE        DEN1      VAR(S)    VAR(P)  DIIS     TIME
   1      1.13068556    -0.72800544  -128.16374825    -0.72800544    -0.01970024  0.58D-02  0.34D-02  1  1    13.79
   2      1.14507452    -0.74458692  -128.18032972    -0.01658148    -0.00190190  0.79D-03  0.55D-03  2  2    17.12
   3      1.15597927    -0.74683962  -128.18258242    -0.00225270    -0.00057982  0.64D-03  0.61D-04  3  3    20.89
   4      1.16746604    -0.74873655  -128.18447936    -0.00189693    -0.00020204  0.22D-03  0.27D-04  4  4    24.66
   5      1.18026030    -0.75003739  -128.18578019    -0.00130084    -0.00005226  0.52D-04  0.88D-05  5  5    28.52
   6      1.18659724    -0.75040600  -128.18614881    -0.00036862    -0.00001350  0.15D-04  0.21D-05  6  6    32.27
   7      1.19112952    -0.75067741  -128.18642022    -0.00027141    -0.00000325  0.33D-05  0.53D-06  6  2    35.82
   8      1.19148008    -0.75066181  -128.18640462     0.00001560    -0.00000056  0.44D-06  0.13D-06  6  1    39.45
   9      1.19195994    -0.75068368  -128.18642649    -0.00002187    -0.00000012  0.11D-06  0.23D-07  6  4    43.31
  10      1.19197614    -0.75068185  -128.18642465     0.00000183    -0.00000003  0.32D-07  0.52D-08  6  3    47.07
  11      1.19199189    -0.75068157  -128.18642438     0.00000027    -0.00000001  0.12D-07  0.18D-08  6  5    50.52
  12      1.19197369    -0.75067751  -128.18642031     0.00000407    -0.00000000  0.25D-08  0.45D-09  6  1    53.99
  13      1.19197325    -0.75067687  -128.18641968     0.00000063    -0.00000000  0.59D-09  0.16D-09  6  6    57.47

 Norm of t1 vector:      0.21303474      S-energy:    -0.00240034      T1 diagnostic:  0.03408123
                                                                       D1 diagnostic:  0.09802702
 Norm of t2 vector:      0.38287002      P-energy:    -0.74827653
                                         Alpha-Beta:  -0.54162935
                                         Alpha-Alpha: -0.11182769
                                         Beta-Beta:   -0.09481949

 Singles amplitudes (print threshold =  0.500E-01):

         I         SYM. A    A   T(IA) [Alpha-Alpha]

         5         1         2      0.06790986
         5         1         4      0.06853081
         5         1         8      0.05131005
 
         I         SYM. A    A   T(IA) [Beta-Beta]

         3         1         1     -0.13855942

 Spin contamination <S**2-Sz**2-Sz>     0.00000000

 Memory could be reduced to 80.80 Mwords without degradation in triples
 

  Correlated core orbitals:             1.1       2.1       1.2       1.3
  Orbital energies:                    -4.0390   -2.6201   -2.5759   -2.5759
 
  RCCSD core-core energy               -0.116980606212
  RCCSD core-valence energy            -0.260604215481
  RCCSD valence correlation energy     -0.373092050072
 

 RESULTS
 =======

  Reference energy                   -127.435742806788
  RCCSD singles energy                 -0.002400342541
  RCCSD pair energy                    -0.748276529223
  RCCSD correlation energy             -0.750676871765
  Triples (T) contribution             -0.030372738039
  Total correlation energy             -0.781049609804
 
  RHF-RCCSD energy                   -128.186419678552
  RHF-RCCSD[T] energy                -128.219005885142
  RHF-RCCSD-T energy                 -128.216602700543
 !RHF-RCCSD(T) energy                -128.216792416592

 Program statistics:

 Available memory in ccsd:               511999000
 Min. memory needed in ccsd:               6371840
 Max. memory used in ccsd:                 8994336
 Max. memory used in cckext:               7244967 (13 integral passes)
 Max. memory used in cckint:               6842122 ( 1 integral passes)



 **********************************************************************************************************************************
 DATASETS  * FILE   NREC   LENGTH (MB)   RECORD NAMES
              1      19       20.87       500      610      700      900      950      970     1000      129      960     1100   
                                          VAR    BASINP    GEOM    SYMINP    ZMAT    AOBASIS   BASIS     P2S    ABASIS      S 
                                         1400     1410     1420     1200     1210     1080     1600     1650     1700   
                                           T        V       ECP      H0       H01     AOSYM     SMH    MOLCAS    OPER   

              2       4        3.40       700     1000      520     2100   
                                         GEOM     BASIS   MCVARS     RHF  

 PROGRAMS   *        TOTAL  RCCSD(T)       RHF       INT  RCCSD(T)       RHF       INT  RCCSD(T)       RHF       INT
 CPU TIMES  *       323.96     84.12      1.39     23.23     81.59      1.60     22.18     80.51      2.79     25.62
 REAL TIME  *       404.73 SEC
 DISK USED  *         8.47 GB      
 SF USED    *         1.24 GB      
 GA USED    *         0.00 MB       (max)       0.00 MB       (current)
 **********************************************************************************************************************************
 SETTING CCSD(3)        =      -128.21679242  AU                              

 DO I                   =         4.00000000   
 SETTING Z(4)           =         1.52900000                                  

Geometry recognized as XYZ



 Recomputing integrals since geometry changed


 PROGRAM * SEWARD (Integral evaluation for generally contracted gaussian basis sets)     Author: Roland Lindh, 1990

 Geometry written to block  1 of record 700


 Point group  C2v 



 ATOMIC COORDINATES

 NR  ATOM    CHARGE       X              Y              Z

   1  PD     18.00    0.000000000    0.000000000    0.000000000
   2  H       1.00    0.000000000    0.000000000    2.889391244

 Bond lengths in Bohr (Angstrom)

 1-2  2.889391244
     ( 1.529000000)

 NUCLEAR CHARGE:                   19
 NUMBER OF PRIMITIVE AOS:         312
 NUMBER OF SYMMETRY AOS:          263
 NUMBER OF CONTRACTIONS:          263   ( 116A1  +  59B1  +  59B2  +  29A2  )
 NUMBER OF CORE ORBITALS:           4   (   2A1  +   1B1  +   1B2  +   0A2  )
 NUMBER OF VALENCE ORBITALS:        7   (   4A1  +   1B1  +   1B2  +   1A2  )


 NUCLEAR REPULSION ENERGY    6.22968594

 EXTRA SYMMETRY OF AOS IN SYMMETRY 1:   1 1 1 1 1 1 1 1 1 1   1 1 1 1 1 1 1 1 1 1   1 1 1 1 1 1 1 1 1 1   1 1 1 1 1 1 1 1 1 1
                                        1 1 1 1 1 1 1 1 1 1   1 1 1 2 1 2 1 2 1 2   1 2 1 2 1 2 1 2 1 2   1 2 1 2 1 2 1 2 1 2
                                        1 2 1 2 1 2 1 2 1 2   1 2 1 2 1 3 2 1 3 2   1 3 2 1 1 1 1 1 1 1   1 1 1 2 1 2
 EXTRA SYMMETRY OF AOS IN SYMMETRY 2:   1 1 1 1 1 1 1 1 1 1   1 1 1 1 1 1 1 1 1 1   1 1 1 1 1 1 1 1 1 1   1 1 1 1 1 1 1 1 1 1
                                        1 2 1 2 1 2 1 2 1 2   1 2 1 2 1 1 1 1 1
 EXTRA SYMMETRY OF AOS IN SYMMETRY 3:   1 1 1 1 1 1 1 1 1 1   1 1 1 1 1 1 1 1 1 1   1 1 1 1 1 1 1 1 1 1   1 1 1 1 1 1 1 1 1 1
                                        1 2 1 2 1 2 1 2 1 2   1 2 1 2 1 1 1 1 1
 EXTRA SYMMETRY OF AOS IN SYMMETRY 4:   1 1 1 1 1 1 1 1 1 1   1 1 1 1 1 1 1 1 1 1   1 1 2 1 2 1 2 1 1

 Eigenvalues of metric

         1 0.922E-06 0.192E-05 0.893E-05 0.951E-05 0.273E-04 0.118E-03 0.157E-03 0.271E-03
         2 0.982E-06 0.947E-05 0.304E-03 0.471E-03 0.163E-02 0.301E-02 0.405E-02 0.926E-02
         3 0.982E-06 0.947E-05 0.304E-03 0.471E-03 0.163E-02 0.301E-02 0.405E-02 0.926E-02
         4 0.951E-05 0.307E-03 0.302E-02 0.107E-01 0.287E-01 0.529E-01 0.858E-01 0.105E+00


 Contracted 2-electron integrals neglected if value below      1.0D-13
 AO integral compression algorithm  1   Integral accuracy      1.0D-13

     594.280 MB (compressed) written to integral file ( 43.3%)

     Node minimum: 2.621 MB, node maximum: 63.701 MB


 NUMBER OF SORTED TWO-ELECTRON INTEGRALS:    6738189.     BUFFER LENGTH:  32768
 NUMBER OF SEGMENTS:   1  SEGMENT LENGTH:    6738189      RECORD LENGTH: 524288

 Memory used in sort:       7.30 MW

 SORT1 READ   171363336. AND WROTE     2877006. INTEGRALS IN      9 RECORDS. CPU TIME:     5.76 SEC, REAL TIME:     5.91 SEC
 SORT2 READ    67544471. AND WROTE   156329493. INTEGRALS IN   1035 RECORDS. CPU TIME:     0.35 SEC, REAL TIME:     0.78 SEC

 Node minimum:     6738189.  Node maximum:     6815662. integrals

 OPERATOR DM      FOR CENTER  0  COORDINATES:    0.000000    0.000000    0.000000


 **********************************************************************************************************************************
 DATASETS  * FILE   NREC   LENGTH (MB)   RECORD NAMES
              1      19       20.83       500      610      700      900      950      970     1000      129      960     1100   
                                          VAR    BASINP    GEOM    SYMINP    ZMAT    AOBASIS   BASIS     P2S    ABASIS      S 
                                         1400     1410     1420     1200     1210     1080     1600     1650     1700   
                                           T        V       ECP      H0       H01     AOSYM     SMH    MOLCAS    OPER   

              2       4        3.40       700     1000      520     2100   
                                         GEOM     BASIS   MCVARS     RHF  

 PROGRAMS   *        TOTAL       INT  RCCSD(T)       RHF       INT  RCCSD(T)       RHF       INT  RCCSD(T)       RHF       INT
 CPU TIMES  *       345.84     21.88     84.12      1.39     23.23     81.59      1.60     22.18     80.51      2.79     25.62
 REAL TIME  *       427.45 SEC
 DISK USED  *         8.60 GB      
 SF USED    *         1.24 GB      
 GA USED    *         0.00 MB       (max)       0.00 MB       (current)
 **********************************************************************************************************************************


 PROGRAM * RHF-SCF (OPEN SHELL)       Authors: W. Meyer, H.-J. Werner


 NUMBER OF ELECTRONS:      10+    9-    SPACE SYMMETRY=1    SPIN SYMMETRY: Doublet 
 CONVERGENCE THRESHOLDS:    1.00E-05 (Density)    1.00E-07 (Energy)
 MAX. NUMBER OF ITERATIONS:       60
 INTERPOLATION TYPE:            DIIS
 INTERPOLATION STEPS:              2 (START)      1 (STEP)
 LEVEL SHIFTS:                 -0.60 (CLOSED) -0.30 (OPEN) 

 Number of closed-shell orbitals:    9 (   4   2   2   1 )
 Number of open-shell orbitals:      1 (   1   0   0   0 )


 Molecular orbitals read from record     2100.2  Type=RHF/CANONICAL (state 1.1)

 Molecular orbital dump at record        2100.2

 ITERATION    DDIFF          GRAD             ENERGY        2-EL.EN.            DIPOLE MOMENTS         DIIS   ORB.
    1      0.000D+00      0.000D+00      -127.43364053    211.065928    0.00000    0.00000   -1.37566    0    start
    2      0.000D+00      0.266D-02      -127.43397857    211.078486    0.00000    0.00000   -1.38011    1    diag,B
    3      0.307D-03      0.157D-03      -127.43404819    211.093997    0.00000    0.00000   -1.37251    2    diag,B
    4      0.556D-04      0.944D-04      -127.43410954    211.109170    0.00000    0.00000   -1.36366    3    diag,B
    5      0.604D-04      0.648D-04      -127.43416477    211.130083    0.00000    0.00000   -1.35012    4    diag,B
    6      0.697D-04      0.436D-04      -127.43420086    211.152061    0.00000    0.00000   -1.33399    5    diag,B
    7      0.813D-04      0.179D-04      -127.43420552    211.161320    0.00000    0.00000   -1.32830    6    diag,B
    8      0.281D-04      0.721D-05      -127.43420584    211.161955    0.00000    0.00000   -1.32759    7    orth
    9      0.866D-05      0.349D-05      -127.43420590    211.162605    0.00000    0.00000   -1.32788    8    diag,B
   10      0.626D-05      0.170D-05      -127.43420591    211.162640    0.00000    0.00000   -1.32795    0    orth

 Final alpha occupancy:   5   2   2   1
 Final beta  occupancy:   4   2   2   1

 !RHF STATE 1.1 Energy               -127.434205907009
 Nuclear energy                         6.22968594
 One-electron energy                 -239.24521167
 Two-electron energy                  105.58131982
 Virial quotient                       -2.61214601
 !RHF STATE 1.1 Dipole moment           0.00000000     0.00000000    -1.32794687
 Dipole moment /Debye                   0.00000000     0.00000000    -3.37508321

 Orbital energies:

         1.1          2.1          3.1          4.1          5.1          6.1          7.1
     -4.010596    -2.562014    -0.442810    -0.421208    -0.364465     0.004947     0.030002

         1.2          2.2          3.2          4.2
     -2.555033    -0.445580     0.023967     0.080734

         1.3          2.3          3.3          4.3
     -2.555033    -0.445580     0.023967     0.080734

         1.4          2.4          3.4
     -0.421208     0.098169     0.327091

 HOMO      5.1    -0.364465 =      -9.9176eV
 LUMO      6.1     0.004947 =       0.1346eV
 LUMO-HOMO         0.369412 =      10.0522eV


 **********************************************************************************************************************************
 DATASETS  * FILE   NREC   LENGTH (MB)   RECORD NAMES
              1      19       20.87       500      610      700      900      950      970     1000      129      960     1100   
                                          VAR    BASINP    GEOM    SYMINP    ZMAT    AOBASIS   BASIS     P2S    ABASIS      S 
                                         1400     1410     1420     1200     1210     1080     1600     1650     1700   
                                           T        V       ECP      H0       H01     AOSYM     SMH    MOLCAS    OPER   

              2       4        3.40       700     1000      520     2100   
                                         GEOM     BASIS   MCVARS     RHF  

 PROGRAMS   *        TOTAL       RHF       INT  RCCSD(T)       RHF       INT  RCCSD(T)       RHF       INT  RCCSD(T)       RHF
 CPU TIMES  *       347.27      1.37     21.88     84.12      1.39     23.23     81.59      1.60     22.18     80.51      2.79
 REAL TIME  *       429.02 SEC
 DISK USED  *         8.60 GB      
 SF USED    *         1.24 GB      
 GA USED    *         0.00 MB       (max)       0.00 MB       (current)
 **********************************************************************************************************************************
 SETTING SCF(4)         =      -127.43420591  AU                              
 SETTING _CC_NORM_MAX   =         2.00000000                                  


 PROGRAM * CCSD (Restricted open-shell coupled cluster)     Authors: C. Hampel, H.-J. Werner, 1991, M. Deegan, P.J. Knowles, 1992


 Convergence thresholds:  THRVAR = 1.00D-08  THRDEN = 1.00D-06

 CCSD(T)     terms to be evaluated (factor= 1.000)


 Number of closed-shell orbitals:   9 (   4   2   2   1 )
 Number of active  orbitals:        1 (   1   0   0   0 )
 Number of external orbitals:     253 ( 111  57  57  28 )

 Memory could be reduced to 80.26 Mwords without degradation in triples

 Number of N-1 electron functions:              19
 Number of N-2 electron functions:             171
 Number of singly external CSFs:              1520
 Number of doubly external CSFs:           2149669
 Total number of CSFs:                     2151189

 Molecular orbitals read from record     2100.2  Type=RHF/CANONICAL (state 1.1)

 Integral transformation finished. Total CPU:   2.38 sec, npass=  1  Memory used:   6.84 MW

 Starting RMP2 calculation

 Wavefunction is spin-projected

 ITER.      SQ.NORM     CORR.ENERGY   TOTAL ENERGY   ENERGY CHANGE        DEN1      VAR(S)    VAR(P)  DIIS     TIME
   1      1.15111655    -0.78249846  -128.21670437    -0.78249846    -0.00135115  0.16D-04  0.54D-03  1  1     3.55
   2      1.15245587    -0.78393549  -128.21814140    -0.00143703    -0.00000712  0.80D-06  0.42D-05  2  2     4.87
   3      1.15256098    -0.78399415  -128.21820005    -0.00005865    -0.00000006  0.25D-07  0.34D-07  3  3     6.38
   4      1.15256532    -0.78399501  -128.21820092    -0.00000087    -0.00000000  0.47D-09  0.34D-09  4  4     7.64

 Norm of t1 vector:      0.03011025      S-energy:    -0.00228797      T1 diagnostic:  0.00074899
 Norm of t2 vector:      0.38943380      P-energy:    -0.78170705
                                         Alpha-Beta:  -0.54399724
                                         Alpha-Alpha: -0.12907166
                                         Beta-Beta:   -0.10863814

 Spin contamination <S**2-Sz**2-Sz>     0.00000000
  Reference energy                   -127.434205907010
  RHF-RMP2 correlation energy          -0.783995012907
 !RHF-RMP2 energy                    -128.218200919917
 (NB above energy spin projected)

 Starting RCCSD calculation

 ITER.      SQ.NORM     CORR.ENERGY   TOTAL ENERGY   ENERGY CHANGE        DEN1      VAR(S)    VAR(P)  DIIS     TIME
   1      1.13061329    -0.73076711  -128.16497301    -0.73076711    -0.01992212  0.55D-02  0.34D-02  1  1    11.29
   2      1.14459894    -0.74752919  -128.18173510    -0.01676209    -0.00180806  0.73D-03  0.52D-03  2  2    14.73
   3      1.15444676    -0.74958327  -128.18378917    -0.00205407    -0.00052857  0.58D-03  0.56D-04  3  3    18.13
   4      1.16455978    -0.75131028  -128.18551619    -0.00172701    -0.00017991  0.20D-03  0.23D-04  4  4    22.05
   5      1.17555579    -0.75247129  -128.18667720    -0.00116101    -0.00004595  0.47D-04  0.73D-05  5  5    25.75
   6      1.18087686    -0.75278073  -128.18698664    -0.00030944    -0.00001197  0.13D-04  0.17D-05  6  6    29.73
   7      1.18475477    -0.75301545  -128.18722136    -0.00023472    -0.00000282  0.30D-05  0.42D-06  6  2    33.24
   8      1.18513615    -0.75300409  -128.18720999     0.00001136    -0.00000050  0.40D-06  0.11D-06  6  1    36.53
   9      1.18550989    -0.75301941  -128.18722532    -0.00001533    -0.00000011  0.11D-06  0.20D-07  6  4    40.37
  10      1.18555254    -0.75301906  -128.18722497     0.00000035    -0.00000003  0.33D-07  0.49D-08  6  3    44.11
  11      1.18553523    -0.75301682  -128.18722272     0.00000224    -0.00000001  0.12D-07  0.21D-08  6  6    47.57
  12      1.18555849    -0.75301523  -128.18722114     0.00000158    -0.00000000  0.22D-08  0.39D-09  6  5    52.55
  13      1.18556011    -0.75301495  -128.18722086     0.00000028    -0.00000000  0.54D-09  0.14D-09  6  1    56.10

 Norm of t1 vector:      0.20071031      S-energy:    -0.00225252      T1 diagnostic:  0.03210617
                                                                       D1 diagnostic:  0.08730233
 Norm of t2 vector:      0.38115021      P-energy:    -0.75076243
                                         Alpha-Beta:  -0.54301489
                                         Alpha-Alpha: -0.11230988
                                         Beta-Beta:   -0.09543766

 Singles amplitudes (print threshold =  0.500E-01):

         I         SYM. A    A   T(IA) [Alpha-Alpha]

         5         1         2      0.06562051
         5         1         4      0.06963740
         5         1         8      0.05214868
 
         I         SYM. A    A   T(IA) [Beta-Beta]

         3         1         1     -0.12336602

 Spin contamination <S**2-Sz**2-Sz>     0.00000000

 Memory could be reduced to 80.80 Mwords without degradation in triples
 

  Correlated core orbitals:             1.1       2.1       1.2       1.3
  Orbital energies:                    -4.0347   -2.6148   -2.5715   -2.5715
 
  RCCSD core-core energy               -0.116771010567
  RCCSD core-valence energy            -0.260764817085
  RCCSD valence correlation energy     -0.375479123180
 

 RESULTS
 =======

  Reference energy                   -127.434205907010
  RCCSD singles energy                 -0.002252518645
  RCCSD pair energy                    -0.750762432187
  RCCSD correlation energy             -0.753014950831
  Triples (T) contribution             -0.030625864722
  Total correlation energy             -0.783640815554
 
  RHF-RCCSD energy                   -128.187220857841
  RHF-RCCSD[T] energy                -128.219922788079
  RHF-RCCSD-T energy                 -128.217655018039
 !RHF-RCCSD(T) energy                -128.217846722563

 Program statistics:

 Available memory in ccsd:               511999000
 Min. memory needed in ccsd:               6371840
 Max. memory used in ccsd:                 8994336
 Max. memory used in cckext:               7244967 (13 integral passes)
 Max. memory used in cckint:               6842122 ( 1 integral passes)



 **********************************************************************************************************************************
 DATASETS  * FILE   NREC   LENGTH (MB)   RECORD NAMES
              1      19       20.87       500      610      700      900      950      970     1000      129      960     1100   
                                          VAR    BASINP    GEOM    SYMINP    ZMAT    AOBASIS   BASIS     P2S    ABASIS      S 
                                         1400     1410     1420     1200     1210     1080     1600     1650     1700   
                                           T        V       ECP      H0       H01     AOSYM     SMH    MOLCAS    OPER   

              2       4        3.40       700     1000      520     2100   
                                         GEOM     BASIS   MCVARS     RHF  

 PROGRAMS   *        TOTAL  RCCSD(T)       RHF       INT  RCCSD(T)       RHF       INT  RCCSD(T)       RHF       INT  RCCSD(T)
 CPU TIMES  *       429.93     82.66      1.37     21.88     84.12      1.39     23.23     81.59      1.60     22.18     80.51
 REAL TIME  *       614.29 SEC
 DISK USED  *         8.60 GB      
 SF USED    *         1.24 GB      
 GA USED    *         0.00 MB       (max)       0.00 MB       (current)
 **********************************************************************************************************************************
 SETTING CCSD(4)        =      -128.21784672  AU                              

 DO I                   =         5.00000000   
 SETTING Z(5)           =         1.47900000                                  

Geometry recognized as XYZ



 Recomputing integrals since geometry changed


 PROGRAM * SEWARD (Integral evaluation for generally contracted gaussian basis sets)     Author: Roland Lindh, 1990

 Geometry written to block  1 of record 700


 Point group  C2v 



 ATOMIC COORDINATES

 NR  ATOM    CHARGE       X              Y              Z

   1  PD     18.00    0.000000000    0.000000000    0.000000000
   2  H       1.00    0.000000000    0.000000000    2.794904938

 Bond lengths in Bohr (Angstrom)

 1-2  2.794904938
     ( 1.479000000)

 NUCLEAR CHARGE:                   19
 NUMBER OF PRIMITIVE AOS:         312
 NUMBER OF SYMMETRY AOS:          263
 NUMBER OF CONTRACTIONS:          263   ( 116A1  +  59B1  +  59B2  +  29A2  )
 NUMBER OF CORE ORBITALS:           4   (   2A1  +   1B1  +   1B2  +   0A2  )
 NUMBER OF VALENCE ORBITALS:        7   (   4A1  +   1B1  +   1B2  +   1A2  )


 NUCLEAR REPULSION ENERGY    6.44029060

 EXTRA SYMMETRY OF AOS IN SYMMETRY 1:   1 1 1 1 1 1 1 1 1 1   1 1 1 1 1 1 1 1 1 1   1 1 1 1 1 1 1 1 1 1   1 1 1 1 1 1 1 1 1 1
                                        1 1 1 1 1 1 1 1 1 1   1 1 1 2 1 2 1 2 1 2   1 2 1 2 1 2 1 2 1 2   1 2 1 2 1 2 1 2 1 2
                                        1 2 1 2 1 2 1 2 1 2   1 2 1 2 1 3 2 1 3 2   1 3 2 1 1 1 1 1 1 1   1 1 1 2 1 2
 EXTRA SYMMETRY OF AOS IN SYMMETRY 2:   1 1 1 1 1 1 1 1 1 1   1 1 1 1 1 1 1 1 1 1   1 1 1 1 1 1 1 1 1 1   1 1 1 1 1 1 1 1 1 1
                                        1 2 1 2 1 2 1 2 1 2   1 2 1 2 1 1 1 1 1
 EXTRA SYMMETRY OF AOS IN SYMMETRY 3:   1 1 1 1 1 1 1 1 1 1   1 1 1 1 1 1 1 1 1 1   1 1 1 1 1 1 1 1 1 1   1 1 1 1 1 1 1 1 1 1
                                        1 2 1 2 1 2 1 2 1 2   1 2 1 2 1 1 1 1 1
 EXTRA SYMMETRY OF AOS IN SYMMETRY 4:   1 1 1 1 1 1 1 1 1 1   1 1 1 1 1 1 1 1 1 1   1 1 2 1 2 1 2 1 1

 Eigenvalues of metric

         1 0.916E-06 0.191E-05 0.889E-05 0.951E-05 0.268E-04 0.117E-03 0.131E-03 0.270E-03
         2 0.982E-06 0.946E-05 0.304E-03 0.471E-03 0.163E-02 0.300E-02 0.405E-02 0.919E-02
         3 0.982E-06 0.946E-05 0.304E-03 0.471E-03 0.163E-02 0.300E-02 0.405E-02 0.919E-02
         4 0.951E-05 0.307E-03 0.302E-02 0.107E-01 0.286E-01 0.528E-01 0.849E-01 0.105E+00


 Contracted 2-electron integrals neglected if value below      1.0D-13
 AO integral compression algorithm  1   Integral accuracy      1.0D-13

     596.902 MB (compressed) written to integral file ( 43.5%)

     Node minimum: 5.505 MB, node maximum: 63.701 MB


 NUMBER OF SORTED TWO-ELECTRON INTEGRALS:    6738189.     BUFFER LENGTH:  32768
 NUMBER OF SEGMENTS:   1  SEGMENT LENGTH:    6738189      RECORD LENGTH: 524288

 Memory used in sort:       7.30 MW

 SORT1 READ   171363336. AND WROTE     2886144. INTEGRALS IN      9 RECORDS. CPU TIME:     5.41 SEC, REAL TIME:     5.58 SEC
 SORT2 READ    67747600. AND WROTE   156329493. INTEGRALS IN   1725 RECORDS. CPU TIME:     0.59 SEC, REAL TIME:     0.73 SEC

 Node minimum:     6738189.  Node maximum:     6815662. integrals

 OPERATOR DM      FOR CENTER  0  COORDINATES:    0.000000    0.000000    0.000000


 **********************************************************************************************************************************
 DATASETS  * FILE   NREC   LENGTH (MB)   RECORD NAMES
              1      19       20.83       500      610      700      900      950      970     1000      129      960     1100   
                                          VAR    BASINP    GEOM    SYMINP    ZMAT    AOBASIS   BASIS     P2S    ABASIS      S 
                                         1400     1410     1420     1200     1210     1080     1600     1650     1700   
                                           T        V       ECP      H0       H01     AOSYM     SMH    MOLCAS    OPER   

              2       4        3.40       700     1000      520     2100   
                                         GEOM     BASIS   MCVARS     RHF  

 PROGRAMS   *        TOTAL       INT  RCCSD(T)       RHF       INT  RCCSD(T)       RHF       INT  RCCSD(T)       RHF       INT
 CPU TIMES  *       452.25     22.32     82.66      1.37     21.88     84.12      1.39     23.23     81.59      1.60     22.18
 REAL TIME  *       637.19 SEC
 DISK USED  *         8.65 GB      
 SF USED    *         1.24 GB      
 GA USED    *         0.00 MB       (max)       0.00 MB       (current)
 **********************************************************************************************************************************


 PROGRAM * RHF-SCF (OPEN SHELL)       Authors: W. Meyer, H.-J. Werner


 NUMBER OF ELECTRONS:      10+    9-    SPACE SYMMETRY=1    SPIN SYMMETRY: Doublet 
 CONVERGENCE THRESHOLDS:    1.00E-05 (Density)    1.00E-07 (Energy)
 MAX. NUMBER OF ITERATIONS:       60
 INTERPOLATION TYPE:            DIIS
 INTERPOLATION STEPS:              2 (START)      1 (STEP)
 LEVEL SHIFTS:                 -0.60 (CLOSED) -0.30 (OPEN) 

 Number of closed-shell orbitals:    9 (   4   2   2   1 )
 Number of open-shell orbitals:      1 (   1   0   0   0 )


 Molecular orbitals read from record     2100.2  Type=RHF/CANONICAL (state 1.1)

 Molecular orbital dump at record        2100.2

 ITERATION    DDIFF          GRAD             ENERGY        2-EL.EN.            DIPOLE MOMENTS         DIIS   ORB.
    1      0.000D+00      0.000D+00      -127.43068576    211.532571    0.00000    0.00000   -1.29918    0    start
    2      0.000D+00      0.292D-02      -127.43108802    211.548265    0.00000    0.00000   -1.30465    1    diag,B
    3      0.385D-03      0.171D-03      -127.43116934    211.562533    0.00000    0.00000   -1.29631    2    diag,B
    4      0.610D-04      0.102D-03      -127.43123982    211.577271    0.00000    0.00000   -1.28707    3    diag,B
    5      0.670D-04      0.706D-04      -127.43130477    211.596456    0.00000    0.00000   -1.27260    4    diag,B
    6      0.813D-04      0.477D-04      -127.43134865    211.617933    0.00000    0.00000   -1.25473    5    diag,B
    7      0.980D-04      0.194D-04      -127.43135418    211.626644    0.00000    0.00000   -1.24828    6    diag,B
    8      0.323D-04      0.745D-05      -127.43135453    211.627191    0.00000    0.00000   -1.24742    7    orth
    9      0.955D-05      0.350D-05      -127.43135458    211.627860    0.00000    0.00000   -1.24767    8    diag,B
   10      0.599D-05      0.173D-05      -127.43135459    211.627810    0.00000    0.00000   -1.24774    0    orth

 Final alpha occupancy:   5   2   2   1
 Final beta  occupancy:   4   2   2   1

 !RHF STATE 1.1 Energy               -127.431354588122
 Nuclear energy                         6.44029060
 One-electron energy                 -239.68555024
 Two-electron energy                  105.81390505
 Virial quotient                       -2.61055801
 !RHF STATE 1.1 Dipole moment           0.00000000     0.00000000    -1.24773560
 Dipole moment /Debye                   0.00000000     0.00000000    -3.17121985

 Orbital energies:

         1.1          2.1          3.1          4.1          5.1          6.1          7.1
     -4.008012    -2.561043    -0.457686    -0.418318    -0.348631     0.006454     0.029516

         1.2          2.2          3.2          4.2
     -2.552109    -0.443473     0.024034     0.080652

[...]
  RCCSD correlation energy             -0.763202656759
  Triples (T) contribution             -0.031460743406
  Total correlation energy             -0.794663400165
 
  RHF-RCCSD energy                   -128.146041198666
  RHF-RCCSD[T] energy                -128.178683964967
  RHF-RCCSD-T energy                 -128.177321040512
 !RHF-RCCSD(T) energy                -128.177501942071

 Program statistics:

 Available memory in ccsd:               511999000
 Min. memory needed in ccsd:               6371840
 Max. memory used in ccsd:                 8994336
 Max. memory used in cckext:               7244967 (12 integral passes)
 Max. memory used in cckint:               6842122 ( 1 integral passes)



 **********************************************************************************************************************************
 DATASETS  * FILE   NREC   LENGTH (MB)   RECORD NAMES
              1      19       20.87       500      610      700      900      950      970     1000      129      960     1100   
                                          VAR    BASINP    GEOM    SYMINP    ZMAT    AOBASIS   BASIS     P2S    ABASIS      S 
                                         1400     1410     1420     1200     1210     1080     1600     1650     1700   
                                           T        V       ECP      H0       H01     AOSYM     SMH    MOLCAS    OPER   

              2       4        3.40       700     1000      520     2100   
                                         GEOM     BASIS   MCVARS     RHF  

 PROGRAMS   *        TOTAL  RCCSD(T)       RHF       INT  RCCSD(T)       RHF       INT  RCCSD(T)       RHF       INT  RCCSD(T)
 CPU TIMES  *      1045.45     71.63      1.50     23.64     75.96      1.51     22.66     66.91      1.47     24.26     86.02
 REAL TIME  *      1544.48 SEC
 DISK USED  *         8.67 GB      
 SF USED    *         1.24 GB      
 GA USED    *         0.00 MB       (max)       0.00 MB       (current)
 **********************************************************************************************************************************
 SETTING CCSD(10)       =      -128.17750194  AU                              

 DO I                   =        11.00000000   
 SETTING Z(11)          =         1.17900000                                  

Geometry recognized as XYZ



 Recomputing integrals since geometry changed


 PROGRAM * SEWARD (Integral evaluation for generally contracted gaussian basis sets)     Author: Roland Lindh, 1990

 Geometry written to block  1 of record 700


 Point group  C2v 



 ATOMIC COORDINATES

 NR  ATOM    CHARGE       X              Y              Z

   1  PD     18.00    0.000000000    0.000000000    0.000000000
   2  H       1.00    0.000000000    0.000000000    2.227987101

 Bond lengths in Bohr (Angstrom)

 1-2  2.227987101
     ( 1.179000000)

 NUCLEAR CHARGE:                   19
 NUMBER OF PRIMITIVE AOS:         312
 NUMBER OF SYMMETRY AOS:          263
 NUMBER OF CONTRACTIONS:          263   ( 116A1  +  59B1  +  59B2  +  29A2  )
 NUMBER OF CORE ORBITALS:           4   (   2A1  +   1B1  +   1B2  +   0A2  )
 NUMBER OF VALENCE ORBITALS:        7   (   4A1  +   1B1  +   1B2  +   1A2  )


 NUCLEAR REPULSION ENERGY    8.07904139

 EXTRA SYMMETRY OF AOS IN SYMMETRY 1:   1 1 1 1 1 1 1 1 1 1   1 1 1 1 1 1 1 1 1 1   1 1 1 1 1 1 1 1 1 1   1 1 1 1 1 1 1 1 1 1
                                        1 1 1 1 1 1 1 1 1 1   1 1 1 2 1 2 1 2 1 2   1 2 1 2 1 2 1 2 1 2   1 2 1 2 1 2 1 2 1 2
                                        1 2 1 2 1 2 1 2 1 2   1 2 1 2 1 3 2 1 3 2   1 3 2 1 1 1 1 1 1 1   1 1 1 2 1 2
 EXTRA SYMMETRY OF AOS IN SYMMETRY 2:   1 1 1 1 1 1 1 1 1 1   1 1 1 1 1 1 1 1 1 1   1 1 1 1 1 1 1 1 1 1   1 1 1 1 1 1 1 1 1 1
                                        1 2 1 2 1 2 1 2 1 2   1 2 1 2 1 1 1 1 1
 EXTRA SYMMETRY OF AOS IN SYMMETRY 3:   1 1 1 1 1 1 1 1 1 1   1 1 1 1 1 1 1 1 1 1   1 1 1 1 1 1 1 1 1 1   1 1 1 1 1 1 1 1 1 1
                                        1 2 1 2 1 2 1 2 1 2   1 2 1 2 1 1 1 1 1
 EXTRA SYMMETRY OF AOS IN SYMMETRY 4:   1 1 1 1 1 1 1 1 1 1   1 1 1 1 1 1 1 1 1 1   1 1 2 1 2 1 2 1 1

 Eigenvalues of metric

         1 0.886E-06 0.182E-05 0.886E-05 0.951E-05 0.234E-04 0.397E-04 0.111E-03 0.199E-03
         2 0.982E-06 0.929E-05 0.296E-03 0.471E-03 0.163E-02 0.296E-02 0.406E-02 0.579E-02
         3 0.982E-06 0.929E-05 0.296E-03 0.471E-03 0.163E-02 0.296E-02 0.406E-02 0.579E-02
         4 0.951E-05 0.307E-03 0.302E-02 0.107E-01 0.284E-01 0.514E-01 0.758E-01 0.104E+00


 Contracted 2-electron integrals neglected if value below      1.0D-13
 AO integral compression algorithm  1   Integral accuracy      1.0D-13

     612.368 MB (compressed) written to integral file ( 44.6%)

     Node minimum: 4.719 MB, node maximum: 63.701 MB


 NUMBER OF SORTED TWO-ELECTRON INTEGRALS:    6738189.     BUFFER LENGTH:  32768
 NUMBER OF SEGMENTS:   1  SEGMENT LENGTH:    6738189      RECORD LENGTH: 524288

 Memory used in sort:       7.30 MW

 SORT1 READ   171363336. AND WROTE     2931039. INTEGRALS IN      9 RECORDS. CPU TIME:     6.77 SEC, REAL TIME:     6.96 SEC
 SORT2 READ    68795683. AND WROTE   156329493. INTEGRALS IN   1863 RECORDS. CPU TIME:     0.37 SEC, REAL TIME:     1.04 SEC

 Node minimum:     6738189.  Node maximum:     6815662. integrals

 OPERATOR DM      FOR CENTER  0  COORDINATES:    0.000000    0.000000    0.000000


 **********************************************************************************************************************************
 DATASETS  * FILE   NREC   LENGTH (MB)   RECORD NAMES
              1      19       20.83       500      610      700      900      950      970     1000      129      960     1100   
                                          VAR    BASINP    GEOM    SYMINP    ZMAT    AOBASIS   BASIS     P2S    ABASIS      S 
                                         1400     1410     1420     1200     1210     1080     1600     1650     1700   
                                           T        V       ECP      H0       H01     AOSYM     SMH    MOLCAS    OPER   

              2       4        3.40       700     1000      520     2100   
                                         GEOM     BASIS   MCVARS     RHF  

 PROGRAMS   *        TOTAL       INT  RCCSD(T)       RHF       INT  RCCSD(T)       RHF       INT  RCCSD(T)       RHF       INT
 CPU TIMES  *      1068.39     22.94     71.63      1.50     23.64     75.96      1.51     22.66     66.91      1.47     24.26
 REAL TIME  *      1568.94 SEC
 DISK USED  *         8.67 GB      
 SF USED    *         1.24 GB      
 GA USED    *         0.00 MB       (max)       0.00 MB       (current)
 **********************************************************************************************************************************


 PROGRAM * RHF-SCF (OPEN SHELL)       Authors: W. Meyer, H.-J. Werner


 NUMBER OF ELECTRONS:      10+    9-    SPACE SYMMETRY=1    SPIN SYMMETRY: Doublet 
 CONVERGENCE THRESHOLDS:    1.00E-05 (Density)    1.00E-07 (Energy)
 MAX. NUMBER OF ITERATIONS:       60
 INTERPOLATION TYPE:            DIIS
 INTERPOLATION STEPS:              2 (START)      1 (STEP)
 LEVEL SHIFTS:                 -0.60 (CLOSED) -0.30 (OPEN) 

 Number of closed-shell orbitals:    9 (   4   2   2   1 )
 Number of open-shell orbitals:      1 (   1   0   0   0 )


 Molecular orbitals read from record     2100.2  Type=RHF/CANONICAL (state 1.1)

 Molecular orbital dump at record        2100.2

 ITERATION    DDIFF          GRAD             ENERGY        2-EL.EN.            DIPOLE MOMENTS         DIIS   ORB.
    1      0.000D+00      0.000D+00      -127.35951199    214.434665    0.00000    0.00000   -0.84233    0    start
    2      0.000D+00      0.571D-02      -127.36085166    214.443099    0.00000    0.00000   -0.85970    1    diag,B
    3      0.967D-03      0.312D-03      -127.36102459    214.450761    0.00000    0.00000   -0.84718    2    diag,B
    4      0.241D-03      0.154D-03      -127.36112809    214.448359    0.00000    0.00000   -0.83970    3    diag,B
    5      0.150D-03      0.867D-04      -127.36119498    214.449291    0.00000    0.00000   -0.82791    4    diag,B
    6      0.140D-03      0.519D-04      -127.36122706    214.442033    0.00000    0.00000   -0.81767    5    diag,B
    7      0.117D-03      0.219D-04      -127.36123242    214.440950    0.00000    0.00000   -0.81297    6    diag,B
    8      0.306D-04      0.104D-04      -127.36123342    214.437257    0.00000    0.00000   -0.81095    7    orth
    9      0.149D-04      0.594D-05      -127.36123378    214.436190    0.00000    0.00000   -0.80981    8    diag,B
   10      0.104D-04      0.354D-05      -127.36123399    214.434849    0.00000    0.00000   -0.80875    9    diag,B
   11      0.808D-05      0.196D-05      -127.36123406    214.433871    0.00000    0.00000   -0.80793    9    diag,B
   12      0.776D-05      0.841D-06      -127.36123407    214.433758    0.00000    0.00000   -0.80788    0    orth

 Final alpha occupancy:   5   2   2   1
 Final beta  occupancy:   4   2   2   1

 !RHF STATE 1.1 Energy               -127.361234068066
 Nuclear energy                         8.07904139
 One-electron energy                 -242.65715423
 Two-electron energy                  107.21687878
 Virial quotient                       -2.59123172
 !RHF STATE 1.1 Dipole moment           0.00000000     0.00000000    -0.80787560
 Dipole moment /Debye                   0.00000000     0.00000000    -2.05328048

 Orbital energies:

         1.1          2.1          3.1          4.1          5.1          6.1          7.1
     -4.008320    -2.582743    -0.563361    -0.412866    -0.277889     0.013738     0.026393

         1.2          2.2          3.2          4.2
     -2.547951    -0.448334     0.023391     0.076983

         1.3          2.3          3.3          4.3
     -2.547951    -0.448334     0.023391     0.076983

         1.4          2.4          3.4
     -0.412866     0.099031     0.328345

 HOMO      5.1    -0.277889 =      -7.5618eV
 LUMO      6.1     0.013738 =       0.3738eV
 LUMO-HOMO         0.291627 =       7.9356eV


 **********************************************************************************************************************************
 DATASETS  * FILE   NREC   LENGTH (MB)   RECORD NAMES
              1      19       20.87       500      610      700      900      950      970     1000      129      960     1100   
                                          VAR    BASINP    GEOM    SYMINP    ZMAT    AOBASIS   BASIS     P2S    ABASIS      S 
                                         1400     1410     1420     1200     1210     1080     1600     1650     1700   
                                           T        V       ECP      H0       H01     AOSYM     SMH    MOLCAS    OPER   

              2       4        3.40       700     1000      520     2100   
                                         GEOM     BASIS   MCVARS     RHF  

 PROGRAMS   *        TOTAL       RHF       INT  RCCSD(T)       RHF       INT  RCCSD(T)       RHF       INT  RCCSD(T)       RHF
 CPU TIMES  *      1069.87      1.44     22.94     71.63      1.50     23.64     75.96      1.51     22.66     66.91      1.47
 REAL TIME  *      1570.61 SEC
 DISK USED  *         8.67 GB      
 SF USED    *         1.24 GB      
 GA USED    *         0.00 MB       (max)       0.00 MB       (current)
 **********************************************************************************************************************************
 SETTING SCF(11)        =      -127.36123407  AU                              
 SETTING _CC_NORM_MAX   =         2.00000000                                  


 PROGRAM * CCSD (Restricted open-shell coupled cluster)     Authors: C. Hampel, H.-J. Werner, 1991, M. Deegan, P.J. Knowles, 1992


 Convergence thresholds:  THRVAR = 1.00D-08  THRDEN = 1.00D-06

 CCSD(T)     terms to be evaluated (factor= 1.000)


 Number of closed-shell orbitals:   9 (   4   2   2   1 )
 Number of active  orbitals:        1 (   1   0   0   0 )
 Number of external orbitals:     253 ( 111  57  57  28 )

 Memory could be reduced to 80.26 Mwords without degradation in triples

 Number of N-1 electron functions:              19
 Number of N-2 electron functions:             171
 Number of singly external CSFs:              1520
 Number of doubly external CSFs:           2149669
 Total number of CSFs:                     2151189

 Molecular orbitals read from record     2100.2  Type=RHF/CANONICAL (state 1.1)

 Integral transformation finished. Total CPU:   2.37 sec, npass=  1  Memory used:   6.84 MW

 Starting RMP2 calculation

 Wavefunction is spin-projected

 ITER.      SQ.NORM     CORR.ENERGY   TOTAL ENERGY   ENERGY CHANGE        DEN1      VAR(S)    VAR(P)  DIIS     TIME
   1      1.15562169    -0.80621116  -128.16744523    -0.80621116    -0.00129580  0.72D-05  0.48D-03  1  1     3.86
   2      1.15675380    -0.80757573  -128.16880979    -0.00136456    -0.00000295  0.14D-06  0.17D-05  2  2     5.26
   3      1.15681000    -0.80761019  -128.16884425    -0.00003446    -0.00000001  0.39D-08  0.65D-08  3  3     6.62
   4      1.15681137    -0.80761042  -128.16884449    -0.00000023    -0.00000000  0.12D-09  0.24D-10  4  4     8.18

 Norm of t1 vector:      0.02374539      S-energy:    -0.00110096      T1 diagnostic:  0.00024793
 Norm of t2 vector:      0.39528158      P-energy:    -0.80650946
                                         Alpha-Beta:  -0.55728585
                                         Alpha-Alpha: -0.13453405
                                         Beta-Beta:   -0.11468955

 Spin contamination <S**2-Sz**2-Sz>     0.00000000
  Reference energy                   -127.361234068066
  RHF-RMP2 correlation energy          -0.807610418460
 !RHF-RMP2 energy                    -128.168844486526
 (NB above energy spin projected)

 Starting RCCSD calculation

 ITER.      SQ.NORM     CORR.ENERGY   TOTAL ENERGY   ENERGY CHANGE        DEN1      VAR(S)    VAR(P)  DIIS     TIME
   1      1.12731688    -0.74509553  -128.10632960    -0.74509553    -0.01929615  0.31D-02  0.35D-02  1  1    11.64
   2      1.13793224    -0.76163908  -128.12287314    -0.01654355    -0.00114520  0.29D-03  0.34D-03  2  2    14.71
   3      1.14165277    -0.76255923  -128.12379330    -0.00092016    -0.00020785  0.19D-03  0.27D-04  3  3    17.81
   4      1.14440181    -0.76326541  -128.12449947    -0.00070617    -0.00005297  0.58D-04  0.67D-05  4  4    20.98
   5      1.14683376    -0.76366240  -128.12489646    -0.00039699    -0.00001096  0.15D-04  0.11D-05  5  5    24.31
   6      1.14792477    -0.76373899  -128.12497306    -0.00007660    -0.00000283  0.42D-05  0.23D-06  6  6    28.04
   7      1.14859691    -0.76378035  -128.12501442    -0.00004136    -0.00000064  0.76D-06  0.74D-07  6  2    31.37
   8      1.14878002    -0.76378043  -128.12501450    -0.00000008    -0.00000009  0.82D-07  0.18D-07  6  1    34.75
   9      1.14884110    -0.76377957  -128.12501363     0.00000086    -0.00000001  0.73D-08  0.27D-08  6  4    37.94
  10      1.14885520    -0.76378173  -128.12501580    -0.00000216    -0.00000000  0.17D-08  0.33D-09  6  3    41.38
  11      1.14885134    -0.76378073  -128.12501479     0.00000100    -0.00000000  0.42D-09  0.82D-10  6  6    44.52
  12      1.14885350    -0.76378073  -128.12501479     0.00000000    -0.00000000  0.58D-10  0.13D-10  6  5    47.67

 Norm of t1 vector:      0.11008451      S-energy:    -0.00110095      T1 diagnostic:  0.01739990
                                                                       D1 diagnostic:  0.05692388
 Norm of t2 vector:      0.36977683      P-energy:    -0.76267978
                                         Alpha-Beta:  -0.54853388
                                         Alpha-Alpha: -0.11562466
                                         Beta-Beta:   -0.09852124

 Spin contamination <S**2-Sz**2-Sz>     0.00000000

 Memory could be reduced to 80.80 Mwords without degradation in triples
 

  Correlated core orbitals:             1.1       2.1       1.2       1.3
  Orbital energies:                    -4.0209   -2.6059   -2.5556   -2.5556
 
  RCCSD core-core energy               -0.114287423430
  RCCSD core-valence energy            -0.261139537416
  RCCSD valence correlation energy     -0.388353764964
 

 RESULTS
 =======

  Reference energy                   -127.361234068066
  RCCSD singles energy                 -0.001100948176
  RCCSD pair energy                    -0.762679777634
  RCCSD correlation energy             -0.763780725810
  Triples (T) contribution             -0.031383628195
  Total correlation energy             -0.795164354005
 
  RHF-RCCSD energy                   -128.125014793876
  RHF-RCCSD[T] energy                -128.157475977333
  RHF-RCCSD-T energy                 -128.156219916468
 !RHF-RCCSD(T) energy                -128.156398422071

 Program statistics:

 Available memory in ccsd:               511999000
 Min. memory needed in ccsd:               6371840
 Max. memory used in ccsd:                 8994336
 Max. memory used in cckext:               7244967 (12 integral passes)
 Max. memory used in cckint:               6842122 ( 1 integral passes)



 **********************************************************************************************************************************
 DATASETS  * FILE   NREC   LENGTH (MB)   RECORD NAMES
              1      19       20.87       500      610      700      900      950      970     1000      129      960     1100   
                                          VAR    BASINP    GEOM    SYMINP    ZMAT    AOBASIS   BASIS     P2S    ABASIS      S 
                                         1400     1410     1420     1200     1210     1080     1600     1650     1700   
                                           T        V       ECP      H0       H01     AOSYM     SMH    MOLCAS    OPER   

              2       4        3.40       700     1000      520     2100   
                                         GEOM     BASIS   MCVARS     RHF  

 PROGRAMS   *        TOTAL  RCCSD(T)       RHF       INT  RCCSD(T)       RHF       INT  RCCSD(T)       RHF       INT  RCCSD(T)
 CPU TIMES  *      1144.42     74.55      1.44     22.94     71.63      1.50     23.64     75.96      1.51     22.66     66.91
 REAL TIME  *      1658.47 SEC
 DISK USED  *         8.67 GB      
 SF USED    *         1.24 GB      
 GA USED    *         0.00 MB       (max)       0.00 MB       (current)
 **********************************************************************************************************************************
 SETTING CCSD(11)       =      -128.15639842  AU                              
 Output type csv         
                                                                                                                                                                                                                                                                

     Z,SCF,CCSD
   1.679,   -127.4357478,   -128.2117147
   1.629,   -127.4361956,   -128.2146621
   1.579,   -127.4357428,   -128.2167924
   1.529,   -127.4342059,   -128.2178467
   1.479,   -127.4313546,   -128.2175084
   1.429,   -127.4268902,   -128.2153865
   1.379,   -127.4204171,   -128.2109969
   1.329,   -127.4114105,   -128.2037455
   1.279,   -127.3991817,   -128.1928915
   1.229,   -127.3828385,   -128.1775019
   1.179,   -127.3612341,   -128.1563984
                                                  

 RCCSD(T)/USERDEF energy=   -128.156398422071

        RCCSD(T)        RHF-SCF         RCCSD(T)        RHF-SCF         RCCSD(T)        RHF-SCF         RCCSD(T)        RHF-SCF 
   -128.15639842   -127.36123407   -128.17750194   -127.38283854   -128.19289154   -127.39918171   -128.20374547   -127.41141051
 **********************************************************************************************************************************
 Molpro calculation terminated
 Variable memory released
