
 Primary working directories    : /global/cscratch1/sd/bkincaid
 Secondary working directories  : /global/cscratch1/sd/bkincaid
 Wavefunction directory         : /global/homes/b/bkincaid/wfu/
 Main file repository           : /global/cscratch1/sd/bkincaid/

 SHA1      : 19cd028119e0e09f93f0674bd8af7968d9b3eff6
 NAME      : 2015.1.36
 ARCHNAME  : linux/x86_64
 FC        : /opt/cray/pe/craype/2.5.14/bin/ftn
 BLASLIB   : -L/opt/intel/compilers_and_libraries_2018.1.163/linux/mkl/lib/intel64 -Wl,-_start-group -lmkl_intel_ilp64 -lmkl_intel_thread -lmkl_core -Wl,-_end-group -liomp5
 id        : lbl

 Nodes     nprocs
 nid12910    23
 Number of processes for MPI-2 version of Molpro:   nprocs(total)=   24   nprocs(compute)=   23   nprocs(helper)=    1

 Using customized tuning parameters: mindgm=7; mindgv=16; mindgc=1; mindgr=1; noblas=0; minvec=7
 default implementation of scratch files=sf  

 ***,Calculation for PdH groundstate
 memory,512,m
 gthresh,twoint=1.0E-12
 gthresh,throvl=1.0E-12
                                                                                 !symmetry,nosym
 
 set,dkroll=1,dkho=10,dkhp=4
 
 basis={
 
 Including file /global/u1/b/bkincaid/molpro/Pd/molecules/PdH/5z/ae/1.329/c-Pd-aug-cc-pwCVTZ.basis
 
 Including file /global/u1/b/bkincaid/molpro/Pd/molecules/PdH/5z/ae/1.329/c-H-aug-cc-pVTZ.basis
 }
 
 ne = 47
 
 geometry={
 2
 PdH
 Pd 0.0 0.0 0.0
 H 0.0 0.0 1.329
 }
 
 A1=12
 B1=5
 B2=5
 A2=2
 
 {rks,pbe0
 wf,nele=ne,spin=1,sym=1
 occ,A1,B1,B2,A2
 closed,A1-1,B1,B2,A2
 }
 {rhf
 wf,nelec=ne,spin=1,sym=1
 occ,A1,B1,B2,A2
 closed,A1-1,B1,B2,A2
 }
 
 
 basis={
 
 Including file /global/u1/b/bkincaid/molpro/Pd/molecules/PdH/5z/ae/1.329/5z.basis
 
 Including file /global/u1/b/bkincaid/molpro/Pd/molecules/PdH/5z/ae/1.329/H-aug-cc-pV5Z.basis
 }
 
 {rhf
 wf,nelec=ne,spin=1,sym=1
 occ,A1,B1,B2,A2
 closed,A1-1,B1,B2,A2
 }
 
 E_Pd = -5044.366379
 E_H = -0.49982785
 
 scf=energy
 _CC_NORM_MAX=2.0
 {rccsd(t);maxit,100;core}
 ccsd=energy
 BE = ccsd - E_Pd - E_H
 
 table,scf,ccsd,BE
 save
 type,csv

 Variables initialized (889), CPU time= 0.01 sec
 Commands  initialized (702), CPU time= 0.01 sec, 572 directives.
 Default parameters read. Elapsed time= 0.21 sec

 Checking input...
 Passed
1


                                         ***  PROGRAM SYSTEM MOLPRO  ***
                                       Copyright, TTI GmbH Stuttgart, 2015
                                    Version 2015.1 linked Dec 29 2018 15:55:43


 **********************************************************************************************************************************
 LABEL *   Calculation for PdH groundstate                                               
  64 bit mpp version                                                                     DATE: 14-Dec-20          TIME: 12:35:39  
 **********************************************************************************************************************************

 SHA1:             19cd028119e0e09f93f0674bd8af7968d9b3eff6
 **********************************************************************************************************************************

 THRESHOLDS:

 ZERO    =  1.00D-12  ONEINT  =  1.00D-12  TWOINT  =  1.00D-12  PREFAC  =  1.00D-14  LOCALI  =  1.00D-09  EORDER  =  1.00D-04
 ENERGY  =  0.00D+00  ETEST   =  0.00D+00  EDENS   =  0.00D+00  THRDEDEF=  1.00D-06  GRADIENT=  1.00D-02  STEP    =  1.00D-03
 ORBITAL =  1.00D-05  CIVEC   =  1.00D-05  COEFF   =  1.00D-04  PRINTCI =  5.00D-02  PUNCHCI =  9.90D+01  OPTGRAD =  3.00D-04
 OPTENERG=  1.00D-06  OPTSTEP =  3.00D-04  THRGRAD =  1.00D-10  COMPRESS=  1.00D-11  VARMIN  =  1.00D-07  VARMAX  =  1.00D-03
 THRDOUB =  0.00D+00  THRDIV  =  1.00D-05  THRRED  =  1.00D-07  THRPSP  =  1.00D+00  THRDC   =  1.00D-10  THRCS   =  1.00D-10
 THRNRM  =  1.00D-08  THREQ   =  0.00D+00  THRDE   =  1.00D+00  THRREF  =  1.00D-05  SPARFAC =  1.00D+00  THRDLP  =  1.00D-07
 THRDIA  =  1.00D-10  THRDLS  =  1.00D-07  THRGPS  =  0.00D+00  THRKEX  =  0.00D+00  THRDIS  =  2.00D-01  THRVAR  =  1.00D-10
 THRLOC  =  1.00D-06  THRGAP  =  1.00D-06  THRLOCT = -1.00D+00  THRGAPT = -1.00D+00  THRORB  =  1.00D-06  THRMLTP =  0.00D+00
 THRCPQCI=  1.00D-10  KEXTA   =  0.00D+00  THRCOARS=  0.00D+00  SYMTOL  =  1.00D-06  GRADTOL =  1.00D-06  THROVL  =  1.00D-08
 THRORTH =  1.00D-08  GRID    =  1.00D-06  GRIDMAX =  1.00D-03  DTMAX   =  0.00D+00  THROCCDE=  1.00D-01  THROCCDE=  1.00D-01



 THRESHOLDS:

 ZERO    =  1.00D-12  ONEINT  =  1.00D-12  TWOINT  =  1.00D-12  PREFAC  =  1.00D-14  LOCALI  =  1.00D-09  EORDER  =  1.00D-04
 ENERGY  =  0.00D+00  ETEST   =  0.00D+00  EDENS   =  0.00D+00  THRDEDEF=  1.00D-06  GRADIENT=  1.00D-02  STEP    =  1.00D-03
 ORBITAL =  1.00D-05  CIVEC   =  1.00D-05  COEFF   =  1.00D-04  PRINTCI =  5.00D-02  PUNCHCI =  9.90D+01  OPTGRAD =  3.00D-04
 OPTENERG=  1.00D-06  OPTSTEP =  3.00D-04  THRGRAD =  1.00D-10  COMPRESS=  1.00D-11  VARMIN  =  1.00D-07  VARMAX  =  1.00D-03
 THRDOUB =  0.00D+00  THRDIV  =  1.00D-05  THRRED  =  1.00D-07  THRPSP  =  1.00D+00  THRDC   =  1.00D-10  THRCS   =  1.00D-10
 THRNRM  =  1.00D-08  THREQ   =  0.00D+00  THRDE   =  1.00D+00  THRREF  =  1.00D-05  SPARFAC =  1.00D+00  THRDLP  =  1.00D-07
 THRDIA  =  1.00D-10  THRDLS  =  1.00D-07  THRGPS  =  0.00D+00  THRKEX  =  0.00D+00  THRDIS  =  2.00D-01  THRVAR  =  1.00D-10
 THRLOC  =  1.00D-06  THRGAP  =  1.00D-06  THRLOCT = -1.00D+00  THRGAPT = -1.00D+00  THRORB  =  1.00D-06  THRMLTP =  0.00D+00
 THRCPQCI=  1.00D-10  KEXTA   =  0.00D+00  THRCOARS=  0.00D+00  SYMTOL  =  1.00D-06  GRADTOL =  1.00D-06  THROVL  =  1.00D-12
 THRORTH =  1.00D-08  GRID    =  1.00D-06  GRIDMAX =  1.00D-03  DTMAX   =  0.00D+00  THROCCDE=  1.00D-01  THROCCDE=  1.00D-01


 SETTING DKROLL         =         1.00000000                                  
 SETTING DKHO           =        10.00000000                                  
 SETTING DKHP           =         4.00000000                                  

 Variable memory set to  512000000 words,  buffer space   230000 words

 SETTING BASIS          =    USERDEF
 SETTING NE             =        47.00000000                                  

Geometry recognized as XYZ

 SETTING A1             =        12.00000000                                  
 SETTING B1             =         5.00000000                                  
 SETTING B2             =         5.00000000                                  
 SETTING A2             =         2.00000000                                  


 Recomputing integrals since basis changed


 Using spherical harmonics



 PROGRAM * SEWARD (Integral evaluation for generally contracted gaussian basis sets)     Author: Roland Lindh, 1990

 Geometry written to block  1 of record 700


 Point group  C2v 



 ATOMIC COORDINATES

 NR  ATOM    CHARGE       X              Y              Z

   1  PD     46.00    0.000000000    0.000000000    0.000000000
   2  H       1.00    0.000000000    0.000000000    2.511446020

 Bond lengths in Bohr (Angstrom)

 1-2  2.511446020
     ( 1.329000000)

 NUCLEAR CHARGE:                   47
 NUMBER OF PRIMITIVE AOS:         315
 NUMBER OF SYMMETRY AOS:          266
 NUMBER OF CONTRACTIONS:          159   (  65A1  +  37B1  +  37B2  +  20A2  )
 NUMBER OF CORE ORBITALS:          18   (   9A1  +   4B1  +   4B2  +   1A2  )
 NUMBER OF VALENCE ORBITALS:        7   (   4A1  +   1B1  +   1B2  +   1A2  )


 NUCLEAR REPULSION ENERGY   18.31614124

 One-electron integrals computed with SEWARD

 10nd-order Douglas-Kroll-Hess method activated. McWeeny DKH parametrization is used.

 Computing Douglas-Kroll / X2C integrals

 AO integral compression algorithm  1   Integral accuracy      1.0D-12

     98.304 MB (compressed) written to integral file ( 53.9%)

     Node minimum: 1.049 MB, node maximum: 7.340 MB


 NUMBER OF SORTED TWO-ELECTRON INTEGRALS:     906300.     BUFFER LENGTH:  32768
 NUMBER OF SEGMENTS:   1  SEGMENT LENGTH:     906300      RECORD LENGTH: 524288

 Memory used in sort:       1.46 MW

 SORT1 READ    22613812. AND WROTE      510306. INTEGRALS IN      2 RECORDS. CPU TIME:     6.10 SEC, REAL TIME:     7.54 SEC
 SORT2 READ    11897232. AND WROTE    20925119. INTEGRALS IN    276 RECORDS. CPU TIME:     0.06 SEC, REAL TIME:     0.14 SEC

 Node minimum:      897627.  Node maximum:      932430. integrals

 OPERATOR DM      FOR CENTER  0  COORDINATES:    0.000000    0.000000    0.000000

 EXTRA SYMMETRY OF AOS IN SYMMETRY 1:   1 1 1 1 1 1 1 1 1 1   1 1 1 1 1 1 1 1 1 1   1 1 2 1 2 1 2 1 2 1   2 1 2 1 2 1 2 1 2 1
                                        2 1 2 1 2 1 3 2 1 3   2 1 3 2 1 1 1 1 1 1   1 1 2 1 2
 EXTRA SYMMETRY OF AOS IN SYMMETRY 2:   1 1 1 1 1 1 1 1 1 1   1 1 1 1 1 1 1 1 1 2   1 2 1 2 1 2 1 2 1 2   1 2 1 1 1 1 1
 EXTRA SYMMETRY OF AOS IN SYMMETRY 3:   1 1 1 1 1 1 1 1 1 1   1 1 1 1 1 1 1 1 1 2   1 2 1 2 1 2 1 2 1 2   1 2 1 1 1 1 1
 EXTRA SYMMETRY OF AOS IN SYMMETRY 4:   1 1 1 1 1 1 1 1 1 1   1 1 1 2 1 2 1 2 1 1

 Eigenvalues of metric

         1 0.459E-04 0.127E-03 0.210E-03 0.549E-03 0.763E-03 0.152E-02 0.157E-02 0.361E-02
         2 0.635E-03 0.157E-02 0.173E-02 0.873E-02 0.213E-01 0.349E-01 0.515E-01 0.829E-01
         3 0.635E-03 0.157E-02 0.173E-02 0.873E-02 0.213E-01 0.349E-01 0.515E-01 0.829E-01
         4 0.157E-02 0.221E-01 0.805E-01 0.103E+00 0.131E+00 0.148E+00 0.201E+00 0.400E+00


 **********************************************************************************************************************************
 DATASETS  * FILE   NREC   LENGTH (MB)   RECORD NAMES
              1      22       20.70       500      610      700      900      950      970     1000      129      960     1700   
                                          VAR    BASINP    GEOM    SYMINP    ZMAT    AOBASIS   BASIS     P2S    ABASIS    OPER   
                                         1101     1401     1411     1412     1650     1100     1400     1410     1200     1210   
                                          SR      EKINR    POTR     PVPR    MOLCAS      S      EKIN      POT      H0       H01  
                                         1080     1600   
                                         AOSYM     SMH  

 PROGRAMS   *        TOTAL       INT
 CPU TIMES  *        25.85     25.54
 REAL TIME  *        51.26 SEC
 DISK USED  *       267.84 MB      
 GA USED    *         0.00 MB       (max)       0.00 MB       (current)
 **********************************************************************************************************************************

 Density functional group PBE0=PBEX+PBEC
 Functional: PBEX(Automatically generated (new) PBEX)                          Gradient terms: 1
 Functional: PBEC(Automatically generated (new) PBEC)                          Gradient terms: 1
 Use grid at  1800.2
 

 Exact exchange will be calculated, factor:  0.2500

 Functional: PBEX                      Factor:  0.7500
 Functional: PBEC                      Factor:  1.0000
 
 Generated new metagrid on record  1800.2 with target accuracy 1.0D-06 and 4185 points in CPU time    0.0
 Computed new grid on record 1800.1 in CPU time    0.0
  133744 words reserved for DFT integration

 PROGRAM * RKS-SCF (Restricted open shell Kohn-Sham)     Authors: W. Meyer, H.-J. Werner, P.J. Knowles, 1993

 NUMBER OF ELECTRONS:      24+   23-    SPACE SYMMETRY=1    SPIN SYMMETRY: Doublet 
 CONVERGENCE THRESHOLDS:    1.00E-05 (Density)    1.00E-06 (Energy)
 MAX. NUMBER OF ITERATIONS:       60
 INTERPOLATION TYPE:            DIIS
 INTERPOLATION STEPS:              2 (START)      1 (STEP)
 LEVEL SHIFTS:                 -0.60 (CLOSED) -0.30 (OPEN) 

 Number of closed-shell orbitals:   23 (  11   5   5   2 )
 Number of open-shell orbitals:      1 (   1   0   0   0 )


 Use fine grid record 1800.2 for energy threshold  1.0D-06
 Orbital guess generated from atomic densities. Full valence occupancy:   13   5   5   2

 Molecular orbital dump at record        2100.2

 ITERATION    DDIFF          GRAD             ENERGY        2-EL.EN.            DIPOLE MOMENTS         DIIS   ORB.
    1      0.000D+00      0.000D+00     -5021.92714196   3518.852791    0.00000    0.00000   -3.66266    0    start
    2      0.000D+00      0.849D-01     -5035.02794652   4456.082263    0.00000    0.00000    1.49074    1    diag,B
    3      0.549D+01      0.179D+00     -5041.07861952   4320.657538    0.00000    0.00000    0.89842    2    diag,B
    4      0.295D-01      0.992D-01     -5044.27852929   4212.319232    0.00000    0.00000    0.21986    3    diag,B
    5      0.227D-01      0.492D-01     -5045.35844427   4139.695650    0.00000    0.00000   -0.38188    4    diag,B
    6      0.155D-01      0.197D-01     -5045.62630616   4087.747427    0.00000    0.00000   -0.80606    5    diag,B
    7      0.115D-01      0.179D-02     -5045.63655891   4080.890001    0.00000    0.00000   -0.86968    6    fixocc
    8      0.584D-02      0.139D-02     -5045.63914611   4081.102309    0.00000    0.00000   -0.80464    7    diag,B
    9      0.206D-02      0.785D-03     -5045.64016583   4081.234396    0.00000    0.00000   -0.77256    8    diag,B
   10      0.131D-02      0.397D-03     -5045.64060977   4081.674404    0.00000    0.00000   -0.72832    9    orth
   11      0.880D-03      0.115D-03     -5045.64078739   4081.761396    0.00000    0.00000   -0.68824    9    diag,B
   12      0.462D-03      0.421D-04     -5045.64080572   4081.695259    0.00000    0.00000   -0.67927    9    diag,B
   13      0.297D-03      0.184D-04     -5045.64080943   4081.652774    0.00000    0.00000   -0.67494    9    diag,B
   14      0.128D-03      0.553D-05     -5045.64080975   4081.648632    0.00000    0.00000   -0.67382    9    diag,B
   15      0.663D-04      0.163D-05     -5045.64080977   4081.648570    0.00000    0.00000   -0.67373    9    diag,B
   16      0.249D-04      0.652D-06     -5045.64080978   4081.648687    0.00000    0.00000   -0.67369    9    diag,B
   17      0.853D-05      0.292D-06     -5045.64080978   4081.648394    0.00000    0.00000   -0.67369    0    orth

 Final alpha occupancy:  12   5   5   2
 Final beta  occupancy:  11   5   5   2

 !RKS STATE 1.1 Energy              -5045.640809778264
 Nuclear energy                        18.31614124
 One-electron energy                -6995.12438648
 Two-electron energy                 2040.82419715
 Density functional                  -109.65676169     PBEX=-142.96226473 PBEC=  -2.43506314
 Virial quotient                       -0.88623714
 !RKS STATE 1.1 Dipole moment           0.00000000     0.00000000    -0.67369248
 Dipole moment /Debye                   0.00000000     0.00000000    -1.71224332

 Orbital energies:

         1.1          2.1          3.1          4.1          5.1          6.1          7.1          8.1          9.1         10.1
   -889.925496  -130.800567  -117.268733   -23.994932   -19.518782   -12.371111   -12.357550    -3.411239    -2.130397    -0.401144

        11.1         12.1         13.1         14.1
     -0.262421    -0.218803    -0.048559     0.012762

         1.2          2.2          3.2          4.2          5.2          6.2          7.2
   -117.262124   -19.502281   -12.367678    -2.099076    -0.285934    -0.010336     0.039689

         1.3          2.3          3.3          4.3          5.3          6.3          7.3
   -117.262124   -19.502281   -12.367678    -2.099076    -0.285934    -0.010336     0.039689

         1.4          2.4          3.4          4.4
    -12.357549    -0.262421     0.069689     0.262665

 HOMO     12.1    -0.218803 =      -5.9539eV
 LUMO     13.1    -0.048559 =      -1.3214eV
 LUMO-HOMO         0.170244 =       4.6326eV


 **********************************************************************************************************************************
 DATASETS  * FILE   NREC   LENGTH (MB)   RECORD NAMES
              1      23       20.70       500      610      700      900      950      970     1000      129      960     1700   
                                          VAR    BASINP    GEOM    SYMINP    ZMAT    AOBASIS   BASIS     P2S    ABASIS    OPER   
                                         1101     1401     1411     1412     1650     1100     1400     1410     1200     1210   
                                          SR      EKINR    POTR     PVPR    MOLCAS      S      EKIN      POT      H0       H01  
                                         1080     1600     1800   
                                         AOSYM     SMH     GRID   

              2       5        3.01       700     1000      520     1800     2100   
                                         GEOM     BASIS   MCVARS    GRID      RKS  

 PROGRAMS   *        TOTAL       RKS       INT
 CPU TIMES  *        26.43      0.58     25.54
 REAL TIME  *        52.31 SEC
 DISK USED  *       839.69 MB      
 SF USED    *         0.03 MB      
 GA USED    *         0.20 MB       (max)       0.20 MB       (current)
 **********************************************************************************************************************************


 PROGRAM * RHF-SCF (OPEN SHELL)       Authors: W. Meyer, H.-J. Werner


 NUMBER OF ELECTRONS:      24+   23-    SPACE SYMMETRY=1    SPIN SYMMETRY: Doublet 
 CONVERGENCE THRESHOLDS:    1.00E-05 (Density)    1.00E-07 (Energy)
 MAX. NUMBER OF ITERATIONS:       60
 INTERPOLATION TYPE:            DIIS
 INTERPOLATION STEPS:              2 (START)      1 (STEP)
 LEVEL SHIFTS:                 -0.60 (CLOSED) -0.30 (OPEN) 

 Number of closed-shell orbitals:   23 (  11   5   5   2 )
 Number of open-shell orbitals:      1 (   1   0   0   0 )


 Molecular orbitals read from record     2100.2  Type=RKS/CANONICAL (state 1.1)

 Molecular orbital dump at record        2101.2

 ITERATION    DDIFF          GRAD             ENERGY        2-EL.EN.            DIPOLE MOMENTS         DIIS   ORB.
    1      0.000D+00      0.000D+00     -5043.35565977   3866.905171    0.00000    0.00000   -0.67369    0    start
    2      0.000D+00      0.131D-01     -5043.37107596   3867.070277    0.00000    0.00000   -0.76840    1    diag,B
    3      0.813D-02      0.121D-02     -5043.37273623   3867.738692    0.00000    0.00000   -0.82583    2    diag,B
    4      0.127D-02      0.466D-03     -5043.37346676   3867.433180    0.00000    0.00000   -0.88525    3    diag,B
    5      0.712D-03      0.267D-03     -5043.37377096   3867.718451    0.00000    0.00000   -0.92066    4    diag,B
    6      0.419D-03      0.160D-03     -5043.37394299   3867.580529    0.00000    0.00000   -0.95597    5    diag,B
    7      0.345D-03      0.829D-04     -5043.37401777   3867.572708    0.00000    0.00000   -0.97927    6    diag,B
    8      0.254D-03      0.437D-04     -5043.37404481   3867.572768    0.00000    0.00000   -0.98912    7    orth
    9      0.189D-03      0.249D-04     -5043.37405706   3867.571882    0.00000    0.00000   -0.99588    8    diag,B
   10      0.163D-03      0.108D-04     -5043.37405877   3867.573398    0.00000    0.00000   -0.99832    9    diag,B
   11      0.440D-04      0.566D-05     -5043.37405918   3867.578973    0.00000    0.00000   -0.99953    9    diag,B
   12      0.407D-04      0.255D-05     -5043.37405925   3867.579532    0.00000    0.00000   -1.00001    9    diag,B
   13      0.126D-04      0.137D-05     -5043.37405927   3867.580922    0.00000    0.00000   -1.00036    9    diag,B
   14      0.118D-04      0.744D-06     -5043.37405928   3867.581491    0.00000    0.00000   -1.00060    9    diag,B
   15      0.688D-05      0.372D-06     -5043.37405928   3867.581972    0.00000    0.00000   -1.00060    0    orth

 Final alpha occupancy:  12   5   5   2
 Final beta  occupancy:  11   5   5   2

 !RHF STATE 1.1 Energy              -5043.374059284198
 Nuclear energy                        18.31614124
 One-electron energy                -6995.48118662
 Two-electron energy                 1933.79098610
 Virial quotient                       -0.88560341
 !RHF STATE 1.1 Dipole moment           0.00000000     0.00000000    -1.00059947
 Dipole moment /Debye                   0.00000000     0.00000000    -2.54310359

 Orbital energies:

         1.1          2.1          3.1          4.1          5.1          6.1          7.1          8.1          9.1         10.1
   -899.540522  -134.499394  -120.393254   -25.652684   -20.897802   -13.309774   -13.307151    -3.958442    -2.523775    -0.506916

        11.1         12.1         13.1         14.1
     -0.414589    -0.305268     0.010888     0.028016

         1.2          2.2          3.2          4.2          5.2          6.2          7.2
   -120.388265   -20.880554   -13.318473    -2.505585    -0.442648     0.023954     0.079568

         1.3          2.3          3.3          4.3          5.3          6.3          7.3
   -120.388265   -20.880554   -13.318473    -2.505585    -0.442648     0.023954     0.079568

         1.4          2.4          3.4          4.4
    -13.307151    -0.414589     0.099694     0.336645

 HOMO     12.1    -0.305268 =      -8.3068eV
 LUMO     13.1     0.010888 =       0.2963eV
 LUMO-HOMO         0.316156 =       8.6030eV


 **********************************************************************************************************************************
 DATASETS  * FILE   NREC   LENGTH (MB)   RECORD NAMES
              1      23       20.70       500      610      700      900      950      970     1000      129      960     1700   
                                          VAR    BASINP    GEOM    SYMINP    ZMAT    AOBASIS   BASIS     P2S    ABASIS    OPER   
                                         1101     1401     1411     1412     1650     1100     1400     1410     1200     1210   
                                          SR      EKINR    POTR     PVPR    MOLCAS      S      EKIN      POT      H0       H01  
                                         1080     1600     1800   
                                         AOSYM     SMH     GRID   

              2       6        5.80       700     1000      520     1800     2100     2101   
                                         GEOM     BASIS   MCVARS    GRID      RKS      RHF  

 PROGRAMS   *        TOTAL       RHF       RKS       INT
 CPU TIMES  *        26.94      0.50      0.58     25.54
 REAL TIME  *        53.16 SEC
 DISK USED  *       903.94 MB      
 SF USED    *         0.03 MB      
 GA USED    *         0.20 MB       (max)       0.20 MB       (current)
 **********************************************************************************************************************************
 SETTING BASIS          =    USERDEF


 Recomputing integrals since basis changed


 Using spherical harmonics



 PROGRAM * SEWARD (Integral evaluation for generally contracted gaussian basis sets)     Author: Roland Lindh, 1990

 Geometry written to block  1 of record 700


 Point group  C2v 



 ATOMIC COORDINATES

 NR  ATOM    CHARGE       X              Y              Z

   1  PD     46.00    0.000000000    0.000000000    0.000000000
   2  H       1.00    0.000000000    0.000000000    2.511446020

 Bond lengths in Bohr (Angstrom)

 1-2  2.511446020
     ( 1.329000000)

 NUCLEAR CHARGE:                   47
 NUMBER OF PRIMITIVE AOS:         541
 NUMBER OF SYMMETRY AOS:          400
 NUMBER OF CONTRACTIONS:          393   ( 156A1  +  92B1  +  92B2  +  53A2  )
 NUMBER OF CORE ORBITALS:          18   (   9A1  +   4B1  +   4B2  +   1A2  )
 NUMBER OF VALENCE ORBITALS:        7   (   4A1  +   1B1  +   1B2  +   1A2  )


 NUCLEAR REPULSION ENERGY   18.31614124

 One-electron integrals computed with SEWARD

 10nd-order Douglas-Kroll-Hess method activated. McWeeny DKH parametrization is used.

 Computing Douglas-Kroll / X2C integrals

 AO integral compression algorithm  1   Integral accuracy      1.0D-12

     1881.145 MB (compressed) written to integral file ( 30.3%)

     Node minimum: 58.196 MB, node maximum: 118.489 MB


 NUMBER OF SORTED TWO-ELECTRON INTEGRALS:   33156503.     BUFFER LENGTH:  32768
 NUMBER OF SEGMENTS:   2  SEGMENT LENGTH:   31993991      RECORD LENGTH: 524288

 Memory used in sort:      32.55 MW

 SORT1 READ   776790331. AND WROTE    12217036. INTEGRALS IN     36 RECORDS. CPU TIME:    49.84 SEC, REAL TIME:    55.60 SEC
 SORT2 READ   317266807. AND WROTE   762796761. INTEGRALS IN   5842 RECORDS. CPU TIME:     2.52 SEC, REAL TIME:     4.05 SEC

 Node minimum:    33144911.  Node maximum:    33215193. integrals

 OPERATOR DM      FOR CENTER  0  COORDINATES:    0.000000    0.000000    0.000000

 EXTRA SYMMETRY OF AOS IN SYMMETRY 1:   1 1 1 1 1 1 1 1 1 1   1 1 1 1 1 1 1 1 1 1   1 1 1 1 1 1 1 1 1 1   1 1 1 1 1 1 1 1 1 1
                                        1 1 1 1 1 1 1 1 1 1   1 1 1 2 1 2 1 2 1 2   1 2 1 2 1 2 1 2 1 2   1 2 1 2 1 2 1 2 1 2
                                        1 2 1 2 1 2 1 2 1 2   1 2 1 2 1 2 1 3 2 1   3 2 1 3 2 1 3 2 2 3   1 2 3 1 2 3 1 4 3 2
                                        1 4 3 2 1 1 1 1 1 1   1 1 1 1 1 1 1 2 1 2   1 2 1 2 1 2 1 2 1 2   1 3 2 1 3 2
 EXTRA SYMMETRY OF AOS IN SYMMETRY 2:   1 1 1 1 1 1 1 1 1 1   1 1 1 1 1 1 1 1 1 1   1 1 1 1 1 1 1 1 1 1   1 1 1 1 1 1 1 1 1 1
                                        1 2 1 2 1 2 1 2 1 2   1 2 1 2 1 2 1 2 1 2   3 1 2 3 1 2 3 3 2 1   3 2 1 1 1 1 1 1 1 1
                                        1 1 1 2 1 2 1 2 1 2   1 2
 EXTRA SYMMETRY OF AOS IN SYMMETRY 3:   1 1 1 1 1 1 1 1 1 1   1 1 1 1 1 1 1 1 1 1   1 1 1 1 1 1 1 1 1 1   1 1 1 1 1 1 1 1 1 1
                                        1 2 1 2 1 2 1 2 1 2   1 2 1 2 1 2 1 2 1 2   3 1 2 3 1 2 3 3 2 1   3 2 1 1 1 1 1 1 1 1
                                        1 1 1 2 1 2 1 2 1 2   1 2
 EXTRA SYMMETRY OF AOS IN SYMMETRY 4:   1 1 1 1 1 1 1 1 1 1   1 1 1 1 1 1 1 1 1 1   1 1 1 2 1 2 1 2 1 2   2 1 2 1 2 1 1 3 2 1
                                        3 2 1 1 1 1 1 1 1 1   2 1 2

 Eigenvalues of metric

         1 0.775E-06 0.149E-05 0.637E-05 0.769E-05 0.938E-05 0.130E-04 0.427E-04 0.754E-04
         2 0.952E-06 0.873E-05 0.187E-03 0.271E-03 0.463E-03 0.147E-02 0.243E-02 0.286E-02
         3 0.952E-06 0.873E-05 0.187E-03 0.271E-03 0.463E-03 0.147E-02 0.243E-02 0.286E-02
         4 0.938E-05 0.295E-03 0.267E-02 0.349E-02 0.106E-01 0.236E-01 0.324E-01 0.504E-01


 **********************************************************************************************************************************
 DATASETS  * FILE   NREC   LENGTH (MB)   RECORD NAMES
              1      22       22.96       500      610      700      900      950      970     1001      129      960     1700   
                                          VAR    BASINP    GEOM    SYMINP    ZMAT    AOBASIS   BASIS     P2S    ABASIS    OPER   
                                         1101     1401     1411     1412     1650     1100     1400     1410     1200     1210   
                                          SR      EKINR    POTR     PVPR    MOLCAS      S      EKIN      POT      H0       H01  
                                         1080     1600   
                                         AOSYM     SMH  

              2       7        5.97       700     1000      520     1800     2100     2101     1001   
                                         GEOM     BASIS   MCVARS    GRID      RKS      RHF     BASIS   

 PROGRAMS   *        TOTAL       INT       RHF       RKS       INT
 CPU TIMES  *       110.00     83.01      0.50      0.58     25.54
 REAL TIME  *       147.75 SEC
 DISK USED  *         6.35 GB      
 SF USED    *         0.03 MB      
 GA USED    *         0.20 MB       (max)       0.00 MB       (current)
 **********************************************************************************************************************************


 PROGRAM * RHF-SCF (OPEN SHELL)       Authors: W. Meyer, H.-J. Werner


 NUMBER OF ELECTRONS:      24+   23-    SPACE SYMMETRY=1    SPIN SYMMETRY: Doublet 
 CONVERGENCE THRESHOLDS:    1.00E-05 (Density)    1.00E-07 (Energy)
 MAX. NUMBER OF ITERATIONS:       60
 INTERPOLATION TYPE:            DIIS
 INTERPOLATION STEPS:              2 (START)      1 (STEP)
 LEVEL SHIFTS:                 -0.60 (CLOSED) -0.30 (OPEN) 

 Number of closed-shell orbitals:   23 (  11   5   5   2 )
 Number of open-shell orbitals:      1 (   1   0   0   0 )


 Molecular orbitals read from record     2101.2  Type=RHF/CANONICAL (state 1.1)
 
 Present basis size:     156  92  92  53
 Previous basis size:     65  37  37  20
 Previous occupation:     12   5   5   2
 Previous closed-shells:  11   5   5   2
 Previous core-orbitals:   9   4   4   1
 Present occupation:      12   5   5   2
 Present closed-shells:   11   5   5   2
 Present core-orbitals:    9   4   4   1
 Wavefunction symmetry:    1   Doublet 

 Orbital overlap <old|new>:  < 1.1| 1.1> = 1.000000   < 2.1| 2.1> = 1.000000   < 3.1| 3.1> = 1.000000   < 4.1| 4.1> = 1.000000
                             < 5.1| 5.1> = 1.000000   < 6.1| 6.1> = 1.000000   < 7.1| 7.1> = 1.000000   < 8.1| 8.1> = 1.000000
                             < 9.1| 9.1> = 1.000000   < 1.2| 1.2> = 1.000000   < 2.2| 2.2> = 1.000000   < 3.2| 3.2> = 1.000000
                             < 4.2| 4.2> = 1.000000   < 1.3| 1.3> = 1.000000   < 2.3| 2.3> = 1.000000   < 3.3| 3.3> = 1.000000
                             < 4.3| 4.3> = 1.000000   < 1.4| 1.4> = 1.000000   <10.1|10.1> = 0.999998   <11.1|11.1> = 1.000000
                             < 5.2| 5.2> = 1.000000   < 5.3| 5.3> = 1.000000   < 2.4| 2.4> = 1.000000   <12.1|12.1> = 1.000000

 Molecular orbital dump at record        2102.2

 ITERATION    DDIFF          GRAD             ENERGY        2-EL.EN.            DIPOLE MOMENTS         DIIS   ORB.
    1      0.000D+00      0.000D+00     -5043.37379406   3867.582263    0.00000    0.00000   -1.00053    0    start
    2      0.000D+00      0.553D-01     -5043.37462475   3867.631580    0.00000    0.00000   -0.99944    1    diag,B
    3      0.626D-02      0.111D-03     -5043.37463023   3867.616418    0.00000    0.00000   -0.99858    2    diag,B
    4      0.868D-03      0.143D-04     -5043.37463088   3867.622389    0.00000    0.00000   -0.99817    3    diag,B
    5      0.238D-03      0.546D-05     -5043.37463104   3867.616741    0.00000    0.00000   -0.99786    4    diag,B
    6      0.729D-04      0.244D-05     -5043.37463107   3867.619548    0.00000    0.00000   -0.99770    5    diag,B
    7      0.211D-04      0.828D-06     -5043.37463108   3867.617925    0.00000    0.00000   -0.99765    6    diag,B
    8      0.107D-04      0.256D-06     -5043.37463108   3867.618181    0.00000    0.00000   -0.99764    7    orth
    9      0.515D-05      0.112D-06     -5043.37463108   3867.617905    0.00000    0.00000   -0.99766    0    orth

 Final alpha occupancy:  12   5   5   2
 Final beta  occupancy:  11   5   5   2

 !RHF STATE 1.1 Energy              -5043.374631077922
 Nuclear energy                        18.31614124
 One-electron energy                -6995.49972490
 Two-electron energy                 1933.80895258
 Virial quotient                       -0.88517703
 !RHF STATE 1.1 Dipole moment           0.00000000     0.00000000    -0.99765584
 Dipole moment /Debye                   0.00000000     0.00000000    -2.53562214

 Orbital energies:

         1.1          2.1          3.1          4.1          5.1          6.1          7.1          8.1          9.1         10.1
   -899.533967  -134.499041  -120.392271   -25.652737   -20.897613   -13.309767   -13.307365    -3.958481    -2.523720    -0.506869

        11.1         12.1         13.1         14.1
     -0.414651    -0.305226     0.010820     0.028186

         1.2          2.2          3.2          4.2          5.2          6.2          7.2
   -120.387395   -20.880581   -13.318490    -2.505652    -0.442747     0.023892     0.079276

         1.3          2.3          3.3          4.3          5.3          6.3          7.3
   -120.387395   -20.880581   -13.318490    -2.505652    -0.442747     0.023892     0.079276

         1.4          2.4          3.4          4.4
    -13.307365    -0.414651     0.098698     0.327043

 HOMO     12.1    -0.305226 =      -8.3056eV
 LUMO     13.1     0.010820 =       0.2944eV
 LUMO-HOMO         0.316046 =       8.6000eV


 **********************************************************************************************************************************
 DATASETS  * FILE   NREC   LENGTH (MB)   RECORD NAMES
              1      22       22.96       500      610      700      900      950      970     1001      129      960     1700   
                                          VAR    BASINP    GEOM    SYMINP    ZMAT    AOBASIS   BASIS     P2S    ABASIS    OPER   
                                         1101     1401     1411     1412     1650     1100     1400     1410     1200     1210   
                                          SR      EKINR    POTR     PVPR    MOLCAS      S      EKIN      POT      H0       H01  
                                         1080     1600   
                                         AOSYM     SMH  

              2       8        9.70       700     1000      520     1800     2100     2101     1001     2102   
                                         GEOM     BASIS   MCVARS    GRID      RKS      RHF     BASIS     RHF  

 PROGRAMS   *        TOTAL       RHF       INT       RHF       RKS       INT
 CPU TIMES  *       113.11      3.10     83.01      0.50      0.58     25.54
 REAL TIME  *       151.62 SEC
 DISK USED  *         6.60 GB      
 SF USED    *         0.18 MB      
 GA USED    *         0.20 MB       (max)       0.00 MB       (current)
 **********************************************************************************************************************************
 SETTING E_PD           =     -5044.36637900                                  
 SETTING E_H            =        -0.49982785                                  
 SETTING SCF            =     -5043.37463108  AU                              
 SETTING _CC_NORM_MAX   =         2.00000000                                  


 PROGRAM * CCSD (Restricted open-shell coupled cluster)     Authors: C. Hampel, H.-J. Werner, 1991, M. Deegan, P.J. Knowles, 1992


 Convergence thresholds:  THRVAR = 1.00D-08  THRDEN = 1.00D-06

 CCSD(T)     terms to be evaluated (factor= 1.000)


 Number of closed-shell orbitals:  23 (  11   5   5   2 )
 Number of active  orbitals:        1 (   1   0   0   0 )
 Number of external orbitals:     369 ( 144  87  87  51 )

 Number of N-1 electron functions:              47
 Number of N-2 electron functions:            1081
 Number of singly external CSFs:              5279
 Number of doubly external CSFs:          28460967
 Total number of CSFs:                    28466246

 Molecular orbitals read from record     2102.2  Type=RHF/CANONICAL (state 1.1)

 Integral transformation finished. Total CPU:  30.45 sec, npass=  1  Memory used:  53.59 MW

 Starting RMP2 calculation

 Wavefunction is spin-projected

 ITER.      SQ.NORM     CORR.ENERGY   TOTAL ENERGY   ENERGY CHANGE        DEN1      VAR(S)    VAR(P)  DIIS     TIME
   1      1.17177984    -1.80782585 -5045.18245693    -1.80782585    -0.00134709  0.11D-04  0.52D-03  1  1    62.15
   2      1.17301815    -1.80924279 -5045.18387387    -0.00141693    -0.00000474  0.41D-06  0.28D-05  2  2    87.13
   3      1.17309849    -1.80929284 -5045.18392392    -0.00005006    -0.00000003  0.13D-07  0.15D-07  3  3   105.73
   4      1.17310109    -1.80929323 -5045.18392431    -0.00000039    -0.00000000  0.33D-09  0.89D-10  4  4   122.38

 Norm of t1 vector:      0.02726784      S-energy:    -0.00158771      T1 diagnostic:  0.00031228
 Norm of t2 vector:      0.41515968      P-energy:    -1.80770552
                                         Alpha-Beta:  -1.21765215
                                         Alpha-Alpha: -0.30573266
                                         Beta-Beta:   -0.28432072

 Spin contamination <S**2-Sz**2-Sz>     0.00000000
  Reference energy                  -5043.374631077921
  RHF-RMP2 correlation energy          -1.809293234512
 !RHF-RMP2 energy                   -5045.183924312433
 (NB above energy spin projected)

 Starting RCCSD calculation

 ITER.      SQ.NORM     CORR.ENERGY   TOTAL ENERGY   ENERGY CHANGE        DEN1      VAR(S)    VAR(P)  DIIS     TIME
   1      1.13421478    -1.67722426 -5045.05185534    -1.67722426    -0.03528618  0.43D-02  0.51D-02  0  0   196.50
   2      1.14960944    -1.71043756 -5045.08506864    -0.03321329    -0.00268182  0.33D-03  0.74D-03  1  1   283.64
   3      1.15131417    -1.70621284 -5045.08084391     0.00422472    -0.00038915  0.35D-03  0.52D-04  2  2   366.58
   4      1.15547535    -1.70743509 -5045.08206617    -0.00122226    -0.00012767  0.13D-03  0.17D-04  3  3   443.48
   5      1.16051177    -1.70840666 -5045.08303774    -0.00097157    -0.00002844  0.33D-04  0.33D-05  4  4   522.13
   6      1.16281328    -1.70852886 -5045.08315994    -0.00012219    -0.00000708  0.94D-05  0.69D-06  5  5   605.43
   7      1.16435691    -1.70861982 -5045.08325090    -0.00009096    -0.00000166  0.19D-05  0.18D-06  6  6   693.86
   8      1.16461704    -1.70861504 -5045.08324612     0.00000478    -0.00000039  0.36D-06  0.70D-07  6  1   861.00
   9      1.16489674    -1.70863458 -5045.08326565    -0.00001953    -0.00000008  0.65D-07  0.14D-07  6  3   938.25
  10      1.16492507    -1.70863729 -5045.08326837    -0.00000272    -0.00000001  0.13D-07  0.21D-08  6  2  1022.19
  11      1.16493209    -1.70863705 -5045.08326812     0.00000025    -0.00000000  0.39D-08  0.75D-09  6  4  1113.37

 Norm of t1 vector:      0.13774674      S-energy:    -0.00145034      T1 diagnostic:  0.01396138
                                                                       D1 diagnostic:  0.06154655
 Norm of t2 vector:      0.38204441      P-energy:    -1.70718671
                                         Alpha-Beta:  -1.17830966
                                         Alpha-Alpha: -0.27342997
                                         Beta-Beta:   -0.25544708

 Singles amplitudes (print threshold =  0.500E-01):

         I         SYM. A    A   T(IA) [Alpha-Alpha]

        12         1         4      0.05438503
 
         I         SYM. A    A   T(IA) [Beta-Beta]

        10         1         1      0.06039876

 Spin contamination <S**2-Sz**2-Sz>     0.00000000

 For full I/O caching in triples, increase memory by 22.89 Mwords to 535.17 Mwords.
 

  Correlated core orbitals:             1.1       2.1       3.1       4.1       5.1       6.1       7.1       8.1       9.1       1.2
                                        2.2       3.2       4.2       1.3       2.3       3.3       4.3       1.4
  Orbital energies:                  -899.5346 -134.5019 -120.3959  -25.6551  -20.9025  -13.3223  -13.3080   -3.9748   -2.5562 -120.3893
                                      -20.8812  -13.3201   -2.5165 -120.3893  -20.8812  -13.3201   -2.5165  -13.3080
 
  RCCSD core-core energy               -0.953236821884
  RCCSD core-valence energy            -0.361543563704
  RCCSD valence correlation energy     -0.393856660285
 

 RESULTS
 =======

  Reference energy                  -5043.374631077921
  RCCSD singles energy                 -0.001450340626
  RCCSD pair energy                    -1.707186705248
  RCCSD correlation energy             -1.708637045873
  Triples (T) contribution             -0.039426216017
  Total correlation energy             -1.748063261890
 
  RHF-RCCSD energy                  -5045.083268123793
  RHF-RCCSD[T] energy               -5045.124262712377
  RHF-RCCSD-T energy                -5045.122495859592
 !RHF-RCCSD(T) energy               -5045.122694339811

 Program statistics:

 Available memory in ccsd:               511995052
 Min. memory needed in ccsd:              78160944
 Max. memory used in ccsd:               114869412
 Max. memory used in cckext:              89921687 (11 integral passes)
 Max. memory used in cckint:              53588523 ( 1 integral passes)



 **********************************************************************************************************************************
 DATASETS  * FILE   NREC   LENGTH (MB)   RECORD NAMES
              1      22       22.96       500      610      700      900      950      970     1001      129      960     1700   
                                          VAR    BASINP    GEOM    SYMINP    ZMAT    AOBASIS   BASIS     P2S    ABASIS    OPER   
                                         1101     1401     1411     1412     1650     1100     1400     1410     1200     1210   
                                          SR      EKINR    POTR     PVPR    MOLCAS      S      EKIN      POT      H0       H01  
                                         1080     1600   
                                         AOSYM     SMH  

              2       8        9.70       700     1000      520     1800     2100     2101     1001     2102   
                                         GEOM     BASIS   MCVARS    GRID      RKS      RHF     BASIS     RHF  

 PROGRAMS   *        TOTAL  RCCSD(T)       RHF       INT       RHF       RKS       INT
 CPU TIMES  *      1937.07   1823.79      3.10     83.01      0.50      0.58     25.54
 REAL TIME  *      2893.74 SEC
 DISK USED  *        89.70 GB      
 SF USED    *        10.39 GB      
 GA USED    *         0.20 MB       (max)       0.00 MB       (current)
 **********************************************************************************************************************************
 SETTING CCSD           =     -5045.12269434  AU                              
 SETTING BE             =        -0.25648749  AU                              
 Output type csv         
                                                                                                                                                                                                                                                                

         SCF,CCSD,BE
   -5043.374631,   -5045.122694,   -0.25648749
                                                  

 RCCSD(T)/USERDEF energy=  -5045.122694339811

        RCCSD(T)        RHF-SCF         RHF-SCF         RKS-SCF 
  -5045.12269434  -5043.37463108  -5043.37405928  -5045.64080978
 **********************************************************************************************************************************
 Molpro calculation terminated
 Variable memory released
