
 Primary working directories    : /global/cscratch1/sd/bkincaid
 Secondary working directories  : /global/cscratch1/sd/bkincaid
 Wavefunction directory         : /global/homes/b/bkincaid/wfu/
 Main file repository           : /global/cscratch1/sd/bkincaid/

 SHA1      : 19cd028119e0e09f93f0674bd8af7968d9b3eff6
 NAME      : 2015.1.36
 ARCHNAME  : linux/x86_64
 FC        : /opt/cray/pe/craype/2.5.14/bin/ftn
 BLASLIB   : -L/opt/intel/compilers_and_libraries_2018.1.163/linux/mkl/lib/intel64 -Wl,-_start-group -lmkl_intel_ilp64 -lmkl_intel_thread -lmkl_core -Wl,-_end-group -liomp5
 id        : lbl

 Nodes     nprocs
 nid00985    23
 Number of processes for MPI-2 version of Molpro:   nprocs(total)=   24   nprocs(compute)=   23   nprocs(helper)=    1

 Using customized tuning parameters: mindgm=7; mindgv=16; mindgc=1; mindgr=1; noblas=0; minvec=7
 default implementation of scratch files=sf  

 ***,Calculation for PdH groundstate
 memory,512,m
 gthresh,twoint=1.0E-12
 gthresh,throvl=1.0E-12
                                                                                 !symmetry,nosym
 
 
 basis={
 Including file /global/u1/b/bkincaid/molpro/Pd/molecules/PdH/tz/ecps/bk24.1/bk24.1
 Including file /global/u1/b/bkincaid/molpro/Pd/molecules/PdH/tz/ecps/bk24.1/Pd-aug-cc-pwCVTZ.basis
 ecp,H,0,1,0
 3
 1, 21.24359508259891,   1.00000000000000
 3, 21.24359508259891,  21.24359508259891
 2, 21.77696655044365, -10.85192405303825
 1
 2, 1.000000000000000,   0.00000000000000
 Including file /global/u1/b/bkincaid/molpro/Pd/molecules/PdH/tz/ecps/bk24.1/H-aug-cc-pVTZ.basis
 }
 
 ne = 19
 
 A1=5
 B1=2
 B2=2
 A2=1
 
 do i=1,11
 z(i) = 1.679 - 0.05*(i-1)
 geometry={
 2
 PdH
 Pd 0.0 0.0 0.0
 H 0.0 0.0 z(i)
 }
 {rhf
 wf,nelec=ne,spin=1,sym=1
 occ,A1,B1,B2,A2
 closed,A1-1,B1,B2,A2
 }
 scf(i)=energy
 _CC_NORM_MAX=2.0
 {rccsd(t);maxit,100;core}
 ccsd(i)=energy
 enddo
 
 table,z,scf,ccsd
 save
 type,csv

 Variables initialized (889), CPU time= 0.01 sec
 Commands  initialized (702), CPU time= 0.02 sec, 572 directives.
 Default parameters read. Elapsed time= 0.15 sec

 Checking input...
 Passed
1


                                         ***  PROGRAM SYSTEM MOLPRO  ***
                                       Copyright, TTI GmbH Stuttgart, 2015
                                    Version 2015.1 linked Dec 29 2018 15:55:43


 **********************************************************************************************************************************
 LABEL *   Calculation for PdH groundstate                                               
  64 bit mpp version                                                                     DATE: 09-Apr-21          TIME: 01:52:55  
 **********************************************************************************************************************************

 SHA1:             19cd028119e0e09f93f0674bd8af7968d9b3eff6
 **********************************************************************************************************************************

 THRESHOLDS:

 ZERO    =  1.00D-12  ONEINT  =  1.00D-12  TWOINT  =  1.00D-12  PREFAC  =  1.00D-14  LOCALI  =  1.00D-09  EORDER  =  1.00D-04
 ENERGY  =  0.00D+00  ETEST   =  0.00D+00  EDENS   =  0.00D+00  THRDEDEF=  1.00D-06  GRADIENT=  1.00D-02  STEP    =  1.00D-03
 ORBITAL =  1.00D-05  CIVEC   =  1.00D-05  COEFF   =  1.00D-04  PRINTCI =  5.00D-02  PUNCHCI =  9.90D+01  OPTGRAD =  3.00D-04
 OPTENERG=  1.00D-06  OPTSTEP =  3.00D-04  THRGRAD =  1.00D-10  COMPRESS=  1.00D-11  VARMIN  =  1.00D-07  VARMAX  =  1.00D-03
 THRDOUB =  0.00D+00  THRDIV  =  1.00D-05  THRRED  =  1.00D-07  THRPSP  =  1.00D+00  THRDC   =  1.00D-10  THRCS   =  1.00D-10
 THRNRM  =  1.00D-08  THREQ   =  0.00D+00  THRDE   =  1.00D+00  THRREF  =  1.00D-05  SPARFAC =  1.00D+00  THRDLP  =  1.00D-07
 THRDIA  =  1.00D-10  THRDLS  =  1.00D-07  THRGPS  =  0.00D+00  THRKEX  =  0.00D+00  THRDIS  =  2.00D-01  THRVAR  =  1.00D-10
 THRLOC  =  1.00D-06  THRGAP  =  1.00D-06  THRLOCT = -1.00D+00  THRGAPT = -1.00D+00  THRORB  =  1.00D-06  THRMLTP =  0.00D+00
 THRCPQCI=  1.00D-10  KEXTA   =  0.00D+00  THRCOARS=  0.00D+00  SYMTOL  =  1.00D-06  GRADTOL =  1.00D-06  THROVL  =  1.00D-08
 THRORTH =  1.00D-08  GRID    =  1.00D-06  GRIDMAX =  1.00D-03  DTMAX   =  0.00D+00  THROCCDE=  1.00D-01  THROCCDE=  1.00D-01



 THRESHOLDS:

 ZERO    =  1.00D-12  ONEINT  =  1.00D-12  TWOINT  =  1.00D-12  PREFAC  =  1.00D-14  LOCALI  =  1.00D-09  EORDER  =  1.00D-04
 ENERGY  =  0.00D+00  ETEST   =  0.00D+00  EDENS   =  0.00D+00  THRDEDEF=  1.00D-06  GRADIENT=  1.00D-02  STEP    =  1.00D-03
 ORBITAL =  1.00D-05  CIVEC   =  1.00D-05  COEFF   =  1.00D-04  PRINTCI =  5.00D-02  PUNCHCI =  9.90D+01  OPTGRAD =  3.00D-04
 OPTENERG=  1.00D-06  OPTSTEP =  3.00D-04  THRGRAD =  1.00D-10  COMPRESS=  1.00D-11  VARMIN  =  1.00D-07  VARMAX  =  1.00D-03
 THRDOUB =  0.00D+00  THRDIV  =  1.00D-05  THRRED  =  1.00D-07  THRPSP  =  1.00D+00  THRDC   =  1.00D-10  THRCS   =  1.00D-10
 THRNRM  =  1.00D-08  THREQ   =  0.00D+00  THRDE   =  1.00D+00  THRREF  =  1.00D-05  SPARFAC =  1.00D+00  THRDLP  =  1.00D-07
 THRDIA  =  1.00D-10  THRDLS  =  1.00D-07  THRGPS  =  0.00D+00  THRKEX  =  0.00D+00  THRDIS  =  2.00D-01  THRVAR  =  1.00D-10
 THRLOC  =  1.00D-06  THRGAP  =  1.00D-06  THRLOCT = -1.00D+00  THRGAPT = -1.00D+00  THRORB  =  1.00D-06  THRMLTP =  0.00D+00
 THRCPQCI=  1.00D-10  KEXTA   =  0.00D+00  THRCOARS=  0.00D+00  SYMTOL  =  1.00D-06  GRADTOL =  1.00D-06  THROVL  =  1.00D-12
 THRORTH =  1.00D-08  GRID    =  1.00D-06  GRIDMAX =  1.00D-03  DTMAX   =  0.00D+00  THROCCDE=  1.00D-01  THROCCDE=  1.00D-01



 Variable memory set to  512000000 words,  buffer space   230000 words

 SETTING BASIS          =    USERDEF
 SETTING NE             =        19.00000000                                  
 SETTING A1             =         5.00000000                                  
 SETTING B1             =         2.00000000                                  
 SETTING B2             =         2.00000000                                  
 SETTING A2             =         1.00000000                                  

 DO I                   =         1.00000000   
 SETTING Z(1)           =         1.67900000                                  

Geometry recognized as XYZ



 Recomputing integrals since basis changed


 Using spherical harmonics



 PROGRAM * SEWARD (Integral evaluation for generally contracted gaussian basis sets)     Author: Roland Lindh, 1990

 Geometry written to block  1 of record 700


 Point group  C2v 



 ATOMIC COORDINATES

 NR  ATOM    CHARGE       X              Y              Z

   1  PD     18.00    0.000000000    0.000000000    0.000000000
   2  H       1.00    0.000000000    0.000000000    3.172850163

 Bond lengths in Bohr (Angstrom)

 1-2  3.172850163
     ( 1.679000000)

 NUCLEAR CHARGE:                   19
 NUMBER OF PRIMITIVE AOS:         312
 NUMBER OF SYMMETRY AOS:          263
 NUMBER OF CONTRACTIONS:          263   ( 116A1  +  59B1  +  59B2  +  29A2  )
 NUMBER OF CORE ORBITALS:           4   (   2A1  +   1B1  +   1B2  +   0A2  )
 NUMBER OF VALENCE ORBITALS:        7   (   4A1  +   1B1  +   1B2  +   1A2  )


 NUCLEAR REPULSION ENERGY    5.67313270

 EXTRA SYMMETRY OF AOS IN SYMMETRY 1:   1 1 1 1 1 1 1 1 1 1   1 1 1 1 1 1 1 1 1 1   1 1 1 1 1 1 1 1 1 1   1 1 1 1 1 1 1 1 1 1
                                        1 1 1 1 1 1 1 1 1 1   1 1 1 2 1 2 1 2 1 2   1 2 1 2 1 2 1 2 1 2   1 2 1 2 1 2 1 2 1 2
                                        1 2 1 2 1 2 1 2 1 2   1 2 1 2 1 3 2 1 3 2   1 3 2 1 1 1 1 1 1 1   1 1 1 2 1 2
 EXTRA SYMMETRY OF AOS IN SYMMETRY 2:   1 1 1 1 1 1 1 1 1 1   1 1 1 1 1 1 1 1 1 1   1 1 1 1 1 1 1 1 1 1   1 1 1 1 1 1 1 1 1 1
                                        1 2 1 2 1 2 1 2 1 2   1 2 1 2 1 1 1 1 1
 EXTRA SYMMETRY OF AOS IN SYMMETRY 3:   1 1 1 1 1 1 1 1 1 1   1 1 1 1 1 1 1 1 1 1   1 1 1 1 1 1 1 1 1 1   1 1 1 1 1 1 1 1 1 1
                                        1 2 1 2 1 2 1 2 1 2   1 2 1 2 1 1 1 1 1
 EXTRA SYMMETRY OF AOS IN SYMMETRY 4:   1 1 1 1 1 1 1 1 1 1   1 1 1 1 1 1 1 1 1 1   1 1 2 1 2 1 2 1 1

 Eigenvalues of metric

         1 0.947E-06 0.194E-05 0.903E-05 0.951E-05 0.282E-04 0.119E-03 0.266E-03 0.274E-03
         2 0.982E-06 0.946E-05 0.304E-03 0.471E-03 0.163E-02 0.301E-02 0.406E-02 0.938E-02
         3 0.982E-06 0.946E-05 0.304E-03 0.471E-03 0.163E-02 0.301E-02 0.406E-02 0.938E-02
         4 0.951E-05 0.307E-03 0.302E-02 0.107E-01 0.287E-01 0.530E-01 0.879E-01 0.105E+00


 Contracted 2-electron integrals neglected if value below      1.0D-13
 AO integral compression algorithm  1   Integral accuracy      1.0D-13

     585.630 MB (compressed) written to integral file ( 42.7%)

     Node minimum: 2.621 MB, node maximum: 63.701 MB


 NUMBER OF SORTED TWO-ELECTRON INTEGRALS:    6738189.     BUFFER LENGTH:  32768
 NUMBER OF SEGMENTS:   1  SEGMENT LENGTH:    6738189      RECORD LENGTH: 524288

 Memory used in sort:       7.30 MW

 SORT1 READ   171363336. AND WROTE     2847112. INTEGRALS IN      9 RECORDS. CPU TIME:     2.94 SEC, REAL TIME:     3.01 SEC
 SORT2 READ    66858833. AND WROTE   156329493. INTEGRALS IN   2024 RECORDS. CPU TIME:     0.20 SEC, REAL TIME:     0.40 SEC

 Node minimum:     6738189.  Node maximum:     6815662. integrals

 OPERATOR DM      FOR CENTER  0  COORDINATES:    0.000000    0.000000    0.000000


 **********************************************************************************************************************************
 DATASETS  * FILE   NREC   LENGTH (MB)   RECORD NAMES
              1      19       20.83       500      610      700      900      950      970     1000      129      960     1100   
                                          VAR    BASINP    GEOM    SYMINP    ZMAT    AOBASIS   BASIS     P2S    ABASIS      S 
                                         1400     1410     1420     1200     1210     1080     1600     1650     1700   
                                           T        V       ECP      H0       H01     AOSYM     SMH    MOLCAS    OPER   

 PROGRAMS   *        TOTAL       INT
 CPU TIMES  *        19.05     18.86
 REAL TIME  *        20.99 SEC
 DISK USED  *         1.43 GB      
 GA USED    *         0.00 MB       (max)       0.00 MB       (current)
 **********************************************************************************************************************************


 PROGRAM * RHF-SCF (OPEN SHELL)       Authors: W. Meyer, H.-J. Werner


 NUMBER OF ELECTRONS:      10+    9-    SPACE SYMMETRY=1    SPIN SYMMETRY: Doublet 
 CONVERGENCE THRESHOLDS:    1.00E-05 (Density)    1.00E-07 (Energy)
 MAX. NUMBER OF ITERATIONS:       60
 INTERPOLATION TYPE:            DIIS
 INTERPOLATION STEPS:              2 (START)      1 (STEP)
 LEVEL SHIFTS:                 -0.60 (CLOSED) -0.30 (OPEN) 

 Number of closed-shell orbitals:    9 (   4   2   2   1 )
 Number of open-shell orbitals:      1 (   1   0   0   0 )


 Orbital guess generated from atomic densities. Full valence occupancy:    6   2   2   1

 Molecular orbital dump at record        2100.2

 ITERATION    DDIFF          GRAD             ENERGY        2-EL.EN.            DIPOLE MOMENTS         DIIS   ORB.
    1      0.000D+00      0.000D+00      -127.37850443    216.022904    0.00000    0.00000   -0.41174    0    start
    2      0.000D+00      0.699D-02      -127.40904315    210.669598    0.00000    0.00000   -0.84863    1    diag,B
    3      0.224D-02      0.438D-02      -127.41687028    211.805948    0.00000    0.00000   -0.87007    2    diag,B
    4      0.900D-03      0.118D-02      -127.42210181    211.563326    0.00000    0.00000   -1.01458    3    diag,B
    5      0.640D-03      0.780D-03      -127.42744498    211.260720    0.00000    0.00000   -1.16849    4    diag,B
    6      0.570D-03      0.601D-03      -127.43272421    210.927645    0.00000    0.00000   -1.32278    5    diag,B
    7      0.567D-03      0.488D-03      -127.43700704    210.617912    0.00000    0.00000   -1.45041    6    fixocc
    8      0.627D-03      0.287D-03      -127.43840423    210.405976    0.00000    0.00000   -1.51092    7    diag,B
    9      0.386D-03      0.172D-03      -127.43874054    210.344454    0.00000    0.00000   -1.54007    8    diag,B
   10      0.264D-03      0.110D-03      -127.43874573    210.317248    0.00000    0.00000   -1.54166    9    orth
   11      0.143D-03      0.713D-04      -127.43877282    210.305469    0.00000    0.00000   -1.54842    9    diag,B
   12      0.621D-04      0.217D-04      -127.43877624    210.304819    0.00000    0.00000   -1.55097    9    diag,B
   13      0.268D-04      0.815D-05      -127.43877709    210.305304    0.00000    0.00000   -1.55226    9    diag,B
   14      0.200D-04      0.432D-05      -127.43877727    210.305144    0.00000    0.00000   -1.55312    9    diag,B
   15      0.737D-05      0.317D-05      -127.43877731    210.304892    0.00000    0.00000   -1.55351    9    diag,B
   16      0.412D-05      0.174D-05      -127.43877732    210.304720    0.00000    0.00000   -1.55352    0    orth

 Final alpha occupancy:   5   2   2   1
 Final beta  occupancy:   4   2   2   1

 !RHF STATE 1.1 Energy               -127.438777317146
 Nuclear energy                         5.67313270
 One-electron energy                 -238.26426982
 Two-electron energy                  105.15235981
 Virial quotient                       -2.61960897
 !RHF STATE 1.1 Dipole moment           0.00000000     0.00000000    -1.55351746
 Dipole moment /Debye                   0.00000000     0.00000000    -3.94838890

 Orbital energies:

         1.1          2.1          3.1          4.1          5.1          6.1          7.1
     -3.979048    -2.542125    -0.431297    -0.404441    -0.410154     0.000380     0.031314

         1.2          2.2          3.2          4.2
     -2.538842    -0.454382     0.023578     0.080235

         1.3          2.3          3.3          4.3
     -2.538842    -0.454382     0.023578     0.080235

         1.4          2.4          3.4
     -0.431297     0.097436     0.324793

 HOMO      5.1    -0.410154 =     -11.1608eV
 LUMO      6.1     0.000380 =       0.0103eV
 LUMO-HOMO         0.410534 =      11.1712eV


 **********************************************************************************************************************************
 DATASETS  * FILE   NREC   LENGTH (MB)   RECORD NAMES
              1      19       20.87       500      610      700      900      950      970     1000      129      960     1100   
                                          VAR    BASINP    GEOM    SYMINP    ZMAT    AOBASIS   BASIS     P2S    ABASIS      S 
                                         1400     1410     1420     1200     1210     1080     1600     1650     1700   
                                           T        V       ECP      H0       H01     AOSYM     SMH    MOLCAS    OPER   

              2       4        3.40       700     1000      520     2100   
                                         GEOM     BASIS   MCVARS     RHF  

 PROGRAMS   *        TOTAL       RHF       INT
 CPU TIMES  *        20.40      1.35     18.86
 REAL TIME  *        22.74 SEC
 DISK USED  *         2.06 GB      
 SF USED    *         0.09 MB      
 GA USED    *         0.00 MB       (max)       0.00 MB       (current)
 **********************************************************************************************************************************
 SETTING SCF(1)         =      -127.43877732  AU                              
 SETTING _CC_NORM_MAX   =         2.00000000                                  


 PROGRAM * CCSD (Restricted open-shell coupled cluster)     Authors: C. Hampel, H.-J. Werner, 1991, M. Deegan, P.J. Knowles, 1992


 Convergence thresholds:  THRVAR = 1.00D-08  THRDEN = 1.00D-06

 CCSD(T)     terms to be evaluated (factor= 1.000)


 Number of closed-shell orbitals:   9 (   4   2   2   1 )
 Number of active  orbitals:        1 (   1   0   0   0 )
 Number of external orbitals:     253 ( 111  57  57  28 )

 Memory could be reduced to 77.45 Mwords without degradation in triples

 Number of N-1 electron functions:              19
 Number of N-2 electron functions:             171
 Number of singly external CSFs:              1520
 Number of doubly external CSFs:           2149669
 Total number of CSFs:                     2151189

 Molecular orbitals read from record     2100.2  Type=RHF/CANONICAL (state 1.1)

 Integral transformation finished. Total CPU:   2.75 sec, npass=  1  Memory used:   6.84 MW

 Starting RMP2 calculation

 Wavefunction is spin-projected

 ITER.      SQ.NORM     CORR.ENERGY   TOTAL ENERGY   ENERGY CHANGE        DEN1      VAR(S)    VAR(P)  DIIS     TIME
   1      1.14747991    -0.77497852  -128.21375584    -0.77497852    -0.00136994  0.15D-04  0.56D-03  1  1     3.48
   2      1.14888050    -0.77643878  -128.21521610    -0.00146026    -0.00000887  0.83D-06  0.55D-05  2  2     4.10
   3      1.14900539    -0.77650652  -128.21528384    -0.00006774    -0.00000009  0.27D-07  0.58D-07  3  3     4.99
   4      1.14901138    -0.77650781  -128.21528513    -0.00000129    -0.00000000  0.55D-09  0.66D-09  4  4     5.52
   5      1.14901155    -0.77650783  -128.21528514    -0.00000001    -0.00000000  0.12D-10  0.90D-11  5  5     5.99

 Norm of t1 vector:      0.02956860      S-energy:    -0.00255169      T1 diagnostic:  0.00075965
 Norm of t2 vector:      0.38488602      P-energy:    -0.77395613
                                         Alpha-Beta:  -0.54040024
                                         Alpha-Alpha: -0.12756508
                                         Beta-Beta:   -0.10599082

 Spin contamination <S**2-Sz**2-Sz>     0.00000000
  Reference energy                   -127.438777317146
  RHF-RMP2 correlation energy          -0.776507826501
 !RHF-RMP2 energy                    -128.215285143647
 (NB above energy spin projected)

 Starting RCCSD calculation

 ITER.      SQ.NORM     CORR.ENERGY   TOTAL ENERGY   ENERGY CHANGE        DEN1      VAR(S)    VAR(P)  DIIS     TIME
   1      1.13133784    -0.72844865  -128.16722597    -0.72844865    -0.01950410  0.61D-02  0.33D-02  1  1     8.56
   2      1.14636125    -0.74488966  -128.18366698    -0.01644101    -0.00205505  0.87D-03  0.61D-03  2  2    10.95
   3      1.15888207    -0.74746181  -128.18623913    -0.00257216    -0.00066079  0.75D-03  0.73D-04  3  3    13.19
   4      1.17215896    -0.74957038  -128.18834770    -0.00210857    -0.00024503  0.26D-03  0.35D-04  4  4    15.38
   5      1.18823460    -0.75112722  -128.18990454    -0.00155684    -0.00006477  0.62D-04  0.12D-04  5  5    18.19
   6      1.19692133    -0.75163504  -128.19041235    -0.00050781    -0.00001630  0.17D-04  0.29D-05  6  6    20.56
   7      1.20259002    -0.75196013  -128.19073744    -0.00032509    -0.00000417  0.39D-05  0.83D-06  6  2    23.00
   8      1.20287370    -0.75193792  -128.19071524     0.00002221    -0.00000073  0.55D-06  0.18D-06  6  1    25.31
   9      1.20366304    -0.75197765  -128.19075497    -0.00003973    -0.00000013  0.99D-07  0.31D-07  6  4    28.19
  10      1.20359917    -0.75197258  -128.19074990     0.00000508    -0.00000002  0.19D-07  0.50D-08  6  3    30.74
  11      1.20362652    -0.75197353  -128.19075085    -0.00000095    -0.00000001  0.68D-08  0.12D-08  6  5    33.33

 Norm of t1 vector:      0.23193484      S-energy:    -0.00263502      T1 diagnostic:  0.03710607
                                                                       D1 diagnostic:  0.11531109
 Norm of t2 vector:      0.38708235      P-energy:    -0.74933851
                                         Alpha-Beta:  -0.54326975
                                         Alpha-Alpha: -0.11176375
                                         Beta-Beta:   -0.09430501

 Singles amplitudes (print threshold =  0.500E-01):

         I         SYM. A    A   T(IA) [Alpha-Alpha]

         5         1         2      0.06878389
         5         1         4      0.06341517
 
         I         SYM. A    A   T(IA) [Beta-Beta]

         4         1         1     -0.16303562

 Spin contamination <S**2-Sz**2-Sz>     0.00000000

 Memory could be reduced to 80.80 Mwords without degradation in triples
 

  Correlated core orbitals:             1.1       2.1       1.2       1.3
  Orbital energies:                    -4.0070   -2.6046   -2.5583   -2.5583
 
  RCCSD core-core energy               -0.119495047649
  RCCSD core-valence energy            -0.263069430939
  RCCSD valence correlation energy     -0.369409051711
 

 RESULTS
 =======

  Reference energy                   -127.438777317146
  RCCSD singles energy                 -0.002635020923
  RCCSD pair energy                    -0.749338509376
  RCCSD correlation energy             -0.751973530299
  Triples (T) contribution             -0.030185255065
  Total correlation energy             -0.782158785364
 
  RHF-RCCSD energy                   -128.190750847445
  RHF-RCCSD[T] energy                -128.223393307569
  RHF-RCCSD-T energy                 -128.220754974828
 !RHF-RCCSD(T) energy                -128.220936102510

 Program statistics:

 Available memory in ccsd:               511999000
 Min. memory needed in ccsd:               6371840
 Max. memory used in ccsd:                 8994336
 Max. memory used in cckext:               7244967 (11 integral passes)
 Max. memory used in cckint:               6842122 ( 1 integral passes)



 **********************************************************************************************************************************
 DATASETS  * FILE   NREC   LENGTH (MB)   RECORD NAMES
              1      19       20.87       500      610      700      900      950      970     1000      129      960     1100   
                                          VAR    BASINP    GEOM    SYMINP    ZMAT    AOBASIS   BASIS     P2S    ABASIS      S 
                                         1400     1410     1420     1200     1210     1080     1600     1650     1700   
                                           T        V       ECP      H0       H01     AOSYM     SMH    MOLCAS    OPER   

              2       4        3.40       700     1000      520     2100   
                                         GEOM     BASIS   MCVARS     RHF  

 PROGRAMS   *        TOTAL  RCCSD(T)       RHF       INT
 CPU TIMES  *        80.30     59.88      1.35     18.86
 REAL TIME  *       112.39 SEC
 DISK USED  *         8.20 GB      
 SF USED    *         1.24 GB      
 GA USED    *         0.00 MB       (max)       0.00 MB       (current)
 **********************************************************************************************************************************
 SETTING CCSD(1)        =      -128.22093610  AU                              

 DO I                   =         2.00000000   
 SETTING Z(2)           =         1.62900000                                  

Geometry recognized as XYZ



 Recomputing integrals since geometry changed


 PROGRAM * SEWARD (Integral evaluation for generally contracted gaussian basis sets)     Author: Roland Lindh, 1990

 Geometry written to block  1 of record 700


 Point group  C2v 



 ATOMIC COORDINATES

 NR  ATOM    CHARGE       X              Y              Z

   1  PD     18.00    0.000000000    0.000000000    0.000000000
   2  H       1.00    0.000000000    0.000000000    3.078363857

 Bond lengths in Bohr (Angstrom)

 1-2  3.078363857
     ( 1.629000000)

 NUCLEAR CHARGE:                   19
 NUMBER OF PRIMITIVE AOS:         312
 NUMBER OF SYMMETRY AOS:          263
 NUMBER OF CONTRACTIONS:          263   ( 116A1  +  59B1  +  59B2  +  29A2  )
 NUMBER OF CORE ORBITALS:           4   (   2A1  +   1B1  +   1B2  +   0A2  )
 NUMBER OF VALENCE ORBITALS:        7   (   4A1  +   1B1  +   1B2  +   1A2  )


 NUCLEAR REPULSION ENERGY    5.84726200

 EXTRA SYMMETRY OF AOS IN SYMMETRY 1:   1 1 1 1 1 1 1 1 1 1   1 1 1 1 1 1 1 1 1 1   1 1 1 1 1 1 1 1 1 1   1 1 1 1 1 1 1 1 1 1
                                        1 1 1 1 1 1 1 1 1 1   1 1 1 2 1 2 1 2 1 2   1 2 1 2 1 2 1 2 1 2   1 2 1 2 1 2 1 2 1 2
                                        1 2 1 2 1 2 1 2 1 2   1 2 1 2 1 3 2 1 3 2   1 3 2 1 1 1 1 1 1 1   1 1 1 2 1 2
 EXTRA SYMMETRY OF AOS IN SYMMETRY 2:   1 1 1 1 1 1 1 1 1 1   1 1 1 1 1 1 1 1 1 1   1 1 1 1 1 1 1 1 1 1   1 1 1 1 1 1 1 1 1 1
                                        1 2 1 2 1 2 1 2 1 2   1 2 1 2 1 1 1 1 1
 EXTRA SYMMETRY OF AOS IN SYMMETRY 3:   1 1 1 1 1 1 1 1 1 1   1 1 1 1 1 1 1 1 1 1   1 1 1 1 1 1 1 1 1 1   1 1 1 1 1 1 1 1 1 1
                                        1 2 1 2 1 2 1 2 1 2   1 2 1 2 1 1 1 1 1
 EXTRA SYMMETRY OF AOS IN SYMMETRY 4:   1 1 1 1 1 1 1 1 1 1   1 1 1 1 1 1 1 1 1 1   1 1 2 1 2 1 2 1 1

 Eigenvalues of metric

         1 0.939E-06 0.194E-05 0.901E-05 0.951E-05 0.280E-04 0.119E-03 0.225E-03 0.272E-03
         2 0.982E-06 0.946E-05 0.304E-03 0.471E-03 0.163E-02 0.301E-02 0.405E-02 0.935E-02
         3 0.982E-06 0.946E-05 0.304E-03 0.471E-03 0.163E-02 0.301E-02 0.405E-02 0.935E-02
         4 0.951E-05 0.307E-03 0.302E-02 0.107E-01 0.287E-01 0.530E-01 0.873E-01 0.105E+00


 Contracted 2-electron integrals neglected if value below      1.0D-13
 AO integral compression algorithm  1   Integral accuracy      1.0D-13

     588.775 MB (compressed) written to integral file ( 42.9%)

     Node minimum: 3.932 MB, node maximum: 63.701 MB


 NUMBER OF SORTED TWO-ELECTRON INTEGRALS:    6738189.     BUFFER LENGTH:  32768
 NUMBER OF SEGMENTS:   1  SEGMENT LENGTH:    6738189      RECORD LENGTH: 524288

 Memory used in sort:       7.30 MW

 SORT1 READ   171363336. AND WROTE     2857933. INTEGRALS IN      9 RECORDS. CPU TIME:     2.92 SEC, REAL TIME:     3.24 SEC
 SORT2 READ    67105292. AND WROTE   156329493. INTEGRALS IN   2254 RECORDS. CPU TIME:     0.22 SEC, REAL TIME:     0.45 SEC

 Node minimum:     6738189.  Node maximum:     6815662. integrals

 OPERATOR DM      FOR CENTER  0  COORDINATES:    0.000000    0.000000    0.000000


 **********************************************************************************************************************************
 DATASETS  * FILE   NREC   LENGTH (MB)   RECORD NAMES
              1      19       20.83       500      610      700      900      950      970     1000      129      960     1100   
                                          VAR    BASINP    GEOM    SYMINP    ZMAT    AOBASIS   BASIS     P2S    ABASIS      S 
                                         1400     1410     1420     1200     1210     1080     1600     1650     1700   
                                           T        V       ECP      H0       H01     AOSYM     SMH    MOLCAS    OPER   

              2       4        3.40       700     1000      520     2100   
                                         GEOM     BASIS   MCVARS     RHF  

 PROGRAMS   *        TOTAL       INT  RCCSD(T)       RHF       INT
 CPU TIMES  *        99.23     18.94     59.88      1.35     18.86
 REAL TIME  *       132.60 SEC
 DISK USED  *         8.35 GB      
 SF USED    *         1.24 GB      
 GA USED    *         0.00 MB       (max)       0.00 MB       (current)
 **********************************************************************************************************************************


 PROGRAM * RHF-SCF (OPEN SHELL)       Authors: W. Meyer, H.-J. Werner


 NUMBER OF ELECTRONS:      10+    9-    SPACE SYMMETRY=1    SPIN SYMMETRY: Doublet 
 CONVERGENCE THRESHOLDS:    1.00E-05 (Density)    1.00E-07 (Energy)
 MAX. NUMBER OF ITERATIONS:       60
 INTERPOLATION TYPE:            DIIS
 INTERPOLATION STEPS:              2 (START)      1 (STEP)
 LEVEL SHIFTS:                 -0.60 (CLOSED) -0.30 (OPEN) 

 Number of closed-shell orbitals:    9 (   4   2   2   1 )
 Number of open-shell orbitals:      1 (   1   0   0   0 )


 Molecular orbitals read from record     2100.2  Type=RHF/CANONICAL (state 1.1)

 Molecular orbital dump at record        2100.2

 ITERATION    DDIFF          GRAD             ENERGY        2-EL.EN.            DIPOLE MOMENTS         DIIS   ORB.
    1      0.000D+00      0.000D+00      -127.43887304    210.649130    0.00000    0.00000   -1.52067    0    start
    2      0.000D+00      0.198D-02      -127.43909999    210.655728    0.00000    0.00000   -1.52319    1    diag,B
    3      0.185D-03      0.134D-03      -127.43915067    210.672539    0.00000    0.00000   -1.51684    2    diag,B
    4      0.521D-04      0.805D-04      -127.43919559    210.687157    0.00000    0.00000   -1.50883    3    diag,B
    5      0.505D-04      0.533D-04      -127.43923182    210.708509    0.00000    0.00000   -1.49777    4    diag,B
    6      0.484D-04      0.352D-04      -127.43925315    210.726615    0.00000    0.00000   -1.48614    5    diag,B
    7      0.498D-04      0.152D-04      -127.43925637    210.735261    0.00000    0.00000   -1.48203    6    diag,B
    8      0.201D-04      0.666D-05      -127.43925665    210.735923    0.00000    0.00000   -1.48156    7    orth
    9      0.758D-05      0.325D-05      -127.43925671    210.736413    0.00000    0.00000   -1.48190    8    diag,B
   10      0.594D-05      0.151D-05      -127.43925672    210.736506    0.00000    0.00000   -1.48196    0    orth

 Final alpha occupancy:   5   2   2   1
 Final beta  occupancy:   4   2   2   1

 !RHF STATE 1.1 Energy               -127.439256715780
 Nuclear energy                         5.84726200
 One-electron energy                 -238.65477187
 Two-electron energy                  105.36825315
 Virial quotient                       -2.61868748
 !RHF STATE 1.1 Dipole moment           0.00000000     0.00000000    -1.48195637
 Dipole moment /Debye                   0.00000000     0.00000000    -3.76651068

 Orbital energies:

         1.1          2.1          3.1          4.1          5.1          6.1          7.1
     -3.975834    -2.539644    -0.427978    -0.416095    -0.396102     0.001871     0.030902

         1.2          2.2          3.2          4.2
     -2.535421    -0.451367     0.023732     0.080478

         1.3          2.3          3.3          4.3
     -2.535421    -0.451367     0.023732     0.080478

         1.4          2.4          3.4
     -0.427978     0.097685     0.325586

 HOMO      5.1    -0.396102 =     -10.7785eV
 LUMO      6.1     0.001871 =       0.0509eV
 LUMO-HOMO         0.397973 =      10.8294eV


 **********************************************************************************************************************************
 DATASETS  * FILE   NREC   LENGTH (MB)   RECORD NAMES
              1      19       20.87       500      610      700      900      950      970     1000      129      960     1100   
                                          VAR    BASINP    GEOM    SYMINP    ZMAT    AOBASIS   BASIS     P2S    ABASIS      S 
                                         1400     1410     1420     1200     1210     1080     1600     1650     1700   
                                           T        V       ECP      H0       H01     AOSYM     SMH    MOLCAS    OPER   

              2       4        3.40       700     1000      520     2100   
                                         GEOM     BASIS   MCVARS     RHF  

 PROGRAMS   *        TOTAL       RHF       INT  RCCSD(T)       RHF       INT
 CPU TIMES  *        99.77      0.54     18.94     59.88      1.35     18.86
 REAL TIME  *       133.34 SEC
 DISK USED  *         8.35 GB      
 SF USED    *         1.24 GB      
 GA USED    *         0.00 MB       (max)       0.00 MB       (current)
 **********************************************************************************************************************************
 SETTING SCF(2)         =      -127.43925672  AU                              
 SETTING _CC_NORM_MAX   =         2.00000000                                  


 PROGRAM * CCSD (Restricted open-shell coupled cluster)     Authors: C. Hampel, H.-J. Werner, 1991, M. Deegan, P.J. Knowles, 1992


 Convergence thresholds:  THRVAR = 1.00D-08  THRDEN = 1.00D-06

 CCSD(T)     terms to be evaluated (factor= 1.000)


 Number of closed-shell orbitals:   9 (   4   2   2   1 )
 Number of active  orbitals:        1 (   1   0   0   0 )
 Number of external orbitals:     253 ( 111  57  57  28 )

 Memory could be reduced to 80.26 Mwords without degradation in triples

 Number of N-1 electron functions:              19
 Number of N-2 electron functions:             171
 Number of singly external CSFs:              1520
 Number of doubly external CSFs:           2149669
 Total number of CSFs:                     2151189

 Molecular orbitals read from record     2100.2  Type=RHF/CANONICAL (state 1.1)

 Integral transformation finished. Total CPU:   2.46 sec, npass=  1  Memory used:   6.84 MW

 Starting RMP2 calculation

 Wavefunction is spin-projected

 ITER.      SQ.NORM     CORR.ENERGY   TOTAL ENERGY   ENERGY CHANGE        DEN1      VAR(S)    VAR(P)  DIIS     TIME
   1      1.14890406    -0.77935982  -128.21861654    -0.77935982    -0.00136808  0.16D-04  0.55D-03  1  1     3.15
   2      1.15028879    -0.78081736  -128.22007407    -0.00145753    -0.00000839  0.85D-06  0.51D-05  2  2     3.55
   3      1.15040794    -0.78088263  -128.22013934    -0.00006527    -0.00000009  0.27D-07  0.50D-07  3  3     4.11
   4      1.15041345    -0.78088380  -128.22014052    -0.00000118    -0.00000000  0.54D-09  0.56D-09  4  4     4.82
   5      1.15041361    -0.78088382  -128.22014053    -0.00000001    -0.00000000  0.11D-10  0.74D-11  5  5     5.31

 Norm of t1 vector:      0.02993700      S-energy:    -0.00249309      T1 diagnostic:  0.00077028
 Norm of t2 vector:      0.38667478      P-energy:    -0.77839072
                                         Alpha-Beta:  -0.54290522
                                         Alpha-Alpha: -0.12836513
                                         Beta-Beta:   -0.10712037

 Spin contamination <S**2-Sz**2-Sz>     0.00000000
  Reference energy                   -127.439256715780
  RHF-RMP2 correlation energy          -0.780883815100
 !RHF-RMP2 energy                    -128.220140530880
 (NB above energy spin projected)

 Starting RCCSD calculation

 ITER.      SQ.NORM     CORR.ENERGY   TOTAL ENERGY   ENERGY CHANGE        DEN1      VAR(S)    VAR(P)  DIIS     TIME
   1      1.13137494    -0.73093056  -128.17018728    -0.73093056    -0.01981058  0.60D-02  0.34D-02  1  1     7.98
   2      1.14615449    -0.74759270  -128.18684942    -0.01666214    -0.00199714  0.84D-03  0.58D-03  2  2    10.49
   3      1.15795615    -0.75002612  -128.18928284    -0.00243342    -0.00062677  0.70D-03  0.67D-04  3  3    12.96
   4      1.17045315    -0.75204654  -128.19130326    -0.00202042    -0.00022619  0.24D-03  0.31D-04  4  4    15.62
   5      1.18506413    -0.75349438  -128.19275110    -0.00144784    -0.00005906  0.58D-04  0.10D-04  5  5    18.37
   6      1.19258219    -0.75393462  -128.19319133    -0.00044024    -0.00001509  0.16D-04  0.25D-05  6  6    20.92
   7      1.19774492    -0.75423813  -128.19349484    -0.00030351    -0.00000376  0.36D-05  0.67D-06  6  2    24.60
   8      1.19806709    -0.75421898  -128.19347570     0.00001915    -0.00000065  0.49D-06  0.15D-06  6  1    27.28
   9      1.19869799    -0.75424956  -128.19350627    -0.00003057    -0.00000012  0.10D-06  0.26D-07  6  4    29.74
  10      1.19867672    -0.75424618  -128.19350289     0.00000338    -0.00000003  0.27D-07  0.53D-08  6  3    32.38
  11      1.19869615    -0.75424628  -128.19350300    -0.00000010    -0.00000001  0.11D-07  0.15D-08  6  5    35.50
  12      1.19866553    -0.75424164  -128.19349836     0.00000464    -0.00000000  0.28D-08  0.43D-09  6  1    38.60
  13      1.19866206    -0.75424081  -128.19349753     0.00000083    -0.00000000  0.78D-09  0.18D-09  6  6    41.36

 Norm of t1 vector:      0.22367368      S-energy:    -0.00253873      T1 diagnostic:  0.03578365
                                                                       D1 diagnostic:  0.10768375
 Norm of t2 vector:      0.38552840      P-energy:    -0.75170208
                                         Alpha-Beta:  -0.54458746
                                         Alpha-Alpha: -0.11219630
                                         Beta-Beta:   -0.09491832

 Singles amplitudes (print threshold =  0.500E-01):

         I         SYM. A    A   T(IA) [Alpha-Alpha]

         5         1         2      0.06880911
         5         1         4      0.06624326
 
         I         SYM. A    A   T(IA) [Beta-Beta]

         4         1         1     -0.15223480

 Spin contamination <S**2-Sz**2-Sz>     0.00000000

 Memory could be reduced to 80.80 Mwords without degradation in triples
 

  Correlated core orbitals:             1.1       2.1       1.2       1.3
  Orbital energies:                    -4.0027   -2.5994   -2.5540   -2.5540
 
  RCCSD core-core energy               -0.119336256459
  RCCSD core-valence energy            -0.263251301647
  RCCSD valence correlation energy     -0.371653253426
 

 RESULTS
 =======

  Reference energy                   -127.439256715780
  RCCSD singles energy                 -0.002538728846
  RCCSD pair energy                    -0.751702082685
  RCCSD correlation energy             -0.754240811531
  Triples (T) contribution             -0.030418753311
  Total correlation energy             -0.784659564842
 
  RHF-RCCSD energy                   -128.193497527311
  RHF-RCCSD[T] energy                -128.226270967610
  RHF-RCCSD-T energy                 -128.223733757406
 !RHF-RCCSD(T) energy                -128.223916280622

 Program statistics:

 Available memory in ccsd:               511999000
 Min. memory needed in ccsd:               6371840
 Max. memory used in ccsd:                 8994336
 Max. memory used in cckext:               7244967 (13 integral passes)
 Max. memory used in cckint:               6842122 ( 1 integral passes)



 **********************************************************************************************************************************
 DATASETS  * FILE   NREC   LENGTH (MB)   RECORD NAMES
              1      19       20.87       500      610      700      900      950      970     1000      129      960     1100   
                                          VAR    BASINP    GEOM    SYMINP    ZMAT    AOBASIS   BASIS     P2S    ABASIS      S 
                                         1400     1410     1420     1200     1210     1080     1600     1650     1700   
                                           T        V       ECP      H0       H01     AOSYM     SMH    MOLCAS    OPER   

              2       4        3.40       700     1000      520     2100   
                                         GEOM     BASIS   MCVARS     RHF  

 PROGRAMS   *        TOTAL  RCCSD(T)       RHF       INT  RCCSD(T)       RHF       INT
 CPU TIMES  *       167.50     67.69      0.54     18.94     59.88      1.35     18.86
 REAL TIME  *       250.30 SEC
 DISK USED  *         8.35 GB      
 SF USED    *         1.24 GB      
 GA USED    *         0.00 MB       (max)       0.00 MB       (current)
 **********************************************************************************************************************************
 SETTING CCSD(2)        =      -128.22391628  AU                              

 DO I                   =         3.00000000   
 SETTING Z(3)           =         1.57900000                                  

Geometry recognized as XYZ



 Recomputing integrals since geometry changed


 PROGRAM * SEWARD (Integral evaluation for generally contracted gaussian basis sets)     Author: Roland Lindh, 1990

 Geometry written to block  1 of record 700


 Point group  C2v 



 ATOMIC COORDINATES

 NR  ATOM    CHARGE       X              Y              Z

   1  PD     18.00    0.000000000    0.000000000    0.000000000
   2  H       1.00    0.000000000    0.000000000    2.983877551

 Bond lengths in Bohr (Angstrom)

 1-2  2.983877551
     ( 1.579000000)

 NUCLEAR CHARGE:                   19
 NUMBER OF PRIMITIVE AOS:         312
 NUMBER OF SYMMETRY AOS:          263
 NUMBER OF CONTRACTIONS:          263   ( 116A1  +  59B1  +  59B2  +  29A2  )
 NUMBER OF CORE ORBITALS:           4   (   2A1  +   1B1  +   1B2  +   0A2  )
 NUMBER OF VALENCE ORBITALS:        7   (   4A1  +   1B1  +   1B2  +   1A2  )


 NUCLEAR REPULSION ENERGY    6.03241912

 EXTRA SYMMETRY OF AOS IN SYMMETRY 1:   1 1 1 1 1 1 1 1 1 1   1 1 1 1 1 1 1 1 1 1   1 1 1 1 1 1 1 1 1 1   1 1 1 1 1 1 1 1 1 1
                                        1 1 1 1 1 1 1 1 1 1   1 1 1 2 1 2 1 2 1 2   1 2 1 2 1 2 1 2 1 2   1 2 1 2 1 2 1 2 1 2
                                        1 2 1 2 1 2 1 2 1 2   1 2 1 2 1 3 2 1 3 2   1 3 2 1 1 1 1 1 1 1   1 1 1 2 1 2
 EXTRA SYMMETRY OF AOS IN SYMMETRY 2:   1 1 1 1 1 1 1 1 1 1   1 1 1 1 1 1 1 1 1 1   1 1 1 1 1 1 1 1 1 1   1 1 1 1 1 1 1 1 1 1
                                        1 2 1 2 1 2 1 2 1 2   1 2 1 2 1 1 1 1 1
 EXTRA SYMMETRY OF AOS IN SYMMETRY 3:   1 1 1 1 1 1 1 1 1 1   1 1 1 1 1 1 1 1 1 1   1 1 1 1 1 1 1 1 1 1   1 1 1 1 1 1 1 1 1 1
                                        1 2 1 2 1 2 1 2 1 2   1 2 1 2 1 1 1 1 1
 EXTRA SYMMETRY OF AOS IN SYMMETRY 4:   1 1 1 1 1 1 1 1 1 1   1 1 1 1 1 1 1 1 1 1   1 1 2 1 2 1 2 1 1

 Eigenvalues of metric

         1 0.930E-06 0.193E-05 0.898E-05 0.951E-05 0.277E-04 0.119E-03 0.188E-03 0.272E-03
         2 0.982E-06 0.947E-05 0.304E-03 0.471E-03 0.163E-02 0.301E-02 0.405E-02 0.931E-02
         3 0.982E-06 0.947E-05 0.304E-03 0.471E-03 0.163E-02 0.301E-02 0.405E-02 0.931E-02
         4 0.951E-05 0.307E-03 0.302E-02 0.107E-01 0.287E-01 0.530E-01 0.866E-01 0.105E+00


 Contracted 2-electron integrals neglected if value below      1.0D-13
 AO integral compression algorithm  1   Integral accuracy      1.0D-13

     591.135 MB (compressed) written to integral file ( 43.2%)

     Node minimum: 2.621 MB, node maximum: 63.701 MB


 NUMBER OF SORTED TWO-ELECTRON INTEGRALS:    6738189.     BUFFER LENGTH:  32768
 NUMBER OF SEGMENTS:   1  SEGMENT LENGTH:    6738189      RECORD LENGTH: 524288

 Memory used in sort:       7.30 MW

 SORT1 READ   171363336. AND WROTE     2867609. INTEGRALS IN      9 RECORDS. CPU TIME:     2.87 SEC, REAL TIME:     2.97 SEC
 SORT2 READ    67333241. AND WROTE   156329493. INTEGRALS IN   2277 RECORDS. CPU TIME:     0.68 SEC, REAL TIME:     0.86 SEC

 Node minimum:     6738189.  Node maximum:     6815662. integrals

 OPERATOR DM      FOR CENTER  0  COORDINATES:    0.000000    0.000000    0.000000


 **********************************************************************************************************************************
 DATASETS  * FILE   NREC   LENGTH (MB)   RECORD NAMES
              1      19       20.83       500      610      700      900      950      970     1000      129      960     1100   
                                          VAR    BASINP    GEOM    SYMINP    ZMAT    AOBASIS   BASIS     P2S    ABASIS      S 
                                         1400     1410     1420     1200     1210     1080     1600     1650     1700   
                                           T        V       ECP      H0       H01     AOSYM     SMH    MOLCAS    OPER   

              2       4        3.40       700     1000      520     2100   
                                         GEOM     BASIS   MCVARS     RHF  

 PROGRAMS   *        TOTAL       INT  RCCSD(T)       RHF       INT  RCCSD(T)       RHF       INT
 CPU TIMES  *       186.91     19.34     67.69      0.54     18.94     59.88      1.35     18.86
 REAL TIME  *       270.46 SEC
 DISK USED  *         8.44 GB      
 SF USED    *         1.24 GB      
 GA USED    *         0.00 MB       (max)       0.00 MB       (current)
 **********************************************************************************************************************************


 PROGRAM * RHF-SCF (OPEN SHELL)       Authors: W. Meyer, H.-J. Werner


 NUMBER OF ELECTRONS:      10+    9-    SPACE SYMMETRY=1    SPIN SYMMETRY: Doublet 
 CONVERGENCE THRESHOLDS:    1.00E-05 (Density)    1.00E-07 (Energy)
 MAX. NUMBER OF ITERATIONS:       60
 INTERPOLATION TYPE:            DIIS
 INTERPOLATION STEPS:              2 (START)      1 (STEP)
 LEVEL SHIFTS:                 -0.60 (CLOSED) -0.30 (OPEN) 

 Number of closed-shell orbitals:    9 (   4   2   2   1 )
 Number of open-shell orbitals:      1 (   1   0   0   0 )


 Molecular orbitals read from record     2100.2  Type=RHF/CANONICAL (state 1.1)

 Molecular orbital dump at record        2100.2

 ITERATION    DDIFF          GRAD             ENERGY        2-EL.EN.            DIPOLE MOMENTS         DIIS   ORB.
    1      0.000D+00      0.000D+00      -127.43838155    211.089251    0.00000    0.00000   -1.45036    0    start
    2      0.000D+00      0.217D-02      -127.43864990    211.098703    0.00000    0.00000   -1.45384    1    diag,B
    3      0.226D-03      0.144D-03      -127.43870918    211.115135    0.00000    0.00000   -1.44693    2    diag,B
    4      0.524D-04      0.870D-04      -127.43876167    211.130146    0.00000    0.00000   -1.43855    3    diag,B
    5      0.542D-04      0.588D-04      -127.43880665    211.151703    0.00000    0.00000   -1.42630    4    diag,B
    6      0.570D-04      0.393D-04      -127.43883471    211.172183    0.00000    0.00000   -1.41247    5    diag,B
    7      0.628D-04      0.164D-04      -127.43883852    211.181309    0.00000    0.00000   -1.40768    6    diag,B
    8      0.229D-04      0.697D-05      -127.43883882    211.181927    0.00000    0.00000   -1.40708    7    orth
    9      0.770D-05      0.341D-05      -127.43883888    211.182497    0.00000    0.00000   -1.40739    8    diag,B
   10      0.629D-05      0.160D-05      -127.43883888    211.182569    0.00000    0.00000   -1.40745    0    orth

 Final alpha occupancy:   5   2   2   1
 Final beta  occupancy:   4   2   2   1

 !RHF STATE 1.1 Energy               -127.438838884365
 Nuclear energy                         6.03241912
 One-electron energy                 -239.06254247
 Two-electron energy                  105.59128446
 Virial quotient                       -2.61758318
 !RHF STATE 1.1 Dipole moment           0.00000000     0.00000000    -1.40745486
 Dipole moment /Debye                   0.00000000     0.00000000    -3.57715913

 Orbital energies:

         1.1          2.1          3.1          4.1          5.1          6.1          7.1
     -3.972697    -2.537474    -0.428780    -0.424694    -0.381114     0.003379     0.030466

         1.2          2.2          3.2          4.2
     -2.532042    -0.448512     0.023863     0.080641

         1.3          2.3          3.3          4.3
     -2.532042    -0.448512     0.023863     0.080641

         1.4          2.4          3.4
     -0.424694     0.097929     0.326344

 HOMO      5.1    -0.381114 =     -10.3706eV
 LUMO      6.1     0.003379 =       0.0919eV
 LUMO-HOMO         0.384493 =      10.4626eV


 **********************************************************************************************************************************
 DATASETS  * FILE   NREC   LENGTH (MB)   RECORD NAMES
              1      19       20.87       500      610      700      900      950      970     1000      129      960     1100   
                                          VAR    BASINP    GEOM    SYMINP    ZMAT    AOBASIS   BASIS     P2S    ABASIS      S 
                                         1400     1410     1420     1200     1210     1080     1600     1650     1700   
                                           T        V       ECP      H0       H01     AOSYM     SMH    MOLCAS    OPER   

              2       4        3.40       700     1000      520     2100   
                                         GEOM     BASIS   MCVARS     RHF  

 PROGRAMS   *        TOTAL       RHF       INT  RCCSD(T)       RHF       INT  RCCSD(T)       RHF       INT
 CPU TIMES  *       187.44      0.53     19.34     67.69      0.54     18.94     59.88      1.35     18.86
 REAL TIME  *       271.15 SEC
 DISK USED  *         8.44 GB      
 SF USED    *         1.24 GB      
 GA USED    *         0.00 MB       (max)       0.00 MB       (current)
 **********************************************************************************************************************************
 SETTING SCF(3)         =      -127.43883888  AU                              
 SETTING _CC_NORM_MAX   =         2.00000000                                  


 PROGRAM * CCSD (Restricted open-shell coupled cluster)     Authors: C. Hampel, H.-J. Werner, 1991, M. Deegan, P.J. Knowles, 1992


 Convergence thresholds:  THRVAR = 1.00D-08  THRDEN = 1.00D-06

 CCSD(T)     terms to be evaluated (factor= 1.000)


 Number of closed-shell orbitals:   9 (   4   2   2   1 )
 Number of active  orbitals:        1 (   1   0   0   0 )
 Number of external orbitals:     253 ( 111  57  57  28 )

 Memory could be reduced to 80.26 Mwords without degradation in triples

 Number of N-1 electron functions:              19
 Number of N-2 electron functions:             171
 Number of singly external CSFs:              1520
 Number of doubly external CSFs:           2149669
 Total number of CSFs:                     2151189

 Molecular orbitals read from record     2100.2  Type=RHF/CANONICAL (state 1.1)

 Integral transformation finished. Total CPU:   2.28 sec, npass=  1  Memory used:   6.84 MW

 Starting RMP2 calculation

 Wavefunction is spin-projected

 ITER.      SQ.NORM     CORR.ENERGY   TOTAL ENERGY   ENERGY CHANGE        DEN1      VAR(S)    VAR(P)  DIIS     TIME
   1      1.15044942    -0.78404690  -128.22288578    -0.78404690    -0.00136384  0.16D-04  0.55D-03  1  1     2.69
   2      1.15181480    -0.78549879  -128.22433768    -0.00145189    -0.00000783  0.85D-06  0.47D-05  2  2     3.36
   3      1.15192751    -0.78556112  -128.22440001    -0.00006233    -0.00000008  0.27D-07  0.43D-07  3  3     4.09
   4      1.15193247    -0.78556216  -128.22440104    -0.00000104    -0.00000000  0.51D-09  0.45D-09  4  4     4.94
   5      1.15193262    -0.78556218  -128.22440106    -0.00000002    -0.00000000  0.11D-10  0.56D-11  5  5     5.87

 Norm of t1 vector:      0.03017159      S-energy:    -0.00241367      T1 diagnostic:  0.00077018
 Norm of t2 vector:      0.38861587      P-energy:    -0.78314851
                                         Alpha-Beta:  -0.54559995
                                         Alpha-Alpha: -0.12922909
                                         Beta-Beta:   -0.10831947

 Spin contamination <S**2-Sz**2-Sz>     0.00000000
  Reference energy                   -127.438838884365
  RHF-RMP2 correlation energy          -0.785562177631
 !RHF-RMP2 energy                    -128.224401061996
 (NB above energy spin projected)

 Starting RCCSD calculation

 ITER.      SQ.NORM     CORR.ENERGY   TOTAL ENERGY   ENERGY CHANGE        DEN1      VAR(S)    VAR(P)  DIIS     TIME
   1      1.13137416    -0.73357301  -128.17241189    -0.73357301    -0.02009257  0.58D-02  0.34D-02  1  1     8.31
   2      1.14584475    -0.75044828  -128.18928716    -0.01687527    -0.00192243  0.79D-03  0.55D-03  2  2    10.79
   3      1.15676685    -0.75271427  -128.19155316    -0.00226600    -0.00058420  0.65D-03  0.62D-04  3  3    13.25
   4      1.16819373    -0.75460766  -128.19344655    -0.00189339    -0.00020539  0.22D-03  0.27D-04  4  4    16.24
   5      1.18113654    -0.75592872  -128.19476760    -0.00132105    -0.00005302  0.53D-04  0.89D-05  5  5    19.00
   6      1.18754478    -0.75630396  -128.19514284    -0.00037524    -0.00001373  0.15D-04  0.21D-05  6  6    22.09
   7      1.19211872    -0.75657786  -128.19541675    -0.00027390    -0.00000333  0.34D-05  0.54D-06  6  2    24.74
   8      1.19248125    -0.75656268  -128.19540156     0.00001518    -0.00000058  0.46D-06  0.13D-06  6  1    27.72
   9      1.19297916    -0.75658525  -128.19542414    -0.00002257    -0.00000012  0.11D-06  0.23D-07  6  4    30.26
  10      1.19299404    -0.75658345  -128.19542234     0.00000180    -0.00000003  0.33D-07  0.54D-08  6  3    33.37
  11      1.19301059    -0.75658317  -128.19542206     0.00000028    -0.00000001  0.13D-07  0.18D-08  6  5    36.04
  12      1.19299195    -0.75657903  -128.19541791     0.00000414    -0.00000000  0.27D-08  0.47D-09  6  1    39.41
  13      1.19299146    -0.75657837  -128.19541725     0.00000066    -0.00000000  0.62D-09  0.17D-09  6  6    41.74

 Norm of t1 vector:      0.21357302      S-energy:    -0.00241979      T1 diagnostic:  0.03416733
                                                                       D1 diagnostic:  0.09861974
 Norm of t2 vector:      0.38389845      P-energy:    -0.75415857
                                         Alpha-Beta:  -0.54596079
                                         Alpha-Alpha: -0.11265537
                                         Beta-Beta:   -0.09554242

 Singles amplitudes (print threshold =  0.500E-01):

         I         SYM. A    A   T(IA) [Alpha-Alpha]

         5         1         2      0.06780644
         5         1         4      0.06835555
         5         1         8      0.05121008
 
         I         SYM. A    A   T(IA) [Beta-Beta]

         3         1         1     -0.13939690

 Spin contamination <S**2-Sz**2-Sz>     0.00000000

 Memory could be reduced to 80.80 Mwords without degradation in triples
 

  Correlated core orbitals:             1.1       2.1       1.2       1.3
  Orbital energies:                    -3.9983   -2.5941   -2.5496   -2.5496
 
  RCCSD core-core energy               -0.119150916485
  RCCSD core-valence energy            -0.263427189690
  RCCSD valence correlation energy     -0.374000261799
 

 RESULTS
 =======

  Reference energy                   -127.438838884365
  RCCSD singles energy                 -0.002419792991
  RCCSD pair energy                    -0.754158574983
  RCCSD correlation energy             -0.756578367975
  Triples (T) contribution             -0.030668063973
  Total correlation energy             -0.787246431947
 
  RHF-RCCSD energy                   -128.195417252340
  RHF-RCCSD[T] energy                -128.228320427530
  RHF-RCCSD-T energy                 -128.225900416024
 !RHF-RCCSD(T) energy                -128.226085316313

 Program statistics:

 Available memory in ccsd:               511999000
 Min. memory needed in ccsd:               6371840
 Max. memory used in ccsd:                 8994336
 Max. memory used in cckext:               7244967 (13 integral passes)
 Max. memory used in cckint:               6842122 ( 1 integral passes)



 **********************************************************************************************************************************
 DATASETS  * FILE   NREC   LENGTH (MB)   RECORD NAMES
              1      19       20.87       500      610      700      900      950      970     1000      129      960     1100   
                                          VAR    BASINP    GEOM    SYMINP    ZMAT    AOBASIS   BASIS     P2S    ABASIS      S 
                                         1400     1410     1420     1200     1210     1080     1600     1650     1700   
                                           T        V       ECP      H0       H01     AOSYM     SMH    MOLCAS    OPER   

              2       4        3.40       700     1000      520     2100   
                                         GEOM     BASIS   MCVARS     RHF  

 PROGRAMS   *        TOTAL  RCCSD(T)       RHF       INT  RCCSD(T)       RHF       INT  RCCSD(T)       RHF       INT
 CPU TIMES  *       255.82     68.36      0.53     19.34     67.69      0.54     18.94     59.88      1.35     18.86
 REAL TIME  *       366.66 SEC
 DISK USED  *         8.44 GB      
 SF USED    *         1.24 GB      
 GA USED    *         0.00 MB       (max)       0.00 MB       (current)
 **********************************************************************************************************************************
 SETTING CCSD(3)        =      -128.22608532  AU                              

 DO I                   =         4.00000000   
 SETTING Z(4)           =         1.52900000                                  

Geometry recognized as XYZ



 Recomputing integrals since geometry changed


 PROGRAM * SEWARD (Integral evaluation for generally contracted gaussian basis sets)     Author: Roland Lindh, 1990

 Geometry written to block  1 of record 700


 Point group  C2v 



 ATOMIC COORDINATES

 NR  ATOM    CHARGE       X              Y              Z

   1  PD     18.00    0.000000000    0.000000000    0.000000000
   2  H       1.00    0.000000000    0.000000000    2.889391244

 Bond lengths in Bohr (Angstrom)

 1-2  2.889391244
     ( 1.529000000)

 NUCLEAR CHARGE:                   19
 NUMBER OF PRIMITIVE AOS:         312
 NUMBER OF SYMMETRY AOS:          263
 NUMBER OF CONTRACTIONS:          263   ( 116A1  +  59B1  +  59B2  +  29A2  )
 NUMBER OF CORE ORBITALS:           4   (   2A1  +   1B1  +   1B2  +   0A2  )
 NUMBER OF VALENCE ORBITALS:        7   (   4A1  +   1B1  +   1B2  +   1A2  )


 NUCLEAR REPULSION ENERGY    6.22968594

 EXTRA SYMMETRY OF AOS IN SYMMETRY 1:   1 1 1 1 1 1 1 1 1 1   1 1 1 1 1 1 1 1 1 1   1 1 1 1 1 1 1 1 1 1   1 1 1 1 1 1 1 1 1 1
                                        1 1 1 1 1 1 1 1 1 1   1 1 1 2 1 2 1 2 1 2   1 2 1 2 1 2 1 2 1 2   1 2 1 2 1 2 1 2 1 2
                                        1 2 1 2 1 2 1 2 1 2   1 2 1 2 1 3 2 1 3 2   1 3 2 1 1 1 1 1 1 1   1 1 1 2 1 2
 EXTRA SYMMETRY OF AOS IN SYMMETRY 2:   1 1 1 1 1 1 1 1 1 1   1 1 1 1 1 1 1 1 1 1   1 1 1 1 1 1 1 1 1 1   1 1 1 1 1 1 1 1 1 1
                                        1 2 1 2 1 2 1 2 1 2   1 2 1 2 1 1 1 1 1
 EXTRA SYMMETRY OF AOS IN SYMMETRY 3:   1 1 1 1 1 1 1 1 1 1   1 1 1 1 1 1 1 1 1 1   1 1 1 1 1 1 1 1 1 1   1 1 1 1 1 1 1 1 1 1
                                        1 2 1 2 1 2 1 2 1 2   1 2 1 2 1 1 1 1 1
 EXTRA SYMMETRY OF AOS IN SYMMETRY 4:   1 1 1 1 1 1 1 1 1 1   1 1 1 1 1 1 1 1 1 1   1 1 2 1 2 1 2 1 1

 Eigenvalues of metric

         1 0.922E-06 0.192E-05 0.893E-05 0.951E-05 0.273E-04 0.118E-03 0.157E-03 0.271E-03
         2 0.982E-06 0.947E-05 0.304E-03 0.471E-03 0.163E-02 0.301E-02 0.405E-02 0.926E-02
         3 0.982E-06 0.947E-05 0.304E-03 0.471E-03 0.163E-02 0.301E-02 0.405E-02 0.926E-02
         4 0.951E-05 0.307E-03 0.302E-02 0.107E-01 0.287E-01 0.529E-01 0.858E-01 0.105E+00


 Contracted 2-electron integrals neglected if value below      1.0D-13
 AO integral compression algorithm  1   Integral accuracy      1.0D-13

     594.018 MB (compressed) written to integral file ( 43.3%)

     Node minimum: 2.621 MB, node maximum: 63.701 MB


 NUMBER OF SORTED TWO-ELECTRON INTEGRALS:    6738189.     BUFFER LENGTH:  32768
 NUMBER OF SEGMENTS:   1  SEGMENT LENGTH:    6738189      RECORD LENGTH: 524288

 Memory used in sort:       7.30 MW

 SORT1 READ   171363336. AND WROTE     2877006. INTEGRALS IN      9 RECORDS. CPU TIME:     2.88 SEC, REAL TIME:     3.04 SEC
 SORT2 READ    67544471. AND WROTE   156329493. INTEGRALS IN   1288 RECORDS. CPU TIME:     0.28 SEC, REAL TIME:     0.47 SEC

 Node minimum:     6738189.  Node maximum:     6815662. integrals

 OPERATOR DM      FOR CENTER  0  COORDINATES:    0.000000    0.000000    0.000000


 **********************************************************************************************************************************
 DATASETS  * FILE   NREC   LENGTH (MB)   RECORD NAMES
              1      19       20.83       500      610      700      900      950      970     1000      129      960     1100   
                                          VAR    BASINP    GEOM    SYMINP    ZMAT    AOBASIS   BASIS     P2S    ABASIS      S 
                                         1400     1410     1420     1200     1210     1080     1600     1650     1700   
                                           T        V       ECP      H0       H01     AOSYM     SMH    MOLCAS    OPER   

              2       4        3.40       700     1000      520     2100   
                                         GEOM     BASIS   MCVARS     RHF  

 PROGRAMS   *        TOTAL       INT  RCCSD(T)       RHF       INT  RCCSD(T)       RHF       INT  RCCSD(T)       RHF       INT
 CPU TIMES  *       274.76     18.90     68.36      0.53     19.34     67.69      0.54     18.94     59.88      1.35     18.86
 REAL TIME  *       386.46 SEC
 DISK USED  *         8.46 GB      
 SF USED    *         1.24 GB      
 GA USED    *         0.00 MB       (max)       0.00 MB       (current)
 **********************************************************************************************************************************


 PROGRAM * RHF-SCF (OPEN SHELL)       Authors: W. Meyer, H.-J. Werner


 NUMBER OF ELECTRONS:      10+    9-    SPACE SYMMETRY=1    SPIN SYMMETRY: Doublet 
 CONVERGENCE THRESHOLDS:    1.00E-05 (Density)    1.00E-07 (Energy)
 MAX. NUMBER OF ITERATIONS:       60
 INTERPOLATION TYPE:            DIIS
 INTERPOLATION STEPS:              2 (START)      1 (STEP)
 LEVEL SHIFTS:                 -0.60 (CLOSED) -0.30 (OPEN) 

 Number of closed-shell orbitals:    9 (   4   2   2   1 )
 Number of open-shell orbitals:      1 (   1   0   0   0 )


 Molecular orbitals read from record     2100.2  Type=RHF/CANONICAL (state 1.1)

 Molecular orbital dump at record        2100.2

 ITERATION    DDIFF          GRAD             ENERGY        2-EL.EN.            DIPOLE MOMENTS         DIIS   ORB.
    1      0.000D+00      0.000D+00      -127.43679642    211.543941    0.00000    0.00000   -1.37721    0    start
    2      0.000D+00      0.238D-02      -127.43711468    211.556537    0.00000    0.00000   -1.38167    1    diag,B
    3      0.280D-03      0.157D-03      -127.43718415    211.572186    0.00000    0.00000   -1.37407    2    diag,B
    4      0.545D-04      0.942D-04      -127.43724520    211.587304    0.00000    0.00000   -1.36526    3    diag,B
    5      0.590D-04      0.647D-04      -127.43729997    211.608249    0.00000    0.00000   -1.35183    4    diag,B
    6      0.671D-04      0.435D-04      -127.43733593    211.630218    0.00000    0.00000   -1.33574    5    diag,B
    7      0.783D-04      0.177D-04      -127.43734046    211.639421    0.00000    0.00000   -1.33019    6    diag,B
    8      0.263D-04      0.722D-05      -127.43734078    211.639963    0.00000    0.00000   -1.32948    7    orth
    9      0.808D-05      0.354D-05      -127.43734084    211.640608    0.00000    0.00000   -1.32976    8    diag,B
   10      0.635D-05      0.168D-05      -127.43734084    211.640639    0.00000    0.00000   -1.32983    0    orth

 Final alpha occupancy:   5   2   2   1
 Final beta  occupancy:   4   2   2   1

 !RHF STATE 1.1 Energy               -127.437340844845
 Nuclear energy                         6.22968594
 One-electron energy                 -239.48734622
 Two-electron energy                  105.82031944
 Virial quotient                       -2.61626094
 !RHF STATE 1.1 Dipole moment           0.00000000     0.00000000    -1.32982843
 Dipole moment /Debye                   0.00000000     0.00000000    -3.37986534

 Orbital energies:

         1.1          2.1          3.1          4.1          5.1          6.1          7.1
     -3.969750    -2.535779    -0.442560    -0.421532    -0.365448     0.004896     0.030005

         1.2          2.2          3.2          4.2
     -2.528808    -0.445935     0.023967     0.080699

         1.3          2.3          3.3          4.3
     -2.528808    -0.445935     0.023967     0.080699

         1.4          2.4          3.4
     -0.421532     0.098165     0.327049

 HOMO      5.1    -0.365448 =      -9.9443eV
 LUMO      6.1     0.004896 =       0.1332eV
 LUMO-HOMO         0.370343 =      10.0776eV


 **********************************************************************************************************************************
 DATASETS  * FILE   NREC   LENGTH (MB)   RECORD NAMES
              1      19       20.87       500      610      700      900      950      970     1000      129      960     1100   
                                          VAR    BASINP    GEOM    SYMINP    ZMAT    AOBASIS   BASIS     P2S    ABASIS      S 
                                         1400     1410     1420     1200     1210     1080     1600     1650     1700   
                                           T        V       ECP      H0       H01     AOSYM     SMH    MOLCAS    OPER   

              2       4        3.40       700     1000      520     2100   
                                         GEOM     BASIS   MCVARS     RHF  

 PROGRAMS   *        TOTAL       RHF       INT  RCCSD(T)       RHF       INT  RCCSD(T)       RHF       INT  RCCSD(T)       RHF
 CPU TIMES  *       275.38      0.61     18.90     68.36      0.53     19.34     67.69      0.54     18.94     59.88      1.35
 REAL TIME  *       387.22 SEC
 DISK USED  *         8.46 GB      
 SF USED    *         1.24 GB      
 GA USED    *         0.00 MB       (max)       0.00 MB       (current)
 **********************************************************************************************************************************
 SETTING SCF(4)         =      -127.43734084  AU                              
 SETTING _CC_NORM_MAX   =         2.00000000                                  


 PROGRAM * CCSD (Restricted open-shell coupled cluster)     Authors: C. Hampel, H.-J. Werner, 1991, M. Deegan, P.J. Knowles, 1992


 Convergence thresholds:  THRVAR = 1.00D-08  THRDEN = 1.00D-06

 CCSD(T)     terms to be evaluated (factor= 1.000)


 Number of closed-shell orbitals:   9 (   4   2   2   1 )
 Number of active  orbitals:        1 (   1   0   0   0 )
 Number of external orbitals:     253 ( 111  57  57  28 )

 Memory could be reduced to 80.26 Mwords without degradation in triples

 Number of N-1 electron functions:              19
 Number of N-2 electron functions:             171
 Number of singly external CSFs:              1520
 Number of doubly external CSFs:           2149669
 Total number of CSFs:                     2151189

 Molecular orbitals read from record     2100.2  Type=RHF/CANONICAL (state 1.1)

 Integral transformation finished. Total CPU:   2.43 sec, npass=  1  Memory used:   6.84 MW

 Starting RMP2 calculation

 Wavefunction is spin-projected

 ITER.      SQ.NORM     CORR.ENERGY   TOTAL ENERGY   ENERGY CHANGE        DEN1      VAR(S)    VAR(P)  DIIS     TIME
   1      1.15206651    -0.78895159  -128.22629243    -0.78895159    -0.00135687  0.16D-04  0.54D-03  1  1     3.05
   2      1.15340806    -0.79039451  -128.22773536    -0.00144293    -0.00000716  0.81D-06  0.42D-05  2  2     3.45
   3      1.15351349    -0.79045340  -128.22779424    -0.00005889    -0.00000007  0.26D-07  0.35D-07  3  3     3.92
   4      1.15351785    -0.79045428  -128.22779512    -0.00000088    -0.00000000  0.48D-09  0.34D-09  4  4     9.52

 Norm of t1 vector:      0.03018875      S-energy:    -0.00230789      T1 diagnostic:  0.00075157
 Norm of t2 vector:      0.39064881      P-energy:    -0.78814638
                                         Alpha-Beta:  -0.54843265
                                         Alpha-Alpha: -0.13015059
                                         Beta-Beta:   -0.10956314

 Spin contamination <S**2-Sz**2-Sz>     0.00000000
  Reference energy                   -127.437340844845
  RHF-RMP2 correlation energy          -0.790454277207
 !RHF-RMP2 energy                    -128.227795122052
 (NB above energy spin projected)

 Starting RCCSD calculation

 ITER.      SQ.NORM     CORR.ENERGY   TOTAL ENERGY   ENERGY CHANGE        DEN1      VAR(S)    VAR(P)  DIIS     TIME
   1      1.13129707    -0.73632680  -128.17366765    -0.73632680    -0.02032797  0.55D-02  0.35D-02  1  1    12.08
   2      1.14537313    -0.75339214  -128.19073298    -0.01706534    -0.00182929  0.73D-03  0.52D-03  2  2    14.62
   3      1.15524879    -0.75546111  -128.19280195    -0.00206897    -0.00053308  0.58D-03  0.56D-04  3  3    17.15
   4      1.16532959    -0.75718793  -128.19452878    -0.00172682    -0.00018300  0.20D-03  0.23D-04  4  4    20.30
   5      1.17646212    -0.75836739  -128.19570823    -0.00117946    -0.00004668  0.48D-04  0.74D-05  5  5    22.78
   6      1.18184863    -0.75868298  -128.19602383    -0.00031560    -0.00001220  0.14D-04  0.17D-05  6  6    25.23
   7      1.18577026    -0.75892043  -128.19626127    -0.00023744    -0.00000290  0.31D-05  0.42D-06  6  2    27.84
   8      1.18616259    -0.75890939  -128.19625023     0.00001104    -0.00000052  0.42D-06  0.11D-06  6  1    30.38
   9      1.18655173    -0.75892527  -128.19626612    -0.00001589    -0.00000012  0.11D-06  0.21D-07  6  4    32.98
  10      1.18656237    -0.75892073  -128.19626157     0.00000454    -0.00000004  0.35D-07  0.59D-08  6  2    35.55
  11      1.18656511    -0.75891891  -128.19625976     0.00000182    -0.00000001  0.89D-08  0.16D-08  6  3    38.25
  12      1.18658436    -0.75891927  -128.19626011    -0.00000035    -0.00000000  0.25D-08  0.50D-09  6  5    41.06

 Norm of t1 vector:      0.20129645      S-energy:    -0.00227303      T1 diagnostic:  0.03219973
                                                                       D1 diagnostic:  0.08800656
 Norm of t2 vector:      0.38218333      P-energy:    -0.75664623
                                         Alpha-Beta:  -0.54734409
                                         Alpha-Alpha: -0.11313855
                                         Beta-Beta:   -0.09616359

 Singles amplitudes (print threshold =  0.500E-01):

         I         SYM. A    A   T(IA) [Alpha-Alpha]

         5         1         2      0.06552344
         5         1         4      0.06944453
         5         1         8      0.05203155
 
         I         SYM. A    A   T(IA) [Beta-Beta]

         3         1         1     -0.12436083

 Spin contamination <S**2-Sz**2-Sz>     0.00000000

 Memory could be reduced to 80.80 Mwords without degradation in triples
 

  Correlated core orbitals:             1.1       2.1       1.2       1.3
  Orbital energies:                    -3.9939   -2.5888   -2.5452   -2.5452
 
  RCCSD core-core energy               -0.118936605206
  RCCSD core-valence energy            -0.263591193253
  RCCSD valence correlation energy     -0.376391467535
 

 RESULTS
 =======

  Reference energy                   -127.437340844845
  RCCSD singles energy                 -0.002273031989
  RCCSD pair energy                    -0.756646234004
  RCCSD correlation energy             -0.758919265993
  Triples (T) contribution             -0.030923470375
  Total correlation energy             -0.789842736368
 
  RHF-RCCSD energy                   -128.196260110838
  RHF-RCCSD[T] energy                -128.229279384634
  RHF-RCCSD-T energy                 -128.226996502612
 !RHF-RCCSD(T) energy                -128.227183581213

 Program statistics:

 Available memory in ccsd:               511999000
 Min. memory needed in ccsd:               6371840
 Max. memory used in ccsd:                 8994336
 Max. memory used in cckext:               7244967 (12 integral passes)
 Max. memory used in cckint:               6842122 ( 1 integral passes)



 **********************************************************************************************************************************
 DATASETS  * FILE   NREC   LENGTH (MB)   RECORD NAMES
              1      19       20.87       500      610      700      900      950      970     1000      129      960     1100   
                                          VAR    BASINP    GEOM    SYMINP    ZMAT    AOBASIS   BASIS     P2S    ABASIS      S 
                                         1400     1410     1420     1200     1210     1080     1600     1650     1700   
                                           T        V       ECP      H0       H01     AOSYM     SMH    MOLCAS    OPER   

              2       4        3.40       700     1000      520     2100   
                                         GEOM     BASIS   MCVARS     RHF  

 PROGRAMS   *        TOTAL  RCCSD(T)       RHF       INT  RCCSD(T)       RHF       INT  RCCSD(T)       RHF       INT  RCCSD(T)
 CPU TIMES  *       344.51     69.08      0.61     18.90     68.36      0.53     19.34     67.69      0.54     18.94     59.88
 REAL TIME  *       496.71 SEC
 DISK USED  *         8.46 GB      
 SF USED    *         1.24 GB      
 GA USED    *         0.00 MB       (max)       0.00 MB       (current)
 **********************************************************************************************************************************
 SETTING CCSD(4)        =      -128.22718358  AU                              

 DO I                   =         5.00000000   
 SETTING Z(5)           =         1.47900000                                  

Geometry recognized as XYZ



 Recomputing integrals since geometry changed


 PROGRAM * SEWARD (Integral evaluation for generally contracted gaussian basis sets)     Author: Roland Lindh, 1990

 Geometry written to block  1 of record 700


 Point group  C2v 



 ATOMIC COORDINATES

 NR  ATOM    CHARGE       X              Y              Z

   1  PD     18.00    0.000000000    0.000000000    0.000000000
   2  H       1.00    0.000000000    0.000000000    2.794904938

 Bond lengths in Bohr (Angstrom)

 1-2  2.794904938
     ( 1.479000000)

 NUCLEAR CHARGE:                   19
 NUMBER OF PRIMITIVE AOS:         312
 NUMBER OF SYMMETRY AOS:          263
 NUMBER OF CONTRACTIONS:          263   ( 116A1  +  59B1  +  59B2  +  29A2  )
 NUMBER OF CORE ORBITALS:           4   (   2A1  +   1B1  +   1B2  +   0A2  )
 NUMBER OF VALENCE ORBITALS:        7   (   4A1  +   1B1  +   1B2  +   1A2  )


 NUCLEAR REPULSION ENERGY    6.44029060

 EXTRA SYMMETRY OF AOS IN SYMMETRY 1:   1 1 1 1 1 1 1 1 1 1   1 1 1 1 1 1 1 1 1 1   1 1 1 1 1 1 1 1 1 1   1 1 1 1 1 1 1 1 1 1
                                        1 1 1 1 1 1 1 1 1 1   1 1 1 2 1 2 1 2 1 2   1 2 1 2 1 2 1 2 1 2   1 2 1 2 1 2 1 2 1 2
                                        1 2 1 2 1 2 1 2 1 2   1 2 1 2 1 3 2 1 3 2   1 3 2 1 1 1 1 1 1 1   1 1 1 2 1 2
 EXTRA SYMMETRY OF AOS IN SYMMETRY 2:   1 1 1 1 1 1 1 1 1 1   1 1 1 1 1 1 1 1 1 1   1 1 1 1 1 1 1 1 1 1   1 1 1 1 1 1 1 1 1 1
                                        1 2 1 2 1 2 1 2 1 2   1 2 1 2 1 1 1 1 1
 EXTRA SYMMETRY OF AOS IN SYMMETRY 3:   1 1 1 1 1 1 1 1 1 1   1 1 1 1 1 1 1 1 1 1   1 1 1 1 1 1 1 1 1 1   1 1 1 1 1 1 1 1 1 1
                                        1 2 1 2 1 2 1 2 1 2   1 2 1 2 1 1 1 1 1
 EXTRA SYMMETRY OF AOS IN SYMMETRY 4:   1 1 1 1 1 1 1 1 1 1   1 1 1 1 1 1 1 1 1 1   1 1 2 1 2 1 2 1 1

 Eigenvalues of metric

         1 0.916E-06 0.191E-05 0.889E-05 0.951E-05 0.268E-04 0.117E-03 0.131E-03 0.270E-03
         2 0.982E-06 0.946E-05 0.304E-03 0.471E-03 0.163E-02 0.300E-02 0.405E-02 0.919E-02
         3 0.982E-06 0.946E-05 0.304E-03 0.471E-03 0.163E-02 0.300E-02 0.405E-02 0.919E-02
         4 0.951E-05 0.307E-03 0.302E-02 0.107E-01 0.286E-01 0.528E-01 0.849E-01 0.105E+00


 Contracted 2-electron integrals neglected if value below      1.0D-13
 AO integral compression algorithm  1   Integral accuracy      1.0D-13

     596.902 MB (compressed) written to integral file ( 43.5%)

     Node minimum: 2.621 MB, node maximum: 63.701 MB


 NUMBER OF SORTED TWO-ELECTRON INTEGRALS:    6738189.     BUFFER LENGTH:  32768
 NUMBER OF SEGMENTS:   1  SEGMENT LENGTH:    6738189      RECORD LENGTH: 524288

 Memory used in sort:       7.30 MW

 SORT1 READ   171363336. AND WROTE     2886144. INTEGRALS IN      9 RECORDS. CPU TIME:     2.72 SEC, REAL TIME:     2.80 SEC
 SORT2 READ    67747600. AND WROTE   156329493. INTEGRALS IN   2162 RECORDS. CPU TIME:     1.08 SEC, REAL TIME:     1.67 SEC

 Node minimum:     6738189.  Node maximum:     6815662. integrals

 OPERATOR DM      FOR CENTER  0  COORDINATES:    0.000000    0.000000    0.000000


 **********************************************************************************************************************************
 DATASETS  * FILE   NREC   LENGTH (MB)   RECORD NAMES
              1      19       20.83       500      610      700      900      950      970     1000      129      960     1100   
                                          VAR    BASINP    GEOM    SYMINP    ZMAT    AOBASIS   BASIS     P2S    ABASIS      S 
                                         1400     1410     1420     1200     1210     1080     1600     1650     1700   
                                           T        V       ECP      H0       H01     AOSYM     SMH    MOLCAS    OPER   

              2       4        3.40       700     1000      520     2100   
                                         GEOM     BASIS   MCVARS     RHF  

 PROGRAMS   *        TOTAL       INT  RCCSD(T)       RHF       INT  RCCSD(T)       RHF       INT  RCCSD(T)       RHF       INT
 CPU TIMES  *       364.06     19.52     69.08      0.61     18.90     68.36      0.53     19.34     67.69      0.54     18.94
 REAL TIME  *       517.28 SEC
 DISK USED  *         8.47 GB      
 SF USED    *         1.24 GB      
 GA USED    *         0.00 MB       (max)       0.00 MB       (current)
 **********************************************************************************************************************************


 PROGRAM * RHF-SCF (OPEN SHELL)       Authors: W. Meyer, H.-J. Werner


 NUMBER OF ELECTRONS:      10+    9-    SPACE SYMMETRY=1    SPIN SYMMETRY: Doublet 
 CONVERGENCE THRESHOLDS:    1.00E-05 (Density)    1.00E-07 (Energy)
 MAX. NUMBER OF ITERATIONS:       60
 INTERPOLATION TYPE:            DIIS
 INTERPOLATION STEPS:              2 (START)      1 (STEP)
 LEVEL SHIFTS:                 -0.60 (CLOSED) -0.30 (OPEN) 

 Number of closed-shell orbitals:    9 (   4   2   2   1 )
 Number of open-shell orbitals:      1 (   1   0   0   0 )


 Molecular orbitals read from record     2100.2  Type=RHF/CANONICAL (state 1.1)

 Molecular orbital dump at record        2100.2

 ITERATION    DDIFF          GRAD             ENERGY        2-EL.EN.            DIPOLE MOMENTS         DIIS   ORB.
    1      0.000D+00      0.000D+00      -127.43388954    212.011214    0.00000    0.00000   -1.30102    0    start
    2      0.000D+00      0.261D-02      -127.43426792    212.026985    0.00000    0.00000   -1.30652    1    diag,B
    3      0.349D-03      0.170D-03      -127.43434907    212.041378    0.00000    0.00000   -1.29817    2    diag,B
    4      0.594D-04      0.102D-03      -127.43441917    212.056094    0.00000    0.00000   -1.28899    3    diag,B
    5      0.651D-04      0.705D-04      -127.43448382    212.075344    0.00000    0.00000   -1.27460    4    diag,B
    6      0.784D-04      0.476D-04      -127.43452769    212.096958    0.00000    0.00000   -1.25669    5    diag,B
    7      0.948D-04      0.192D-04      -127.43453306    212.105610    0.00000    0.00000   -1.25039    6    diag,B
    8      0.303D-04      0.739D-05      -127.43453340    212.106044    0.00000    0.00000   -1.24955    7    orth
    9      0.894D-05      0.355D-05      -127.43453345    212.106716    0.00000    0.00000   -1.24980    8    diag,B
   10      0.602D-05      0.172D-05      -127.43453346    212.106663    0.00000    0.00000   -1.24986    0    orth

 Final alpha occupancy:   5   2   2   1
 Final beta  occupancy:   4   2   2   1

 !RHF STATE 1.1 Energy               -127.434533458935
 Nuclear energy                         6.44029060
 One-electron energy                 -239.92815561
 Two-electron energy                  106.05333155
 Virial quotient                       -2.61467684
 !RHF STATE 1.1 Dipole moment           0.00000000     0.00000000    -1.24986200
 Dipole moment /Debye                   0.00000000     0.00000000    -3.17662426

 Orbital energies:

         1.1          2.1          3.1          4.1          5.1          6.1          7.1
     -3.967154    -2.534778    -0.457422    -0.418624    -0.349580     0.006401     0.029521

         1.2          2.2          3.2          4.2
     -2.525866    -0.443804     0.024036     0.080622

         1.3          2.3          3.3          4.3
     -2.525866    -0.443804     0.024036     0.080622

[...]
  RCCSD correlation energy             -0.769170122717
  Triples (T) contribution             -0.031779911155
  Total correlation energy             -0.800950033873
 
  RHF-RCCSD energy                   -128.155566978338
  RHF-RCCSD[T] energy                -128.188537088391
  RHF-RCCSD-T energy                 -128.187168995348
 !RHF-RCCSD(T) energy                -128.187346889494

 Program statistics:

 Available memory in ccsd:               511999000
 Min. memory needed in ccsd:               6371840
 Max. memory used in ccsd:                 8994336
 Max. memory used in cckext:               7244967 (12 integral passes)
 Max. memory used in cckint:               6842122 ( 1 integral passes)



 **********************************************************************************************************************************
 DATASETS  * FILE   NREC   LENGTH (MB)   RECORD NAMES
              1      19       20.87       500      610      700      900      950      970     1000      129      960     1100   
                                          VAR    BASINP    GEOM    SYMINP    ZMAT    AOBASIS   BASIS     P2S    ABASIS      S 
                                         1400     1410     1420     1200     1210     1080     1600     1650     1700   
                                           T        V       ECP      H0       H01     AOSYM     SMH    MOLCAS    OPER   

              2       4        3.40       700     1000      520     2100   
                                         GEOM     BASIS   MCVARS     RHF  

 PROGRAMS   *        TOTAL  RCCSD(T)       RHF       INT  RCCSD(T)       RHF       INT  RCCSD(T)       RHF       INT  RCCSD(T)
 CPU TIMES  *       881.76     61.41      0.63     18.60     65.54      0.65     18.78     64.99      0.79     22.46     63.56
 REAL TIME  *      1275.39 SEC
 DISK USED  *         8.68 GB      
 SF USED    *         1.24 GB      
 GA USED    *         0.00 MB       (max)       0.00 MB       (current)
 **********************************************************************************************************************************
 SETTING CCSD(10)       =      -128.18734689  AU                              

 DO I                   =        11.00000000   
 SETTING Z(11)          =         1.17900000                                  

Geometry recognized as XYZ



 Recomputing integrals since geometry changed


 PROGRAM * SEWARD (Integral evaluation for generally contracted gaussian basis sets)     Author: Roland Lindh, 1990

 Geometry written to block  1 of record 700


 Point group  C2v 



 ATOMIC COORDINATES

 NR  ATOM    CHARGE       X              Y              Z

   1  PD     18.00    0.000000000    0.000000000    0.000000000
   2  H       1.00    0.000000000    0.000000000    2.227987101

 Bond lengths in Bohr (Angstrom)

 1-2  2.227987101
     ( 1.179000000)

 NUCLEAR CHARGE:                   19
 NUMBER OF PRIMITIVE AOS:         312
 NUMBER OF SYMMETRY AOS:          263
 NUMBER OF CONTRACTIONS:          263   ( 116A1  +  59B1  +  59B2  +  29A2  )
 NUMBER OF CORE ORBITALS:           4   (   2A1  +   1B1  +   1B2  +   0A2  )
 NUMBER OF VALENCE ORBITALS:        7   (   4A1  +   1B1  +   1B2  +   1A2  )


 NUCLEAR REPULSION ENERGY    8.07904139

 EXTRA SYMMETRY OF AOS IN SYMMETRY 1:   1 1 1 1 1 1 1 1 1 1   1 1 1 1 1 1 1 1 1 1   1 1 1 1 1 1 1 1 1 1   1 1 1 1 1 1 1 1 1 1
                                        1 1 1 1 1 1 1 1 1 1   1 1 1 2 1 2 1 2 1 2   1 2 1 2 1 2 1 2 1 2   1 2 1 2 1 2 1 2 1 2
                                        1 2 1 2 1 2 1 2 1 2   1 2 1 2 1 3 2 1 3 2   1 3 2 1 1 1 1 1 1 1   1 1 1 2 1 2
 EXTRA SYMMETRY OF AOS IN SYMMETRY 2:   1 1 1 1 1 1 1 1 1 1   1 1 1 1 1 1 1 1 1 1   1 1 1 1 1 1 1 1 1 1   1 1 1 1 1 1 1 1 1 1
                                        1 2 1 2 1 2 1 2 1 2   1 2 1 2 1 1 1 1 1
 EXTRA SYMMETRY OF AOS IN SYMMETRY 3:   1 1 1 1 1 1 1 1 1 1   1 1 1 1 1 1 1 1 1 1   1 1 1 1 1 1 1 1 1 1   1 1 1 1 1 1 1 1 1 1
                                        1 2 1 2 1 2 1 2 1 2   1 2 1 2 1 1 1 1 1
 EXTRA SYMMETRY OF AOS IN SYMMETRY 4:   1 1 1 1 1 1 1 1 1 1   1 1 1 1 1 1 1 1 1 1   1 1 2 1 2 1 2 1 1

 Eigenvalues of metric

         1 0.886E-06 0.182E-05 0.886E-05 0.951E-05 0.234E-04 0.397E-04 0.111E-03 0.199E-03
         2 0.982E-06 0.929E-05 0.296E-03 0.471E-03 0.163E-02 0.296E-02 0.406E-02 0.579E-02
         3 0.982E-06 0.929E-05 0.296E-03 0.471E-03 0.163E-02 0.296E-02 0.406E-02 0.579E-02
         4 0.951E-05 0.307E-03 0.302E-02 0.107E-01 0.284E-01 0.514E-01 0.758E-01 0.104E+00


 Contracted 2-electron integrals neglected if value below      1.0D-13
 AO integral compression algorithm  1   Integral accuracy      1.0D-13

     612.106 MB (compressed) written to integral file ( 44.7%)

     Node minimum: 3.932 MB, node maximum: 63.701 MB


 NUMBER OF SORTED TWO-ELECTRON INTEGRALS:    6738189.     BUFFER LENGTH:  32768
 NUMBER OF SEGMENTS:   1  SEGMENT LENGTH:    6738189      RECORD LENGTH: 524288

 Memory used in sort:       7.30 MW

 SORT1 READ   171363336. AND WROTE     2931039. INTEGRALS IN      9 RECORDS. CPU TIME:     8.79 SEC, REAL TIME:     9.05 SEC
 SORT2 READ    68795683. AND WROTE   156329493. INTEGRALS IN   1817 RECORDS. CPU TIME:     9.63 SEC, REAL TIME:     9.77 SEC

 Node minimum:     6738189.  Node maximum:     6815662. integrals

 OPERATOR DM      FOR CENTER  0  COORDINATES:    0.000000    0.000000    0.000000


 **********************************************************************************************************************************
 DATASETS  * FILE   NREC   LENGTH (MB)   RECORD NAMES
              1      19       20.83       500      610      700      900      950      970     1000      129      960     1100   
                                          VAR    BASINP    GEOM    SYMINP    ZMAT    AOBASIS   BASIS     P2S    ABASIS      S 
                                         1400     1410     1420     1200     1210     1080     1600     1650     1700   
                                           T        V       ECP      H0       H01     AOSYM     SMH    MOLCAS    OPER   

              2       4        3.40       700     1000      520     2100   
                                         GEOM     BASIS   MCVARS     RHF  

 PROGRAMS   *        TOTAL       INT  RCCSD(T)       RHF       INT  RCCSD(T)       RHF       INT  RCCSD(T)       RHF       INT
 CPU TIMES  *       924.45     42.67     61.41      0.63     18.60     65.54      0.65     18.78     64.99      0.79     22.46
 REAL TIME  *      1319.59 SEC
 DISK USED  *         8.70 GB      
 SF USED    *         1.24 GB      
 GA USED    *         0.00 MB       (max)       0.00 MB       (current)
 **********************************************************************************************************************************


 PROGRAM * RHF-SCF (OPEN SHELL)       Authors: W. Meyer, H.-J. Werner


 NUMBER OF ELECTRONS:      10+    9-    SPACE SYMMETRY=1    SPIN SYMMETRY: Doublet 
 CONVERGENCE THRESHOLDS:    1.00E-05 (Density)    1.00E-07 (Energy)
 MAX. NUMBER OF ITERATIONS:       60
 INTERPOLATION TYPE:            DIIS
 INTERPOLATION STEPS:              2 (START)      1 (STEP)
 LEVEL SHIFTS:                 -0.60 (CLOSED) -0.30 (OPEN) 

 Number of closed-shell orbitals:    9 (   4   2   2   1 )
 Number of open-shell orbitals:      1 (   1   0   0   0 )


 Molecular orbitals read from record     2100.2  Type=RHF/CANONICAL (state 1.1)

 Molecular orbital dump at record        2100.2

 ITERATION    DDIFF          GRAD             ENERGY        2-EL.EN.            DIPOLE MOMENTS         DIIS   ORB.
    1      0.000D+00      0.000D+00      -127.36328688    214.919407    0.00000    0.00000   -0.84452    0    start
    2      0.000D+00      0.512D-02      -127.36453674    214.928095    0.00000    0.00000   -0.86197    1    diag,B
    3      0.865D-03      0.310D-03      -127.36470945    214.935728    0.00000    0.00000   -0.84943    2    diag,B
    4      0.228D-03      0.153D-03      -127.36481266    214.933332    0.00000    0.00000   -0.84199    3    diag,B
    5      0.146D-03      0.870D-04      -127.36488035    214.934269    0.00000    0.00000   -0.83013    4    diag,B
    6      0.137D-03      0.521D-04      -127.36491292    214.926864    0.00000    0.00000   -0.81975    5    diag,B
    7      0.115D-03      0.219D-04      -127.36491822    214.925928    0.00000    0.00000   -0.81511    6    diag,B
    8      0.290D-04      0.105D-04      -127.36491925    214.922151    0.00000    0.00000   -0.81307    7    orth
    9      0.145D-04      0.600D-05      -127.36491962    214.921018    0.00000    0.00000   -0.81190    8    diag,B
   10      0.103D-04      0.358D-05      -127.36491984    214.919662    0.00000    0.00000   -0.81083    9    diag,B
   11      0.806D-05      0.197D-05      -127.36491991    214.918672    0.00000    0.00000   -0.81001    9    diag,B
   12      0.761D-05      0.847D-06      -127.36491992    214.918559    0.00000    0.00000   -0.80995    0    orth

 Final alpha occupancy:   5   2   2   1
 Final beta  occupancy:   4   2   2   1

 !RHF STATE 1.1 Energy               -127.364919918217
 Nuclear energy                         8.07904139
 One-electron energy                 -242.90324078
 Two-electron energy                  107.45927947
 Virial quotient                       -2.59534089
 !RHF STATE 1.1 Dipole moment           0.00000000     0.00000000    -0.80995188
 Dipole moment /Debye                   0.00000000     0.00000000    -2.05855751

 Orbital energies:

         1.1          2.1          3.1          4.1          5.1          6.1          7.1
     -3.967404    -2.556190    -0.563219    -0.413063    -0.278287     0.013702     0.026399

         1.2          2.2          3.2          4.2
     -2.521597    -0.448518     0.023399     0.076959

         1.3          2.3          3.3          4.3
     -2.521597    -0.448518     0.023399     0.076959

         1.4          2.4          3.4
     -0.413063     0.099035     0.328331

 HOMO      5.1    -0.278287 =      -7.5726eV
 LUMO      6.1     0.013702 =       0.3728eV
 LUMO-HOMO         0.291988 =       7.9454eV


 **********************************************************************************************************************************
 DATASETS  * FILE   NREC   LENGTH (MB)   RECORD NAMES
              1      19       20.87       500      610      700      900      950      970     1000      129      960     1100   
                                          VAR    BASINP    GEOM    SYMINP    ZMAT    AOBASIS   BASIS     P2S    ABASIS      S 
                                         1400     1410     1420     1200     1210     1080     1600     1650     1700   
                                           T        V       ECP      H0       H01     AOSYM     SMH    MOLCAS    OPER   

              2       4        3.40       700     1000      520     2100   
                                         GEOM     BASIS   MCVARS     RHF  

 PROGRAMS   *        TOTAL       RHF       INT  RCCSD(T)       RHF       INT  RCCSD(T)       RHF       INT  RCCSD(T)       RHF
 CPU TIMES  *       935.58      8.63     42.67     61.41      0.63     18.60     65.54      0.65     18.78     64.99      0.79
 REAL TIME  *      1331.22 SEC
 DISK USED  *         8.70 GB      
 SF USED    *         1.24 GB      
 GA USED    *         0.00 MB       (max)       0.00 MB       (current)
 **********************************************************************************************************************************
 SETTING SCF(11)        =      -127.36491992  AU                              
 SETTING _CC_NORM_MAX   =         2.00000000                                  


 PROGRAM * CCSD (Restricted open-shell coupled cluster)     Authors: C. Hampel, H.-J. Werner, 1991, M. Deegan, P.J. Knowles, 1992


 Convergence thresholds:  THRVAR = 1.00D-08  THRDEN = 1.00D-06

 CCSD(T)     terms to be evaluated (factor= 1.000)


 Number of closed-shell orbitals:   9 (   4   2   2   1 )
 Number of active  orbitals:        1 (   1   0   0   0 )
 Number of external orbitals:     253 ( 111  57  57  28 )

 Memory could be reduced to 80.26 Mwords without degradation in triples

 Number of N-1 electron functions:              19
 Number of N-2 electron functions:             171
 Number of singly external CSFs:              1520
 Number of doubly external CSFs:           2149669
 Total number of CSFs:                     2151189

 Molecular orbitals read from record     2100.2  Type=RHF/CANONICAL (state 1.1)

 Integral transformation finished. Total CPU:   2.59 sec, npass=  1  Memory used:   6.84 MW

 Starting RMP2 calculation

 Wavefunction is spin-projected

 ITER.      SQ.NORM     CORR.ENERGY   TOTAL ENERGY   ENERGY CHANGE        DEN1      VAR(S)    VAR(P)  DIIS     TIME
   1      1.15665507    -0.81286589  -128.17778581    -0.81286589    -0.00130064  0.73D-05  0.48D-03  1  1     3.18
   2      1.15778902    -0.81423540  -128.17915532    -0.00136951    -0.00000297  0.14D-06  0.18D-05  2  2     3.67
   3      1.15784540    -0.81426998  -128.17918990    -0.00003458    -0.00000001  0.39D-08  0.66D-08  3  3     4.06
   4      1.15784677    -0.81427021  -128.17919013    -0.00000023    -0.00000000  0.12D-09  0.24D-10  4  4     4.58

 Norm of t1 vector:      0.02383540      S-energy:    -0.00111471      T1 diagnostic:  0.00025128
 Norm of t2 vector:      0.39658372      P-energy:    -0.81315550
                                         Alpha-Beta:  -0.56183283
                                         Alpha-Alpha: -0.13564907
                                         Beta-Beta:   -0.11567360

 Spin contamination <S**2-Sz**2-Sz>     0.00000000
  Reference energy                   -127.364919918217
  RHF-RMP2 correlation energy          -0.814270211442
 !RHF-RMP2 energy                    -128.179190129659
 (NB above energy spin projected)

 Starting RCCSD calculation

 ITER.      SQ.NORM     CORR.ENERGY   TOTAL ENERGY   ENERGY CHANGE        DEN1      VAR(S)    VAR(P)  DIIS     TIME
   1      1.12799427    -0.75072163  -128.11564155    -0.75072163    -0.01972818  0.31D-02  0.36D-02  1  1     7.57
   2      1.13871925    -0.76759555  -128.13251547    -0.01687392    -0.00116270  0.29D-03  0.34D-03  2  2    10.29
   3      1.14245552    -0.76852786  -128.13344778    -0.00093231    -0.00020996  0.19D-03  0.27D-04  3  3    12.95
   4      1.14520213    -0.76923698  -128.13415690    -0.00070912    -0.00005381  0.58D-04  0.68D-05  4  4    15.87
   5      1.14765373    -0.76963862  -128.13455853    -0.00040164    -0.00001115  0.15D-04  0.11D-05  5  5    18.63
   6      1.14875639    -0.76971687  -128.13463679    -0.00007826    -0.00000289  0.43D-05  0.24D-06  6  6    21.38
   7      1.14943573    -0.76975862  -128.13467854    -0.00004175    -0.00000066  0.79D-06  0.76D-07  6  2    24.29
   8      1.14962349    -0.76975884  -128.13467875    -0.00000021    -0.00000010  0.87D-07  0.18D-07  6  1    26.92
   9      1.14968744    -0.76975795  -128.13467787     0.00000089    -0.00000001  0.77D-08  0.29D-08  6  4    35.23
  10      1.14970223    -0.76976019  -128.13468010    -0.00000224    -0.00000000  0.18D-08  0.35D-09  6  3    38.05
  11      1.14969832    -0.76975915  -128.13467906     0.00000104    -0.00000000  0.45D-09  0.87D-10  6  6    43.69
  12      1.14970057    -0.76975915  -128.13467906    -0.00000000    -0.00000000  0.61D-10  0.13D-10  6  5    46.34

 Norm of t1 vector:      0.11024527      S-energy:    -0.00111348      T1 diagnostic:  0.01742424
                                                                       D1 diagnostic:  0.05686667
 Norm of t2 vector:      0.37087269      P-energy:    -0.76864566
                                         Alpha-Beta:  -0.55290887
                                         Alpha-Alpha: -0.11646683
                                         Beta-Beta:   -0.09926996

 Spin contamination <S**2-Sz**2-Sz>     0.00000000

 Memory could be reduced to 80.80 Mwords without degradation in triples
 

  Correlated core orbitals:             1.1       2.1       1.2       1.3
  Orbital energies:                    -3.9802   -2.5796   -2.5293   -2.5293
 
  RCCSD core-core energy               -0.116410969354
  RCCSD core-valence energy            -0.263987898358
  RCCSD valence correlation energy     -0.389360277945
 

 RESULTS
 =======

  Reference energy                   -127.364919918217
  RCCSD singles energy                 -0.001113481965
  RCCSD pair energy                    -0.768645663692
  RCCSD correlation energy             -0.769759145656
  Triples (T) contribution             -0.031704426659
  Total correlation energy             -0.801463572315
 
  RHF-RCCSD energy                   -128.134679063873
  RHF-RCCSD[T] energy                -128.167467811008
  RHF-RCCSD-T energy                 -128.166207918623
 !RHF-RCCSD(T) energy                -128.166383490532

 Program statistics:

 Available memory in ccsd:               511999000
 Min. memory needed in ccsd:               6371840
 Max. memory used in ccsd:                 8994336
 Max. memory used in cckext:               7244967 (12 integral passes)
 Max. memory used in cckint:               6842122 ( 1 integral passes)



 **********************************************************************************************************************************
 DATASETS  * FILE   NREC   LENGTH (MB)   RECORD NAMES
              1      19       20.87       500      610      700      900      950      970     1000      129      960     1100   
                                          VAR    BASINP    GEOM    SYMINP    ZMAT    AOBASIS   BASIS     P2S    ABASIS      S 
                                         1400     1410     1420     1200     1210     1080     1600     1650     1700   
                                           T        V       ECP      H0       H01     AOSYM     SMH    MOLCAS    OPER   

              2       4        3.40       700     1000      520     2100   
                                         GEOM     BASIS   MCVARS     RHF  

 PROGRAMS   *        TOTAL  RCCSD(T)       RHF       INT  RCCSD(T)       RHF       INT  RCCSD(T)       RHF       INT  RCCSD(T)
 CPU TIMES  *      1008.26     72.64      8.63     42.67     61.41      0.63     18.60     65.54      0.65     18.78     64.99
 REAL TIME  *      1495.83 SEC
 DISK USED  *         8.70 GB      
 SF USED    *         1.24 GB      
 GA USED    *         0.00 MB       (max)       0.00 MB       (current)
 **********************************************************************************************************************************
 SETTING CCSD(11)       =      -128.16638349  AU                              
 Output type csv         
                                                                                                                                                                                                                                                                

     Z,SCF,CCSD
   1.679,   -127.4387773,   -128.2209361
   1.629,   -127.4392567,   -128.2239163
   1.579,   -127.4388389,   -128.2260853
   1.529,   -127.4373408,   -128.2271836
   1.479,   -127.4345335,   -128.2269017
   1.429,   -127.4301199,   -128.2248443
   1.379,   -127.4237073,   -128.2205302
   1.329,   -127.4147736,   -128.2133671
   1.279,   -127.4026332,   -128.2026162
   1.229,   -127.3863969,   -128.1873469
   1.179,   -127.3649199,   -128.1663835
                                                  

 RCCSD(T)/USERDEF energy=   -128.166383490532

        RCCSD(T)        RHF-SCF         RCCSD(T)        RHF-SCF         RCCSD(T)        RHF-SCF         RCCSD(T)        RHF-SCF 
   -128.16638349   -127.36491992   -128.18734689   -127.38639686   -128.20261623   -127.40263324   -128.21336706   -127.41477357
 **********************************************************************************************************************************
 Molpro calculation terminated
 Variable memory released
