
 Primary working directories    : /global/cscratch1/sd/bkincaid
 Secondary working directories  : /global/cscratch1/sd/bkincaid
 Wavefunction directory         : /global/homes/b/bkincaid/wfu/
 Main file repository           : /global/cscratch1/sd/bkincaid/

 SHA1      : 19cd028119e0e09f93f0674bd8af7968d9b3eff6
 NAME      : 2015.1.36
 ARCHNAME  : linux/x86_64
 FC        : /opt/cray/pe/craype/2.5.14/bin/ftn
 BLASLIB   : -L/opt/intel/compilers_and_libraries_2018.1.163/linux/mkl/lib/intel64 -Wl,-_start-group -lmkl_intel_ilp64 -lmkl_intel_thread -lmkl_core -Wl,-_end-group -liomp5
 id        : lbl

 Nodes     nprocs
 nid12790    23
 Number of processes for MPI-2 version of Molpro:   nprocs(total)=   24   nprocs(compute)=   23   nprocs(helper)=    1

 Using customized tuning parameters: mindgm=7; mindgv=16; mindgc=1; mindgr=1; noblas=0; minvec=7
 default implementation of scratch files=sf  

 ***,Calculation for PdH groundstate
 memory,512,m
 gthresh,twoint=1.0E-12
 gthresh,throvl=1.0E-12
                                                                                 !symmetry,nosym
 
 set,dkroll=1,dkho=10,dkhp=4
 
 basis={
 
 Including file /global/u1/b/bkincaid/molpro/pd/molecules/PdH/tz/ae/1.229/c-Pd-aug-cc-pwCVTZ.basis
 
 Including file /global/u1/b/bkincaid/molpro/pd/molecules/PdH/tz/ae/1.229/c-H-aug-cc-pVTZ.basis
 }
 
 ne = 47
 
 geometry={
 2
 PdH
 Pd 0.0 0.0 0.0
 H 0.0 0.0 1.229
 }
 
 A1=12
 B1=5
 B2=5
 A2=2
 
 {rks,pbe0
 wf,nele=ne,spin=1,sym=1
 occ,A1,B1,B2,A2
 closed,A1-1,B1,B2,A2
 }
 {rhf
 wf,nelec=ne,spin=1,sym=1
 occ,A1,B1,B2,A2
 closed,A1-1,B1,B2,A2
 }
 
 
 basis={
 
 Including file /global/u1/b/bkincaid/molpro/pd/molecules/PdH/tz/ae/1.229/Pd-aug-cc-pwCVTZ.basis
 
 Including file /global/u1/b/bkincaid/molpro/pd/molecules/PdH/tz/ae/1.229/H-aug-cc-pVTZ.basis
 }
 
 {rhf
 wf,nelec=ne,spin=1,sym=1
 occ,A1,B1,B2,A2
 closed,A1-1,B1,B2,A2
 }
 
 E_Pd = -5044.366379
 E_H = -0.49982785
 
 scf=energy
 _CC_NORM_MAX=2.0
 {rccsd(t);maxit,100;core}
 ccsd=energy
 BE = ccsd - E_Pd - E_H
 
 table,scf,ccsd,BE
 
 save
 type,csv

 Variables initialized (889), CPU time= 0.00 sec
 Commands  initialized (702), CPU time= 0.02 sec, 572 directives.
 Default parameters read. Elapsed time= 0.19 sec

 Checking input...
 Passed
1


                                         ***  PROGRAM SYSTEM MOLPRO  ***
                                       Copyright, TTI GmbH Stuttgart, 2015
                                    Version 2015.1 linked Dec 29 2018 15:55:43


 **********************************************************************************************************************************
 LABEL *   Calculation for PdH groundstate                                               
  64 bit mpp version                                                                     DATE: 10-Sep-20          TIME: 18:06:29  
 **********************************************************************************************************************************

 SHA1:             19cd028119e0e09f93f0674bd8af7968d9b3eff6
 **********************************************************************************************************************************

 THRESHOLDS:

 ZERO    =  1.00D-12  ONEINT  =  1.00D-12  TWOINT  =  1.00D-12  PREFAC  =  1.00D-14  LOCALI  =  1.00D-09  EORDER  =  1.00D-04
 ENERGY  =  0.00D+00  ETEST   =  0.00D+00  EDENS   =  0.00D+00  THRDEDEF=  1.00D-06  GRADIENT=  1.00D-02  STEP    =  1.00D-03
 ORBITAL =  1.00D-05  CIVEC   =  1.00D-05  COEFF   =  1.00D-04  PRINTCI =  5.00D-02  PUNCHCI =  9.90D+01  OPTGRAD =  3.00D-04
 OPTENERG=  1.00D-06  OPTSTEP =  3.00D-04  THRGRAD =  1.00D-10  COMPRESS=  1.00D-11  VARMIN  =  1.00D-07  VARMAX  =  1.00D-03
 THRDOUB =  0.00D+00  THRDIV  =  1.00D-05  THRRED  =  1.00D-07  THRPSP  =  1.00D+00  THRDC   =  1.00D-10  THRCS   =  1.00D-10
 THRNRM  =  1.00D-08  THREQ   =  0.00D+00  THRDE   =  1.00D+00  THRREF  =  1.00D-05  SPARFAC =  1.00D+00  THRDLP  =  1.00D-07
 THRDIA  =  1.00D-10  THRDLS  =  1.00D-07  THRGPS  =  0.00D+00  THRKEX  =  0.00D+00  THRDIS  =  2.00D-01  THRVAR  =  1.00D-10
 THRLOC  =  1.00D-06  THRGAP  =  1.00D-06  THRLOCT = -1.00D+00  THRGAPT = -1.00D+00  THRORB  =  1.00D-06  THRMLTP =  0.00D+00
 THRCPQCI=  1.00D-10  KEXTA   =  0.00D+00  THRCOARS=  0.00D+00  SYMTOL  =  1.00D-06  GRADTOL =  1.00D-06  THROVL  =  1.00D-08
 THRORTH =  1.00D-08  GRID    =  1.00D-06  GRIDMAX =  1.00D-03  DTMAX   =  0.00D+00  THROCCDE=  1.00D-01  THROCCDE=  1.00D-01



 THRESHOLDS:

 ZERO    =  1.00D-12  ONEINT  =  1.00D-12  TWOINT  =  1.00D-12  PREFAC  =  1.00D-14  LOCALI  =  1.00D-09  EORDER  =  1.00D-04
 ENERGY  =  0.00D+00  ETEST   =  0.00D+00  EDENS   =  0.00D+00  THRDEDEF=  1.00D-06  GRADIENT=  1.00D-02  STEP    =  1.00D-03
 ORBITAL =  1.00D-05  CIVEC   =  1.00D-05  COEFF   =  1.00D-04  PRINTCI =  5.00D-02  PUNCHCI =  9.90D+01  OPTGRAD =  3.00D-04
 OPTENERG=  1.00D-06  OPTSTEP =  3.00D-04  THRGRAD =  1.00D-10  COMPRESS=  1.00D-11  VARMIN  =  1.00D-07  VARMAX  =  1.00D-03
 THRDOUB =  0.00D+00  THRDIV  =  1.00D-05  THRRED  =  1.00D-07  THRPSP  =  1.00D+00  THRDC   =  1.00D-10  THRCS   =  1.00D-10
 THRNRM  =  1.00D-08  THREQ   =  0.00D+00  THRDE   =  1.00D+00  THRREF  =  1.00D-05  SPARFAC =  1.00D+00  THRDLP  =  1.00D-07
 THRDIA  =  1.00D-10  THRDLS  =  1.00D-07  THRGPS  =  0.00D+00  THRKEX  =  0.00D+00  THRDIS  =  2.00D-01  THRVAR  =  1.00D-10
 THRLOC  =  1.00D-06  THRGAP  =  1.00D-06  THRLOCT = -1.00D+00  THRGAPT = -1.00D+00  THRORB  =  1.00D-06  THRMLTP =  0.00D+00
 THRCPQCI=  1.00D-10  KEXTA   =  0.00D+00  THRCOARS=  0.00D+00  SYMTOL  =  1.00D-06  GRADTOL =  1.00D-06  THROVL  =  1.00D-12
 THRORTH =  1.00D-08  GRID    =  1.00D-06  GRIDMAX =  1.00D-03  DTMAX   =  0.00D+00  THROCCDE=  1.00D-01  THROCCDE=  1.00D-01


 SETTING DKROLL         =         1.00000000                                  
 SETTING DKHO           =        10.00000000                                  
 SETTING DKHP           =         4.00000000                                  

 Variable memory set to  512000000 words,  buffer space   230000 words

 SETTING BASIS          =    USERDEF
 SETTING NE             =        47.00000000                                  

Geometry recognized as XYZ

 SETTING A1             =        12.00000000                                  
 SETTING B1             =         5.00000000                                  
 SETTING B2             =         5.00000000                                  
 SETTING A2             =         2.00000000                                  


 Recomputing integrals since basis changed


 Using spherical harmonics



 PROGRAM * SEWARD (Integral evaluation for generally contracted gaussian basis sets)     Author: Roland Lindh, 1990

 Geometry written to block  1 of record 700


 Point group  C2v 



 ATOMIC COORDINATES

 NR  ATOM    CHARGE       X              Y              Z

   1  PD     46.00    0.000000000    0.000000000    0.000000000
   2  H       1.00    0.000000000    0.000000000    2.322473407

 Bond lengths in Bohr (Angstrom)

 1-2  2.322473407
     ( 1.229000000)

 NUCLEAR CHARGE:                   47
 NUMBER OF PRIMITIVE AOS:         315
 NUMBER OF SYMMETRY AOS:          266
 NUMBER OF CONTRACTIONS:          159   (  65A1  +  37B1  +  37B2  +  20A2  )
 NUMBER OF CORE ORBITALS:          18   (   9A1  +   4B1  +   4B2  +   1A2  )
 NUMBER OF VALENCE ORBITALS:        7   (   4A1  +   1B1  +   1B2  +   1A2  )


 NUCLEAR REPULSION ENERGY   19.80647006

 One-electron integrals computed with SEWARD

 10nd-order Douglas-Kroll-Hess method activated. McWeeny DKH parametrization is used.

 Computing Douglas-Kroll / X2C integrals

 AO integral compression algorithm  1   Integral accuracy      1.0D-12

     98.566 MB (compressed) written to integral file ( 54.6%)

     Node minimum: 1.573 MB, node maximum: 9.175 MB


 NUMBER OF SORTED TWO-ELECTRON INTEGRALS:     906300.     BUFFER LENGTH:  32768
 NUMBER OF SEGMENTS:   1  SEGMENT LENGTH:     906300      RECORD LENGTH: 524288

 Memory used in sort:       1.46 MW

 SORT1 READ    22613812. AND WROTE      510311. INTEGRALS IN      2 RECORDS. CPU TIME:     9.92 SEC, REAL TIME:    16.59 SEC
 SORT2 READ    11897231. AND WROTE    20925119. INTEGRALS IN    299 RECORDS. CPU TIME:     0.55 SEC, REAL TIME:     0.60 SEC

 Node minimum:      897627.  Node maximum:      932430. integrals

 OPERATOR DM      FOR CENTER  0  COORDINATES:    0.000000    0.000000    0.000000

 EXTRA SYMMETRY OF AOS IN SYMMETRY 1:   1 1 1 1 1 1 1 1 1 1   1 1 1 1 1 1 1 1 1 1   1 1 2 1 2 1 2 1 2 1   2 1 2 1 2 1 2 1 2 1
                                        2 1 2 1 2 1 3 2 1 3   2 1 3 2 1 1 1 1 1 1   1 1 2 1 2
 EXTRA SYMMETRY OF AOS IN SYMMETRY 2:   1 1 1 1 1 1 1 1 1 1   1 1 1 1 1 1 1 1 1 2   1 2 1 2 1 2 1 2 1 2   1 2 1 1 1 1 1
 EXTRA SYMMETRY OF AOS IN SYMMETRY 3:   1 1 1 1 1 1 1 1 1 1   1 1 1 1 1 1 1 1 1 2   1 2 1 2 1 2 1 2 1 2   1 2 1 1 1 1 1
 EXTRA SYMMETRY OF AOS IN SYMMETRY 4:   1 1 1 1 1 1 1 1 1 1   1 1 1 2 1 2 1 2 1 1

 Eigenvalues of metric

         1 0.326E-04 0.113E-03 0.159E-03 0.527E-03 0.671E-03 0.147E-02 0.157E-02 0.327E-02
         2 0.635E-03 0.157E-02 0.159E-02 0.689E-02 0.206E-01 0.284E-01 0.514E-01 0.803E-01
         3 0.635E-03 0.157E-02 0.159E-02 0.689E-02 0.206E-01 0.284E-01 0.514E-01 0.803E-01
         4 0.157E-02 0.219E-01 0.759E-01 0.102E+00 0.126E+00 0.148E+00 0.184E+00 0.399E+00


 **********************************************************************************************************************************
 DATASETS  * FILE   NREC   LENGTH (MB)   RECORD NAMES
              1      22       20.70       500      610      700      900      950      970     1000      129      960     1700   
                                          VAR    BASINP    GEOM    SYMINP    ZMAT    AOBASIS   BASIS     P2S    ABASIS    OPER   
                                         1101     1401     1411     1412     1650     1100     1400     1410     1200     1210   
                                          SR      EKINR    POTR     PVPR    MOLCAS      S      EKIN      POT      H0       H01  
                                         1080     1600   
                                         AOSYM     SMH  

 PROGRAMS   *        TOTAL       INT
 CPU TIMES  *        20.09     19.75
 REAL TIME  *        33.72 SEC
 DISK USED  *       270.20 MB      
 GA USED    *         0.00 MB       (max)       0.00 MB       (current)
 **********************************************************************************************************************************

 Density functional group PBE0=PBEX+PBEC
 Functional: PBEX(Automatically generated (new) PBEX)                          Gradient terms: 1
 Functional: PBEC(Automatically generated (new) PBEC)                          Gradient terms: 1
 Use grid at  1800.2
 

 Exact exchange will be calculated, factor:  0.2500

 Functional: PBEX                      Factor:  0.7500
 Functional: PBEC                      Factor:  1.0000
 
 Generated new metagrid on record  1800.2 with target accuracy 1.0D-06 and 4109 points in CPU time    0.0
 Computed new grid on record 1800.1 in CPU time    0.0
  133744 words reserved for DFT integration

 PROGRAM * RKS-SCF (Restricted open shell Kohn-Sham)     Authors: W. Meyer, H.-J. Werner, P.J. Knowles, 1993

 NUMBER OF ELECTRONS:      24+   23-    SPACE SYMMETRY=1    SPIN SYMMETRY: Doublet 
 CONVERGENCE THRESHOLDS:    1.00E-05 (Density)    1.00E-06 (Energy)
 MAX. NUMBER OF ITERATIONS:       60
 INTERPOLATION TYPE:            DIIS
 INTERPOLATION STEPS:              2 (START)      1 (STEP)
 LEVEL SHIFTS:                 -0.60 (CLOSED) -0.30 (OPEN) 

 Number of closed-shell orbitals:   23 (  11   5   5   2 )
 Number of open-shell orbitals:      1 (   1   0   0   0 )


 Use fine grid record 1800.2 for energy threshold  1.0D-06
 Orbital guess generated from atomic densities. Full valence occupancy:   13   5   5   2

 Molecular orbital dump at record        2100.2

 ITERATION    DDIFF          GRAD             ENERGY        2-EL.EN.            DIPOLE MOMENTS         DIIS   ORB.
    1      0.000D+00      0.000D+00     -5021.83127879   3521.025408    0.00000    0.00000   -3.65000    0    start
    2      0.000D+00      0.859D-01     -5035.20383489   4454.429438    0.00000    0.00000    1.12663    1    diag,B
    3      0.729D+01      0.178D+00     -5041.21760371   4318.055140    0.00000    0.00000    0.61683    2    diag,B
    4      0.305D-01      0.973D-01     -5044.36917114   4208.326177    0.00000    0.00000    0.02076    3    diag,B
    5      0.234D-01      0.467D-01     -5045.37830820   4136.582514    0.00000    0.00000   -0.46517    4    diag,B
    6      0.155D-01      0.177D-01     -5045.60198266   4088.517455    0.00000    0.00000   -0.79353    5    diag,B
    7      0.118D-01      0.159D-02     -5045.61017502   4083.496587    0.00000    0.00000   -0.79748    6    fixocc
    8      0.559D-02      0.131D-02     -5045.61266221   4083.704794    0.00000    0.00000   -0.72692    7    diag,B
    9      0.236D-02      0.633D-03     -5045.61323345   4084.018056    0.00000    0.00000   -0.69588    8    diag,B
   10      0.959D-03      0.317D-03     -5045.61351719   4084.401452    0.00000    0.00000   -0.65484    9    orth
   11      0.630D-03      0.987D-04     -5045.61364468   4084.485258    0.00000    0.00000   -0.61690    9    diag,B
   12      0.459D-03      0.384D-04     -5045.61365833   4084.421704    0.00000    0.00000   -0.60741    9    diag,B
   13      0.285D-03      0.151D-04     -5045.61366060   4084.386291    0.00000    0.00000   -0.60338    9    diag,B
   14      0.974D-04      0.400D-05     -5045.61366074   4084.384062    0.00000    0.00000   -0.60263    9    diag,B
   15      0.579D-04      0.135D-05     -5045.61366075   4084.384176    0.00000    0.00000   -0.60253    9    diag,B
   16      0.190D-04      0.482D-06     -5045.61366076   4084.384200    0.00000    0.00000   -0.60253    9    diag,B
   17      0.116D-04      0.176D-06     -5045.61366076   4084.384116    0.00000    0.00000   -0.60253    9    diag,B
   18      0.295D-05      0.772D-07     -5045.61366076   4084.384188    0.00000    0.00000   -0.60254    0    orth

 Final alpha occupancy:  12   5   5   2
 Final beta  occupancy:  11   5   5   2

 !RKS STATE 1.1 Energy              -5045.613660756243
 Nuclear energy                        19.80647006
 One-electron energy                -6997.92982679
 Two-electron energy                 2042.19209421
 Density functional                  -109.68239823     PBEX=-142.99357253 PBEC=  -2.43721883
 Virial quotient                       -0.88620124
 !RKS STATE 1.1 Dipole moment           0.00000000     0.00000000    -0.60253500
 Dipole moment /Debye                   0.00000000     0.00000000    -1.53139091

 Orbital energies:

         1.1          2.1          3.1          4.1          5.1          6.1          7.1          8.1          9.1         10.1
   -889.925079  -130.800277  -117.268532   -23.995303   -19.519817   -12.371934   -12.357319    -3.414483    -2.140193    -0.425557

        11.1         12.1         13.1         14.1
     -0.263530    -0.213945    -0.043098     0.011871

         1.2          2.2          3.2          4.2          5.2          6.2          7.2
   -117.261736   -19.502267   -12.368204    -2.100632    -0.291188    -0.011418     0.039086

         1.3          2.3          3.3          4.3          5.3          6.3          7.3
   -117.261736   -19.502267   -12.368204    -2.100632    -0.291188    -0.011418     0.039086

         1.4          2.4          3.4          4.4
    -12.357320    -0.263530     0.068984     0.261851

 HOMO     12.1    -0.213945 =      -5.8217eV
 LUMO     13.1    -0.043098 =      -1.1727eV
 LUMO-HOMO         0.170847 =       4.6490eV


 **********************************************************************************************************************************
 DATASETS  * FILE   NREC   LENGTH (MB)   RECORD NAMES
              1      23       20.70       500      610      700      900      950      970     1000      129      960     1700   
                                          VAR    BASINP    GEOM    SYMINP    ZMAT    AOBASIS   BASIS     P2S    ABASIS    OPER   
                                         1101     1401     1411     1412     1650     1100     1400     1410     1200     1210   
                                          SR      EKINR    POTR     PVPR    MOLCAS      S      EKIN      POT      H0       H01  
                                         1080     1600     1800   
                                         AOSYM     SMH     GRID   

              2       5        3.01       700     1000      520     1800     2100   
                                         GEOM     BASIS   MCVARS    GRID      RKS  

 PROGRAMS   *        TOTAL       RKS       INT
 CPU TIMES  *        20.84      0.75     19.75
 REAL TIME  *        37.24 SEC
 DISK USED  *       842.04 MB      
 SF USED    *         0.03 MB      
 GA USED    *         0.20 MB       (max)       0.20 MB       (current)
 **********************************************************************************************************************************


 PROGRAM * RHF-SCF (OPEN SHELL)       Authors: W. Meyer, H.-J. Werner


 NUMBER OF ELECTRONS:      24+   23-    SPACE SYMMETRY=1    SPIN SYMMETRY: Doublet 
 CONVERGENCE THRESHOLDS:    1.00E-05 (Density)    1.00E-07 (Energy)
 MAX. NUMBER OF ITERATIONS:       60
 INTERPOLATION TYPE:            DIIS
 INTERPOLATION STEPS:              2 (START)      1 (STEP)
 LEVEL SHIFTS:                 -0.60 (CLOSED) -0.30 (OPEN) 

 Number of closed-shell orbitals:   23 (  11   5   5   2 )
 Number of open-shell orbitals:      1 (   1   0   0   0 )


 Molecular orbitals read from record     2100.2  Type=RKS/CANONICAL (state 1.1)

 Molecular orbital dump at record        2101.2

 ITERATION    DDIFF          GRAD             ENERGY        2-EL.EN.            DIPOLE MOMENTS         DIIS   ORB.
    1      0.000D+00      0.000D+00     -5043.32797910   3869.590755    0.00000    0.00000   -0.60254    0    start
    2      0.000D+00      0.131D-01     -5043.34307650   3869.854934    0.00000    0.00000   -0.67864    1    diag,B
    3      0.827D-02      0.119D-02     -5043.34449694   3870.478103    0.00000    0.00000   -0.72556    2    diag,B
    4      0.127D-02      0.428D-03     -5043.34504027   3870.240923    0.00000    0.00000   -0.77291    3    diag,B
    5      0.694D-03      0.227D-03     -5043.34524212   3870.510446    0.00000    0.00000   -0.80149    4    diag,B
    6      0.423D-03      0.131D-03     -5043.34532497   3870.390141    0.00000    0.00000   -0.82597    5    diag,B
    7      0.286D-03      0.584D-04     -5043.34535238   3870.394698    0.00000    0.00000   -0.84170    6    diag,B
    8      0.177D-03      0.254D-04     -5043.34535931   3870.401477    0.00000    0.00000   -0.84723    7    orth
    9      0.107D-03      0.147D-04     -5043.34536311   3870.407603    0.00000    0.00000   -0.85153    8    diag,B
   10      0.102D-03      0.737D-05     -5043.34536396   3870.412946    0.00000    0.00000   -0.85339    9    diag,B
   11      0.265D-04      0.446D-05     -5043.34536435   3870.420248    0.00000    0.00000   -0.85483    9    diag,B
   12      0.296D-04      0.235D-05     -5043.34536444   3870.422634    0.00000    0.00000   -0.85559    9    diag,B
   13      0.125D-04      0.128D-05     -5043.34536447   3870.424511    0.00000    0.00000   -0.85607    9    diag,B
   14      0.116D-04      0.627D-06     -5043.34536448   3870.425179    0.00000    0.00000   -0.85636    9    diag,B
   15      0.671D-05      0.255D-06     -5043.34536448   3870.425496    0.00000    0.00000   -0.85635    0    orth

 Final alpha occupancy:  12   5   5   2
 Final beta  occupancy:  11   5   5   2

 !RHF STATE 1.1 Energy              -5043.345364475552
 Nuclear energy                        19.80647006
 One-electron energy                -6998.36458256
 Two-electron energy                 1935.21274803
 Virial quotient                       -0.88557262
 !RHF STATE 1.1 Dipole moment           0.00000000     0.00000000    -0.85635427
 Dipole moment /Debye                   0.00000000     0.00000000    -2.17649288

 Orbital energies:

         1.1          2.1          3.1          4.1          5.1          6.1          7.1          8.1          9.1         10.1
   -899.538546  -134.497293  -120.391296   -25.651129   -20.896669   -13.309273   -13.304966    -3.960319    -2.533924    -0.543556

        11.1         12.1         13.1         14.1
     -0.414155    -0.284899     0.013139     0.027021

         1.2          2.2          3.2          4.2          5.2          6.2          7.2
   -120.386025   -20.878641   -13.316908    -2.505729    -0.446159     0.023624     0.078015

         1.3          2.3          3.3          4.3          5.3          6.3          7.3
   -120.386025   -20.878641   -13.316908    -2.505729    -0.446159     0.023624     0.078015

         1.4          2.4          3.4          4.4
    -13.304966    -0.414155     0.099818     0.336477

 HOMO     12.1    -0.284899 =      -7.7525eV
 LUMO     13.1     0.013139 =       0.3575eV
 LUMO-HOMO         0.298037 =       8.1100eV


 **********************************************************************************************************************************
 DATASETS  * FILE   NREC   LENGTH (MB)   RECORD NAMES
              1      23       20.70       500      610      700      900      950      970     1000      129      960     1700   
                                          VAR    BASINP    GEOM    SYMINP    ZMAT    AOBASIS   BASIS     P2S    ABASIS    OPER   
                                         1101     1401     1411     1412     1650     1100     1400     1410     1200     1210   
                                          SR      EKINR    POTR     PVPR    MOLCAS      S      EKIN      POT      H0       H01  
                                         1080     1600     1800   
                                         AOSYM     SMH     GRID   

              2       6        5.80       700     1000      520     1800     2100     2101   
                                         GEOM     BASIS   MCVARS    GRID      RKS      RHF  

 PROGRAMS   *        TOTAL       RHF       RKS       INT
 CPU TIMES  *        22.62      1.78      0.75     19.75
 REAL TIME  *        40.90 SEC
 DISK USED  *       906.29 MB      
 SF USED    *         0.03 MB      
 GA USED    *         0.20 MB       (max)       0.20 MB       (current)
 **********************************************************************************************************************************
 SETTING BASIS          =    USERDEF


 Recomputing integrals since basis changed


 Using spherical harmonics



 PROGRAM * SEWARD (Integral evaluation for generally contracted gaussian basis sets)     Author: Roland Lindh, 1990

 Geometry written to block  1 of record 700


 Point group  C2v 



 ATOMIC COORDINATES

 NR  ATOM    CHARGE       X              Y              Z

   1  PD     46.00    0.000000000    0.000000000    0.000000000
   2  H       1.00    0.000000000    0.000000000    2.322473407

 Bond lengths in Bohr (Angstrom)

 1-2  2.322473407
     ( 1.229000000)

 NUCLEAR CHARGE:                   47
 NUMBER OF PRIMITIVE AOS:         312
 NUMBER OF SYMMETRY AOS:          263
 NUMBER OF CONTRACTIONS:          263   ( 116A1  +  59B1  +  59B2  +  29A2  )
 NUMBER OF CORE ORBITALS:          18   (   9A1  +   4B1  +   4B2  +   1A2  )
 NUMBER OF VALENCE ORBITALS:        7   (   4A1  +   1B1  +   1B2  +   1A2  )


 NUCLEAR REPULSION ENERGY   19.80647006

 One-electron integrals computed with SEWARD

 10nd-order Douglas-Kroll-Hess method activated. McWeeny DKH parametrization is used.

 Computing Douglas-Kroll / X2C integrals

 AO integral compression algorithm  1   Integral accuracy      1.0D-12

     516.686 MB (compressed) written to integral file ( 37.7%)

     Node minimum: 4.719 MB, node maximum: 54.264 MB


 NUMBER OF SORTED TWO-ELECTRON INTEGRALS:    6738189.     BUFFER LENGTH:  32768
 NUMBER OF SEGMENTS:   1  SEGMENT LENGTH:    6738189      RECORD LENGTH: 524288

 Memory used in sort:       7.30 MW

 SORT1 READ   171363336. AND WROTE     2798069. INTEGRALS IN      9 RECORDS. CPU TIME:     8.91 SEC, REAL TIME:    11.06 SEC
 SORT2 READ    65953706. AND WROTE   156329493. INTEGRALS IN   2024 RECORDS. CPU TIME:     0.25 SEC, REAL TIME:     0.61 SEC

 Node minimum:     6738189.  Node maximum:     6815662. integrals

 OPERATOR DM      FOR CENTER  0  COORDINATES:    0.000000    0.000000    0.000000

 EXTRA SYMMETRY OF AOS IN SYMMETRY 1:   1 1 1 1 1 1 1 1 1 1   1 1 1 1 1 1 1 1 1 1   1 1 1 1 1 1 1 1 1 1   1 1 1 1 1 1 1 1 1 1
                                        1 1 1 1 1 1 1 1 1 1   1 1 1 2 1 2 1 2 1 2   1 2 1 2 1 2 1 2 1 2   1 2 1 2 1 2 1 2 1 2
                                        1 2 1 2 1 2 1 2 1 2   1 2 1 2 1 3 2 1 3 2   1 3 2 1 1 1 1 1 1 1   1 1 1 2 1 2
 EXTRA SYMMETRY OF AOS IN SYMMETRY 2:   1 1 1 1 1 1 1 1 1 1   1 1 1 1 1 1 1 1 1 1   1 1 1 1 1 1 1 1 1 1   1 1 1 1 1 1 1 1 1 1
                                        1 2 1 2 1 2 1 2 1 2   1 2 1 2 1 1 1 1 1
 EXTRA SYMMETRY OF AOS IN SYMMETRY 3:   1 1 1 1 1 1 1 1 1 1   1 1 1 1 1 1 1 1 1 1   1 1 1 1 1 1 1 1 1 1   1 1 1 1 1 1 1 1 1 1
                                        1 2 1 2 1 2 1 2 1 2   1 2 1 2 1 1 1 1 1
 EXTRA SYMMETRY OF AOS IN SYMMETRY 4:   1 1 1 1 1 1 1 1 1 1   1 1 1 1 1 1 1 1 1 1   1 1 2 1 2 1 2 1 1

 Eigenvalues of metric

         1 0.897E-06 0.184E-05 0.886E-05 0.951E-05 0.240E-04 0.489E-04 0.112E-03 0.224E-03
         2 0.982E-06 0.933E-05 0.299E-03 0.471E-03 0.163E-02 0.297E-02 0.406E-02 0.667E-02
         3 0.982E-06 0.933E-05 0.299E-03 0.471E-03 0.163E-02 0.297E-02 0.406E-02 0.667E-02
         4 0.951E-05 0.307E-03 0.302E-02 0.107E-01 0.284E-01 0.519E-01 0.779E-01 0.105E+00


 **********************************************************************************************************************************
 DATASETS  * FILE   NREC   LENGTH (MB)   RECORD NAMES
              1      22       21.38       500      610      700      900      950      970     1001      129      960     1700   
                                          VAR    BASINP    GEOM    SYMINP    ZMAT    AOBASIS   BASIS     P2S    ABASIS    OPER   
                                         1101     1401     1411     1412     1650     1100     1400     1410     1200     1210   
                                          SR      EKINR    POTR     PVPR    MOLCAS      S      EKIN      POT      H0       H01  
                                         1080     1600   
                                         AOSYM     SMH  

              2       7        5.94       700     1000      520     1800     2100     2101     1001   
                                         GEOM     BASIS   MCVARS    GRID      RKS      RHF     BASIS   

 PROGRAMS   *        TOTAL       INT       RHF       RKS       INT
 CPU TIMES  *        49.83     27.12      1.78      0.75     19.75
 REAL TIME  *        72.30 SEC
 DISK USED  *         1.99 GB      
 SF USED    *         0.03 MB      
 GA USED    *         0.20 MB       (max)       0.00 MB       (current)
 **********************************************************************************************************************************


 PROGRAM * RHF-SCF (OPEN SHELL)       Authors: W. Meyer, H.-J. Werner


 NUMBER OF ELECTRONS:      24+   23-    SPACE SYMMETRY=1    SPIN SYMMETRY: Doublet 
 CONVERGENCE THRESHOLDS:    1.00E-05 (Density)    1.00E-07 (Energy)
 MAX. NUMBER OF ITERATIONS:       60
 INTERPOLATION TYPE:            DIIS
 INTERPOLATION STEPS:              2 (START)      1 (STEP)
 LEVEL SHIFTS:                 -0.60 (CLOSED) -0.30 (OPEN) 

 Number of closed-shell orbitals:   23 (  11   5   5   2 )
 Number of open-shell orbitals:      1 (   1   0   0   0 )


 Molecular orbitals read from record     2101.2  Type=RHF/CANONICAL (state 1.1)
 
 Present basis size:     116  59  59  29
 Previous basis size:     65  37  37  20
 Previous occupation:     12   5   5   2
 Previous closed-shells:  11   5   5   2
 Previous core-orbitals:   9   4   4   1
 Present occupation:      12   5   5   2
 Present closed-shells:   11   5   5   2
 Present core-orbitals:    9   4   4   1
 Wavefunction symmetry:    1   Doublet 

 Orbital overlap <old|new>:  < 1.1| 1.1> = 1.000000   < 2.1| 2.1> = 1.000000   < 3.1| 3.1> = 1.000000   < 4.1| 4.1> = 1.000000
                             < 5.1| 5.1> = 1.000000   < 6.1| 6.1> = 1.000000   < 7.1| 7.1> = 1.000000   < 8.1| 8.1> = 1.000000
                             < 9.1| 9.1> = 1.000000   < 1.2| 1.2> = 1.000000   < 2.2| 2.2> = 1.000000   < 3.2| 3.2> = 1.000000
                             < 4.2| 4.2> = 1.000000   < 1.3| 1.3> = 1.000000   < 2.3| 2.3> = 1.000000   < 3.3| 3.3> = 1.000000
                             < 4.3| 4.3> = 1.000000   < 1.4| 1.4> = 1.000000   <10.1|10.1> = 1.000000   <11.1|11.1> = 1.000000
                             < 5.2| 5.2> = 1.000000   < 5.3| 5.3> = 1.000000   < 2.4| 2.4> = 1.000000   <12.1|12.1> = 1.000000

 Molecular orbital dump at record        2102.2

 ITERATION    DDIFF          GRAD             ENERGY        2-EL.EN.            DIPOLE MOMENTS         DIIS   ORB.
    1      0.000D+00      0.000D+00     -5043.34536366   3870.425495    0.00000    0.00000   -0.85635    0    start
    2      0.000D+00      0.669D-01     -5043.34591582   3870.470496    0.00000    0.00000   -0.85638    1    diag,B
    3      0.504D-02      0.104D-03     -5043.34591658   3870.461302    0.00000    0.00000   -0.85645    2    diag,B
    4      0.444D-03      0.712D-05     -5043.34591663   3870.466005    0.00000    0.00000   -0.85647    3    diag,B
    5      0.151D-03      0.217D-05     -5043.34591664   3870.463682    0.00000    0.00000   -0.85650    4    diag,B
    6      0.679D-04      0.907D-06     -5043.34591665   3870.465011    0.00000    0.00000   -0.85651    5    diag,B
    7      0.391D-04      0.315D-06     -5043.34591665   3870.464627    0.00000    0.00000   -0.85652    6    diag,B
    8      0.165D-04      0.101D-06     -5043.34591665   3870.464818    0.00000    0.00000   -0.85653    7    orth
    9      0.413D-05      0.445D-07     -5043.34591665   3870.464779    0.00000    0.00000   -0.85653    0    orth

 Final alpha occupancy:  12   5   5   2
 Final beta  occupancy:  11   5   5   2

 !RHF STATE 1.1 Energy              -5043.345916647149
 Nuclear energy                        19.80647006
 One-electron energy                -6998.38477644
 Two-electron energy                 1935.23238973
 Virial quotient                       -0.88514767
 !RHF STATE 1.1 Dipole moment           0.00000000     0.00000000    -0.85653237
 Dipole moment /Debye                   0.00000000     0.00000000    -2.17694554

 Orbital energies:

         1.1          2.1          3.1          4.1          5.1          6.1          7.1          8.1          9.1         10.1
   -899.531995  -134.496914  -120.390346   -25.651143   -20.896572   -13.309306   -13.305034    -3.960327    -2.533923    -0.543604

        11.1         12.1         13.1         14.1
     -0.414164    -0.284909     0.013125     0.026833

         1.2          2.2          3.2          4.2          5.2          6.2          7.2
   -120.385103   -20.878561   -13.316952    -2.505720    -0.446167     0.023609     0.077917

         1.3          2.3          3.3          4.3          5.3          6.3          7.3
   -120.385103   -20.878561   -13.316952    -2.505720    -0.446167     0.023609     0.077917

         1.4          2.4          3.4          4.4
    -13.305034    -0.414164     0.099007     0.328380

 HOMO     12.1    -0.284909 =      -7.7528eV
 LUMO     13.1     0.013125 =       0.3572eV
 LUMO-HOMO         0.298034 =       8.1099eV


 **********************************************************************************************************************************
 DATASETS  * FILE   NREC   LENGTH (MB)   RECORD NAMES
              1      22       21.38       500      610      700      900      950      970     1001      129      960     1700   
                                          VAR    BASINP    GEOM    SYMINP    ZMAT    AOBASIS   BASIS     P2S    ABASIS    OPER   
                                         1101     1401     1411     1412     1650     1100     1400     1410     1200     1210   
                                          SR      EKINR    POTR     PVPR    MOLCAS      S      EKIN      POT      H0       H01  
                                         1080     1600   
                                         AOSYM     SMH  

              2       8        9.03       700     1000      520     1800     2100     2101     1001     2102   
                                         GEOM     BASIS   MCVARS    GRID      RKS      RHF     BASIS     RHF  

 PROGRAMS   *        TOTAL       RHF       INT       RHF       RKS       INT
 CPU TIMES  *        50.69      0.86     27.12      1.78      0.75     19.75
 REAL TIME  *        74.53 SEC
 DISK USED  *         2.12 GB      
 SF USED    *         0.09 MB      
 GA USED    *         0.20 MB       (max)       0.00 MB       (current)
 **********************************************************************************************************************************
 SETTING E_PD           =     -5044.36637900                                  
 SETTING E_H            =        -0.49982785                                  
 SETTING SCF            =     -5043.34591665  AU                              
 SETTING _CC_NORM_MAX   =         2.00000000                                  


 PROGRAM * CCSD (Restricted open-shell coupled cluster)     Authors: C. Hampel, H.-J. Werner, 1991, M. Deegan, P.J. Knowles, 1992


 Convergence thresholds:  THRVAR = 1.00D-08  THRDEN = 1.00D-06

 CCSD(T)     terms to be evaluated (factor= 1.000)


 Number of closed-shell orbitals:  23 (  11   5   5   2 )
 Number of active  orbitals:        1 (   1   0   0   0 )
 Number of external orbitals:     239 ( 104  54  54  27 )

 Memory could be reduced to 156.26 Mwords without degradation in triples

 Number of N-1 electron functions:              47
 Number of N-2 electron functions:            1081
 Number of singly external CSFs:              3603
 Number of doubly external CSFs:          12114663
 Total number of CSFs:                    12118266

 Molecular orbitals read from record     2102.2  Type=RHF/CANONICAL (state 1.1)

 Integral transformation finished. Total CPU:  12.39 sec, npass=  1  Memory used:  16.31 MW

 Starting RMP2 calculation

 Wavefunction is spin-projected

 ITER.      SQ.NORM     CORR.ENERGY   TOTAL ENERGY   ENERGY CHANGE        DEN1      VAR(S)    VAR(P)  DIIS     TIME
   1      1.16439495    -1.62416145 -5044.97007810    -1.62416145    -0.00132085  0.82D-05  0.50D-03  1  1    17.53
   2      1.16556729    -1.62554981 -5044.97146645    -0.00138835    -0.00000354  0.21D-06  0.21D-05  2  2    21.82
   3      1.16563215    -1.62559120 -5044.97150785    -0.00004139    -0.00000002  0.64D-08  0.90D-08  3  3    25.89
   4      1.16563398    -1.62559148 -5044.97150813    -0.00000029    -0.00000000  0.19D-09  0.40D-10  4  4    31.56

 Norm of t1 vector:      0.02478015      S-energy:    -0.00122410      T1 diagnostic:  0.00020687
 Norm of t2 vector:      0.40622645      P-energy:    -1.62436738
                                         Alpha-Beta:  -1.09257660
                                         Alpha-Alpha: -0.27603325
                                         Beta-Beta:   -0.25575752

 Spin contamination <S**2-Sz**2-Sz>     0.00000000
  Reference energy                  -5043.345916647153
  RHF-RMP2 correlation energy          -1.625591484765
 !RHF-RMP2 energy                   -5044.971508131918
 (NB above energy spin projected)

 Starting RCCSD calculation

 ITER.      SQ.NORM     CORR.ENERGY   TOTAL ENERGY   ENERGY CHANGE        DEN1      VAR(S)    VAR(P)  DIIS     TIME
   1      1.12925395    -1.50646319 -5044.85237983    -1.50646319    -0.03213894  0.37D-02  0.46D-02  0  0    58.61
   2      1.14303347    -1.53638355 -5044.88230020    -0.02992037    -0.00229972  0.27D-03  0.63D-03  1  1    85.94
   3      1.14433061    -1.53279813 -5044.87871477     0.00358543    -0.00030501  0.25D-03  0.45D-04  2  2   112.39
   4      1.14752748    -1.53390246 -5044.87981911    -0.00110434    -0.00008475  0.83D-04  0.12D-04  3  3   138.04
   5      1.15064291    -1.53458909 -5044.88050573    -0.00068662    -0.00001865  0.23D-04  0.20D-05  4  4   163.49
   6      1.15217035    -1.53467730 -5044.88059395    -0.00008821    -0.00000440  0.62D-05  0.38D-06  5  5   188.98
   7      1.15302615    -1.53472254 -5044.88063919    -0.00004524    -0.00000108  0.14D-05  0.11D-06  6  6   216.18
   8      1.15327240    -1.53472492 -5044.88064157    -0.00000238    -0.00000021  0.20D-06  0.35D-07  6  1   241.78
   9      1.15341617    -1.53473395 -5044.88065060    -0.00000903    -0.00000003  0.19D-07  0.54D-08  6  2   265.73
  10      1.15343687    -1.53473677 -5044.88065342    -0.00000282    -0.00000001  0.50D-08  0.86D-09  6  4   289.68
  11      1.15343878    -1.53473554 -5044.88065218     0.00000124    -0.00000000  0.11D-08  0.25D-09  6  3   318.11
  12      1.15344095    -1.53473551 -5044.88065216     0.00000002    -0.00000000  0.22D-09  0.37D-10  6  5   344.32

 Norm of t1 vector:      0.11650997      S-energy:    -0.00116473      T1 diagnostic:  0.01174856
                                                                       D1 diagnostic:  0.05631119
 Norm of t2 vector:      0.37398714      P-energy:    -1.53357078
                                         Alpha-Beta:  -1.05925677
                                         Alpha-Alpha: -0.24574953
                                         Beta-Beta:   -0.22856448

 Spin contamination <S**2-Sz**2-Sz>     0.00000000

 Memory could be reduced to 172.83 Mwords without degradation in triples
 

  Correlated core orbitals:             1.1       2.1       3.1       4.1       5.1       6.1       7.1       8.1       9.1       1.2
                                        2.2       3.2       4.2       1.3       2.3       3.3       4.3       1.4
  Orbital energies:                  -899.5327 -134.4992 -120.3930  -25.6533  -20.9007  -13.3188  -13.3054   -3.9738   -2.5585 -120.3867
                                      -20.8790  -13.3184   -2.5143 -120.3867  -20.8790  -13.3184   -2.5143  -13.3054
 
  RCCSD core-core energy               -0.839793831926
  RCCSD core-valence energy            -0.317576041113
  RCCSD valence correlation energy     -0.377365641141
 

 RESULTS
 =======

  Reference energy                  -5043.345916647153
  RCCSD singles energy                 -0.001164730402
  RCCSD pair energy                    -1.533570783778
  RCCSD correlation energy             -1.534735514180
  Triples (T) contribution             -0.034745460144
  Total correlation energy             -1.569480974324
 
  RHF-RCCSD energy                  -5044.880652161332
  RHF-RCCSD[T] energy               -5044.916785902084
  RHF-RCCSD-T energy                -5044.915143681522
 !RHF-RCCSD(T) energy               -5044.915397621477

 Program statistics:

 Available memory in ccsd:               511995052
 Min. memory needed in ccsd:              33536188
 Max. memory used in ccsd:                49128406
 Max. memory used in cckext:              40408815 (12 integral passes)
 Max. memory used in cckint:              16314950 ( 1 integral passes)



 **********************************************************************************************************************************
 DATASETS  * FILE   NREC   LENGTH (MB)   RECORD NAMES
              1      22       21.38       500      610      700      900      950      970     1001      129      960     1700   
                                          VAR    BASINP    GEOM    SYMINP    ZMAT    AOBASIS   BASIS     P2S    ABASIS    OPER   
                                         1101     1401     1411     1412     1650     1100     1400     1410     1200     1210   
                                          SR      EKINR    POTR     PVPR    MOLCAS      S      EKIN      POT      H0       H01  
                                         1080     1600   
                                         AOSYM     SMH  

              2       8        9.03       700     1000      520     1800     2100     2101     1001     2102   
                                         GEOM     BASIS   MCVARS    GRID      RKS      RHF     BASIS     RHF  

 PROGRAMS   *        TOTAL  RCCSD(T)       RHF       INT       RHF       RKS       INT
 CPU TIMES  *       660.02    609.22      0.86     27.12      1.78      0.75     19.75
 REAL TIME  *      1073.83 SEC
 DISK USED  *        37.49 GB      
 SF USED    *         3.36 GB      
 GA USED    *         0.20 MB       (max)       0.00 MB       (current)
 **********************************************************************************************************************************
 SETTING CCSD           =     -5044.91539762  AU                              
 SETTING BE             =        -0.04919077  AU                              
 Output type csv         
                                                                                                                                                                                                                                                                

         SCF,CCSD,BE
   -5043.345917,   -5044.915398,   -0.04919077
                                                  

 RCCSD(T)/USERDEF energy=  -5044.915397621477

        RCCSD(T)        RHF-SCF         RHF-SCF         RKS-SCF 
  -5044.91539762  -5043.34591665  -5043.34536448  -5045.61366076
 **********************************************************************************************************************************
 Molpro calculation terminated
 Variable memory released
