
 Primary working directories    : /global/cscratch1/sd/mcbennet
 Secondary working directories  : /global/cscratch1/sd/mcbennet
 Wavefunction directory         : /global/homes/m/mcbennet/wfu/
 Main file repository           : /global/cscratch1/sd/mcbennet/

 SHA1      : 19cd028119e0e09f93f0674bd8af7968d9b3eff6
 NAME      : 2015.1.36
 ARCHNAME  : linux/x86_64
 FC        : /opt/cray/pe/craype/2.5.14/bin/ftn
 BLASLIB   : -L/opt/intel/compilers_and_libraries_2018.1.163/linux/mkl/lib/intel64 -Wl,-_start-group -lmkl_intel_ilp64 -lmkl_intel_thread -lmkl_core -Wl,-_end-group -liomp5
 id        : lbl

 Nodes     nprocs
 nid00765    15
 Number of processes for MPI-2 version of Molpro:   nprocs(total)=   16   nprocs(compute)=   15   nprocs(helper)=    1

 Using customized tuning parameters: mindgm=7; mindgv=16; mindgc=1; mindgr=1; noblas=0; minvec=7
 default implementation of scratch files=sf  

 ***,Calculation for Te atom
 memory,512,m
 GTHRESH,THROVL=1.0D-9
 geometry={
 1
 Te
 Te  0.0 0.0 0.0
 }
 
 basis={
 Including file /global/cscratch1/sd/mcbennet/Repos/Heavy_PPs/Te/01_SRL/01_All_Electron/02_DKH_UC/molpro/atoms/aug-cc-pwcvqz-dk3_unc_mod/aug-cc-pwcvqz-dk3.1.unc.mod.mpro
 }
 
 set,dkroll=1,dkho=10,dkhp=4
 
 Including file /global/cscratch1/sd/mcbennet/Repos/Heavy_PPs/Te/01_SRL/01_All_Electron/02_DKH_UC/molpro/atoms/aug-cc-pwcvqz-dk3_unc_mod/states.proc
 
 do i=1,10
 if (i.eq.1) then
     Is25p4
 else if (i.eq.2) then
     Is25p36s
 else if (i.eq.3) then
     Os2p5
 else if (i.eq.4) then
     IIs25p3
 else if (i.eq.5) then
     Is15p4
 else if (i.eq.6) then
     IIs15p35d1
 else if (i.eq.7) then
     IIIs25p2
 else if (i.eq.8) then
     IVs25p1
 else if (i.eq.9) then
     Vs2
 else if (i.eq.10) then
     IVs25d1
 endif
     scf(i)=energy
     _CC_NORM_MAX=2.0
     {rccsd(t),maxit=100}
     ccsd(i)=energy
 enddo
 
 table,scf,ccsd
 type,csv
 save

 Variables initialized (889), CPU time= 0.01 sec
 Commands  initialized (702), CPU time= 0.02 sec, 572 directives.
 Default parameters read. Elapsed time= 0.14 sec

 Checking input...
 Passed
1


                                         ***  PROGRAM SYSTEM MOLPRO  ***
                                       Copyright, TTI GmbH Stuttgart, 2015
                                    Version 2015.1 linked Dec 29 2018 15:55:43


 **********************************************************************************************************************************
 LABEL *   Calculation for Te atom                                                       
  64 bit mpp version                                                                     DATE: 21-May-21          TIME: 13:52:29  
 **********************************************************************************************************************************

 SHA1:             19cd028119e0e09f93f0674bd8af7968d9b3eff6
 **********************************************************************************************************************************

 THRESHOLDS:

 ZERO    =  1.00D-12  ONEINT  =  1.00D-12  TWOINT  =  1.00D-11  PREFAC  =  1.00D-14  LOCALI  =  1.00D-09  EORDER  =  1.00D-04
 ENERGY  =  0.00D+00  ETEST   =  0.00D+00  EDENS   =  0.00D+00  THRDEDEF=  1.00D-06  GRADIENT=  1.00D-02  STEP    =  1.00D-03
 ORBITAL =  1.00D-05  CIVEC   =  1.00D-05  COEFF   =  1.00D-04  PRINTCI =  5.00D-02  PUNCHCI =  9.90D+01  OPTGRAD =  3.00D-04
 OPTENERG=  1.00D-06  OPTSTEP =  3.00D-04  THRGRAD =  1.00D-10  COMPRESS=  1.00D-11  VARMIN  =  1.00D-07  VARMAX  =  1.00D-03
 THRDOUB =  0.00D+00  THRDIV  =  1.00D-05  THRRED  =  1.00D-07  THRPSP  =  1.00D+00  THRDC   =  1.00D-10  THRCS   =  1.00D-10
 THRNRM  =  1.00D-08  THREQ   =  0.00D+00  THRDE   =  1.00D+00  THRREF  =  1.00D-05  SPARFAC =  1.00D+00  THRDLP  =  1.00D-07
 THRDIA  =  1.00D-10  THRDLS  =  1.00D-07  THRGPS  =  0.00D+00  THRKEX  =  0.00D+00  THRDIS  =  2.00D-01  THRVAR  =  1.00D-10
 THRLOC  =  1.00D-06  THRGAP  =  1.00D-06  THRLOCT = -1.00D+00  THRGAPT = -1.00D+00  THRORB  =  1.00D-06  THRMLTP =  0.00D+00
 THRCPQCI=  1.00D-10  KEXTA   =  0.00D+00  THRCOARS=  0.00D+00  SYMTOL  =  1.00D-06  GRADTOL =  1.00D-06  THROVL  =  1.00D-09
 THRORTH =  1.00D-08  GRID    =  1.00D-06  GRIDMAX =  1.00D-03  DTMAX   =  0.00D+00  THROCCDE=  1.00D-01  THROCCDE=  1.00D-01



Geometry recognized as XYZ


 Variable memory set to  512000000 words,  buffer space   230000 words

 SETTING BASIS          =    USERDEF
 SETTING DKROLL         =         1.00000000                                  
 SETTING DKHO           =        10.00000000                                  
 SETTING DKHP           =         4.00000000                                  

 DO I                   =         1.00000000   

 Running procedure=IS25P4


 Recomputing integrals since basis changed


 Using spherical harmonics



 PROGRAM * SEWARD (Integral evaluation for generally contracted gaussian basis sets)     Author: Roland Lindh, 1990

 Geometry written to block  1 of record 700

 Orientation using atomic masses  
 Molecule type: Atom
 Symmetry elements: X,Y,Z
 Rotational constants:       0.0000000      0.0000000      0.0000000 GHz  (calculated with average atomic masses)

 Point group  D2h 



 ATOMIC COORDINATES

 NR  ATOM    CHARGE       X              Y              Z

   1  TE     52.00    0.000000000    0.000000000    0.000000000

 NUCLEAR CHARGE:                   52
 NUMBER OF PRIMITIVE AOS:         362
 NUMBER OF SYMMETRY AOS:          291
 NUMBER OF CONTRACTIONS:          291   (  82Ag  +  40B3u +  40B2u +  27B1g +  40B1u +  27B2g +  27B3g +   8Au  )
 NUMBER OF CORE ORBITALS:          23   (   8Ag  +   3B3u +   3B2u +   2B1g +   3B1u +   2B2g +   2B3g +   0Au  )
 NUMBER OF VALENCE ORBITALS:        4   (   1Ag  +   1B3u +   1B2u +   0B1g +   1B1u +   0B2g +   0B3g +   0Au  )


 NUCLEAR REPULSION ENERGY    0.00000000

 One-electron integrals computed with SEWARD

 10nd-order Douglas-Kroll-Hess method activated. McWeeny DKH parametrization is used.

 Computing Douglas-Kroll / X2C integrals

 AO integral compression algorithm  1   Integral accuracy      1.0D-11

     474.743 MB (compressed) written to integral file ( 28.2%)

     Node minimum: 11.534 MB, node maximum: 63.177 MB


 NUMBER OF SORTED TWO-ELECTRON INTEGRALS:    7809963.     BUFFER LENGTH:  32768
 NUMBER OF SEGMENTS:   1  SEGMENT LENGTH:    7809963      RECORD LENGTH: 524288

 Memory used in sort:       8.37 MW

 SORT1 READ   210339881. AND WROTE     3934529. INTEGRALS IN     12 RECORDS. CPU TIME:     4.32 SEC, REAL TIME:     4.49 SEC
 SORT2 READ    58135890. AND WROTE   117403651. INTEGRALS IN   1590 RECORDS. CPU TIME:     0.20 SEC, REAL TIME:     0.44 SEC

 Node minimum:     7757214.  Node maximum:     7925223. integrals

 OPERATOR DM      FOR CENTER  0  COORDINATES:    0.000000    0.000000    0.000000

 EXTRA SYMMETRY OF AOS IN SYMMETRY 1:   1 1 1 1 1 1 1 1 1 1   1 1 1 1 1 1 1 1 1 1   1 1 1 1 1 1 1 1 1 1   1 1 2 3 2 3 2 3 2 3
                                        2 3 2 3 2 3 2 3 2 3   2 3 2 3 2 3 2 3 2 3   2 3 2 3 2 3 2 3 2 3   4 5 6 4 5 6 4 5 6 4
                                        5 6
 EXTRA SYMMETRY OF AOS IN SYMMETRY 2:   1 1 1 1 1 1 1 1 1 1   1 1 1 1 1 1 1 1 1 1   1 1 1 1 1 2 3 2 3 2   3 2 3 2 3 2 3 4 5 6
 EXTRA SYMMETRY OF AOS IN SYMMETRY 3:   1 1 1 1 1 1 1 1 1 1   1 1 1 1 1 1 1 1 1 1   1 1 1 1 1 2 3 2 3 2   3 2 3 2 3 2 3 4 5 6
 EXTRA SYMMETRY OF AOS IN SYMMETRY 4:   1 1 1 1 1 1 1 1 1 1   1 1 1 1 1 1 1 1 1 2   3 2 3 2 3 2 3
 EXTRA SYMMETRY OF AOS IN SYMMETRY 5:   1 1 1 1 1 1 1 1 1 1   1 1 1 1 1 1 1 1 1 1   1 1 1 1 1 2 3 2 3 2   3 2 3 2 3 2 3 4 5 6
 EXTRA SYMMETRY OF AOS IN SYMMETRY 6:   1 1 1 1 1 1 1 1 1 1   1 1 1 1 1 1 1 1 1 2   3 2 3 2 3 2 3
 EXTRA SYMMETRY OF AOS IN SYMMETRY 7:   1 1 1 1 1 1 1 1 1 1   1 1 1 1 1 1 1 1 1 2   3 2 3 2 3 2 3
 EXTRA SYMMETRY OF AOS IN SYMMETRY 8:   1 1 1 1 1 1 2 3

 Eigenvalues of metric

         1 0.114E-04 0.590E-04 0.144E-03 0.240E-03 0.402E-03 0.601E-03 0.601E-03 0.714E-03
         2 0.196E-03 0.768E-03 0.199E-02 0.427E-02 0.812E-02 0.141E-01 0.233E-01 0.375E-01
         3 0.196E-03 0.768E-03 0.199E-02 0.427E-02 0.812E-02 0.141E-01 0.233E-01 0.375E-01
         4 0.601E-03 0.214E-02 0.472E-02 0.916E-02 0.188E-01 0.374E-01 0.682E-01 0.117E+00
         5 0.196E-03 0.768E-03 0.199E-02 0.427E-02 0.812E-02 0.141E-01 0.233E-01 0.375E-01
         6 0.601E-03 0.214E-02 0.472E-02 0.916E-02 0.188E-01 0.374E-01 0.682E-01 0.117E+00
         7 0.601E-03 0.214E-02 0.472E-02 0.916E-02 0.188E-01 0.374E-01 0.682E-01 0.117E+00
         8 0.619E-01 0.169E+00 0.446E+00 0.980E+00 0.100E+01 0.100E+01 0.179E+01 0.255E+01


 **********************************************************************************************************************************
 DATASETS  * FILE   NREC   LENGTH (MB)   RECORD NAMES
              1      22       20.92       500      610      700      900      950      970     1000      129      960     1700   
                                          VAR    BASINP    GEOM    SYMINP    ZMAT    AOBASIS   BASIS     P2S    ABASIS    OPER   
                                         1101     1401     1411     1412     1650     1100     1400     1410     1200     1210   
                                          SR      EKINR    POTR     PVPR    MOLCAS      S      EKIN      POT      H0       H01  
                                         1080     1600   
                                         AOSYM     SMH  

 PROGRAMS   *        TOTAL       INT
 CPU TIMES  *        51.70     51.12
 REAL TIME  *        54.27 SEC
 DISK USED  *         1.20 GB      
 GA USED    *         0.00 MB       (max)       0.00 MB       (current)
 **********************************************************************************************************************************


 PROGRAM * RHF-SCF (OPEN SHELL)       Authors: W. Meyer, H.-J. Werner


 NUMBER OF ELECTRONS:      27+   25-    SPACE SYMMETRY=4    SPIN SYMMETRY: Triplet 
 CONVERGENCE THRESHOLDS:    1.00E-05 (Density)    1.04E-07 (Energy)
 MAX. NUMBER OF ITERATIONS:       60
 INTERPOLATION TYPE:            DIIS
 INTERPOLATION STEPS:              2 (START)      1 (STEP)
 LEVEL SHIFTS:                 -0.60 (CLOSED) -0.30 (OPEN) 

 Number of closed-shell orbitals:   25 (   9   3   3   2   4   2   2   0 )
 Number of open-shell orbitals:      2 (   0   1   1   0   0   0   0   0 )


 Orbital guess generated from atomic densities. Full valence occupancy:    9   4   4   2   4   2   2   0


 Molecular orbital dump at record        4202.2

 ITERATION    DDIFF          GRAD             ENERGY        2-EL.EN.            DIPOLE MOMENTS         DIIS   ORB.
    1      0.000D+00      0.000D+00     -6569.72362933   6963.833957    0.00000    0.00000    0.00000    0    start
    2      0.000D+00      0.151D+01     -6541.29305485   3014.710106    0.00000    0.00000    0.00000    1    diag,B
    3      0.764D+00      0.947D+00     -6757.49409583   5768.165202    0.00000    0.00000    0.00000    2    diag,B
    4      0.563D+00      0.345D+00     -6789.37641467   4904.838496    0.00000    0.00000    0.00000    3    diag,B
    5      0.186D+00      0.676D-01     -6790.92058882   5041.031686    0.00000    0.00000    0.00000    4    diag,B
    6      0.164D-01      0.959D-02     -6791.01453033   5061.322805    0.00000    0.00000    0.00000    5    diag,B
    7      0.479D-02      0.523D-02     -6791.03952154   5055.283327    0.00000    0.00000    0.00000    6    fixocc
    8      0.393D-02      0.142D-02     -6791.04850977   5056.977858    0.00000    0.00000    0.00000    7    diag,B
    9      0.373D-02      0.531D-03     -6791.05003881   5057.958290    0.00000    0.00000    0.00000    8    diag,B
   10      0.142D-02      0.213D-03     -6791.05039706   5058.148332    0.00000    0.00000    0.00000    9    orth
   11      0.763D-03      0.723D-04     -6791.05044065   5058.191858    0.00000    0.00000    0.00000    9    diag,B
   12      0.250D-03      0.210D-04     -6791.05044379   5058.214441    0.00000    0.00000    0.00000    9    diag,B
   13      0.108D-03      0.526D-05     -6791.05044394   5058.214518    0.00000    0.00000    0.00000    9    diag,B
   14      0.288D-04      0.234D-05     -6791.05044398   5058.215129    0.00000    0.00000    0.00000    9    diag,B
   15      0.122D-04      0.835D-06     -6791.05044398   5058.214959    0.00000    0.00000    0.00000    9    diag,B
   16      0.558D-05      0.211D-06     -6791.05044398   5058.214905    0.00000    0.00000    0.00000    0    orth

 Final alpha occupancy:   9   4   4   2   4   2   2   0
 Final beta  occupancy:   9   3   3   2   4   2   2   0

 !RHF STATE 1.4 Energy              -6791.050443982156
 Nuclear energy                         0.00000000
 One-electron energy                -9320.15789623
 Two-electron energy                 2529.10745225
 Virial quotient                       -0.85509635
 !RHF STATE 1.4 Dipole moment           0.00000000     0.00000000     0.00000000
 Dipole moment /Debye                   0.00000000     0.00000000     0.00000000

 ELECTRON ORBITALS
 =================


   Orb  Occ    Energy  Couls-En    Coefficients

                                   1 1s      1 1s      1 1s      1 1s      1 1s      1 1s      1 1s      1 1s      1 1s      1 1s   
                                   1 1s      1 1s      1 1s      1 1s      1 1s      1 1s      1 1s      1 1s      1 1s      1 1s   
                                   1 1s      1 1s      1 1s      1 1s      1 1s      1 1s      1 1s      1 1s      1 1s      1 1s   
                                   1 1s      1 1s      1 3d0     1 3d2+    1 3d0     1 3d2+    1 3d0     1 3d2+    1 3d0     1 3d2+ 
                                   1 3d0     1 3d2+    1 3d0     1 3d2+    1 3d0     1 3d2+    1 3d0     1 3d2+    1 3d0     1 3d2+ 
                                   1 3d0     1 3d2+    1 3d0     1 3d2+    1 3d0     1 3d2+    1 3d0     1 3d2+    1 3d0     1 3d2+ 
                                   1 3d0     1 3d2+    1 3d0     1 3d2+    1 3d0     1 3d2+    1 3d0     1 3d2+    1 3d0     1 3d2+ 
                                   1 5g0     1 5g4+    1 5g2+    1 5g0     1 5g4+    1 5g2+    1 5g0     1 5g4+    1 5g2+    1 5g0  
                                   1 5g4+    1 5g2+ 

   1.1   2 -1174.9606-2579.2652  0.000038  0.000101  0.000255  0.000513  0.000948  0.001629  0.002768  0.004698  0.008178  0.014624
                                 0.027015  0.051026  0.096349  0.172240  0.264453  0.295896  0.189248  0.048777  0.003734 -0.000135
                                 0.000310 -0.000320  0.000156 -0.000092  0.000052 -0.000025  0.000018 -0.000012  0.000005 -0.000002
                                 0.000001 -0.000000 -0.000000 -0.000000 -0.000000  0.000000 -0.000000  0.000000 -0.000000 -0.000000
                                 0.000000 -0.000000 -0.000000 -0.000000 -0.000000  0.000000 -0.000000  0.000000 -0.000000  0.000000
                                 0.000000  0.000000  0.000000 -0.000000  0.000000 -0.000000 -0.000000  0.000000 -0.000000  0.000000
                                -0.000000  0.000000 -0.000000  0.000000 -0.000000 -0.000000 -0.000000 -0.000000  0.000000 -0.000000
                                -0.000000 -0.000000 -0.000000 -0.000000  0.000000  0.000000 -0.000000  0.000000 -0.000000  0.000000
                                -0.000000  0.000000

   2.1   2  -183.7583 -535.5573 -0.000013 -0.000035 -0.000088 -0.000178 -0.000328 -0.000566 -0.000964 -0.001643 -0.002878 -0.005194
                                -0.009735 -0.018823 -0.037012 -0.071094 -0.124485 -0.173118 -0.132618  0.093714  0.406808  0.440609
                                 0.199626  0.034343  0.002082  0.000177 -0.000242 -0.000009 -0.000030  0.000020 -0.000006  0.000003
                                -0.000001  0.000000  0.000000  0.000000  0.000000 -0.000000  0.000000  0.000000 -0.000000 -0.000000
                                -0.000000  0.000000 -0.000002 -0.000000 -0.000007  0.000000 -0.000002 -0.000000  0.000000  0.000000
                                -0.000001 -0.000000 -0.000001  0.000000 -0.000001 -0.000000  0.000000  0.000000  0.000000 -0.000000
                                 0.000000  0.000000  0.000000 -0.000000  0.000000  0.000000  0.000000 -0.000000 -0.000000  0.000000
                                 0.000000  0.000000  0.000000  0.000000 -0.000000 -0.000000  0.000000  0.000000  0.000000 -0.000000
                                -0.000000 -0.000000

   3.1   2   -38.1051 -185.3056  0.000006  0.000016  0.000039  0.000079  0.000146  0.000252  0.000430  0.000733  0.001286  0.002324
                                 0.004363  0.008470  0.016745  0.032544  0.058124  0.084000  0.067234 -0.060148 -0.315079 -0.449749
                                -0.199268  0.378012  0.694711  0.292539  0.023266  0.002060 -0.000240  0.000247 -0.000146  0.000053
                                -0.000025  0.000009 -0.000000  0.000000 -0.000000 -0.000000 -0.000000 -0.000000 -0.000001 -0.000000
                                -0.000002 -0.000000 -0.000007  0.000000 -0.000012 -0.000000 -0.000030 -0.000000 -0.000040 -0.000000
                                -0.000113 -0.000000 -0.000054 -0.000000  0.000007  0.000000 -0.000006  0.000000 -0.000008  0.000000
                                -0.000007  0.000000 -0.000002  0.000000 -0.000001  0.000000 -0.000000 -0.000000 -0.000000  0.000000
                                -0.000000 -0.000000 -0.000000 -0.000000 -0.000000 -0.000000 -0.000000  0.000000  0.000000 -0.000000
                                -0.000000  0.000000

   4.1   2   -22.1860 -159.3839  0.000000  0.000000 -0.000000  0.000000  0.000000  0.000000  0.000000  0.000000  0.000000  0.000000
                                 0.000000  0.000000  0.000000  0.000000  0.000000  0.000000  0.000000 -0.000000 -0.000000 -0.000000
                                -0.000000  0.000000  0.000000 -0.000000 -0.000000  0.000000 -0.000000 -0.000000 -0.000000 -0.000000
                                -0.000000  0.000000  0.000000  0.000020  0.000000  0.000159  0.000000  0.000981  0.000000  0.004658
                                 0.000000  0.017748  0.000000  0.053452  0.000000  0.129580  0.000000  0.235277  0.000000  0.313965
                                 0.000000  0.288632  0.000000  0.151043  0.000000  0.037247  0.000000  0.002319  0.000000  0.000425
                                -0.000000 -0.000185  0.000000  0.000097 -0.000000 -0.000075  0.000000  0.000037 -0.000000 -0.000010
                                -0.000000 -0.000000 -0.000034  0.000000  0.000000  0.000006 -0.000000 -0.000000 -0.000004  0.000000
                                 0.000000  0.000002

   5.1   2   -22.1811 -159.3827  0.000000  0.000000  0.000000  0.000000  0.000000  0.000000  0.000000  0.000000  0.000000  0.000001
                                 0.000001  0.000002  0.000004  0.000009  0.000016  0.000023  0.000018 -0.000015 -0.000098 -0.000126
                                -0.000096  0.000270  0.000191 -0.000070  0.000023 -0.000028 -0.000012 -0.000019 -0.000008 -0.000002
                                 0.000000 -0.000000  0.000020 -0.000000  0.000159 -0.000000  0.000981 -0.000000  0.004659 -0.000000
                                 0.017749 -0.000000  0.053456 -0.000000  0.129593 -0.000000  0.235297 -0.000000  0.314006 -0.000000
                                 0.288595 -0.000000  0.150999 -0.000000  0.037253 -0.000000  0.002300 -0.000000  0.000414 -0.000000
                                -0.000197  0.000000  0.000094 -0.000000 -0.000076  0.000000  0.000037 -0.000000 -0.000010  0.000000
                                -0.000053  0.000000  0.000000  0.000010  0.000000  0.000000 -0.000006 -0.000000 -0.000000  0.000003
                                 0.000000  0.000000

   6.1   2    -7.1077  -76.7615 -0.000003 -0.000007 -0.000018 -0.000035 -0.000065 -0.000113 -0.000192 -0.000327 -0.000574 -0.001037
                                -0.001948 -0.003784 -0.007493 -0.014591 -0.026185 -0.038113 -0.030894  0.028982  0.158150  0.240520
                                 0.111558 -0.260953 -0.758798 -0.304583  0.694209  0.692875  0.110316 -0.013535  0.004271 -0.001239
                                 0.000516 -0.000177  0.000000 -0.000000  0.000000 -0.000000  0.000001 -0.000000  0.000003 -0.000000
                                 0.000010 -0.000000  0.000033 -0.000000  0.000070 -0.000000  0.000148 -0.000000  0.000146 -0.000000
                                 0.000211 -0.000000 -0.000075  0.000000 -0.000086 -0.000000 -0.000909  0.000000 -0.000948  0.000000
                                 0.000094 -0.000000  0.000023 -0.000000  0.000034  0.000000 -0.000008  0.000000  0.000003  0.000000
                                -0.000001 -0.000000 -0.000000 -0.000000  0.000000  0.000000  0.000001  0.000000  0.000000 -0.000000
                                -0.000000 -0.000000

   7.1   2    -1.9600  -57.9296 -0.000000 -0.000000 -0.000000 -0.000000 -0.000000 -0.000000 -0.000000 -0.000000 -0.000000 -0.000000
                                -0.000000 -0.000000 -0.000000 -0.000000 -0.000000 -0.000000 -0.000000  0.000000  0.000000  0.000000
                                 0.000000 -0.000000 -0.000000 -0.000000  0.000000  0.000000 -0.000000 -0.000000  0.000000 -0.000000
                                 0.000000 -0.000000 -0.000000  0.000008 -0.000000  0.000064 -0.000000  0.000392 -0.000000  0.001867
                                -0.000000  0.007156 -0.000000  0.021740 -0.000000  0.053532 -0.000000  0.096966 -0.000000  0.124540
                                -0.000000  0.091015  0.000000 -0.075789  0.000000 -0.293999  0.000000 -0.391544  0.000000 -0.294139
                                 0.000000 -0.113003  0.000000 -0.015303  0.000000 -0.000183  0.000000 -0.000259 -0.000000  0.000031
                                -0.000000 -0.000000  0.000222 -0.000000 -0.000000  0.001012 -0.000000 -0.000000  0.000581  0.000000
                                 0.000000 -0.000131

   8.1   2    -1.9457  -57.9401  0.000000  0.000000  0.000000  0.000000  0.000000  0.000000  0.000001  0.000001  0.000002  0.000004
                                 0.000008  0.000016  0.000032  0.000063  0.000111  0.000165  0.000128 -0.000114 -0.000719 -0.000995
                                -0.000640  0.001440  0.003601  0.001716 -0.005440 -0.006387  0.006249  0.003438 -0.001779 -0.000950
                                 0.000033 -0.000022  0.000008  0.000000  0.000064  0.000000  0.000392  0.000000  0.001869  0.000000
                                 0.007164  0.000000  0.021763  0.000000  0.053591  0.000000  0.097068  0.000000  0.124685  0.000000
                                 0.091080  0.000000 -0.076037 -0.000000 -0.294579 -0.000000 -0.392130 -0.000000 -0.292414 -0.000000
                                -0.112673 -0.000000 -0.016788 -0.000000 -0.000521 -0.000000 -0.000417 -0.000000  0.000048  0.000000
                                 0.000346  0.000000  0.000000  0.001573  0.000000  0.000000  0.000898  0.000000  0.000000 -0.000199
                                -0.000000 -0.000000

   9.1   2    -0.7468  -28.5591  0.000001  0.000002  0.000006  0.000012  0.000022  0.000037  0.000064  0.000109  0.000191  0.000345
                                 0.000649  0.001260  0.002497  0.004861  0.008739  0.012721  0.010370 -0.009854 -0.053749 -0.083209
                                -0.038744  0.094323  0.305569  0.109787 -0.355844 -0.542977 -0.134879  0.558062  0.631369  0.167500
                                -0.001521  0.001277 -0.000000  0.000000 -0.000000 -0.000000 -0.000000  0.000000 -0.000001 -0.000000
                                -0.000005  0.000000 -0.000014 -0.000000 -0.000033  0.000000 -0.000064 -0.000000 -0.000065  0.000000
                                -0.000068 -0.000000  0.000068  0.000000  0.000043 -0.000000 -0.000082  0.000000  0.001132 -0.000000
                                -0.000194  0.000000  0.001991 -0.000000  0.004904  0.000000  0.001720 -0.000000  0.000138  0.000000
                                 0.000001  0.000000  0.000000  0.000002  0.000000  0.000000  0.000017  0.000000  0.000000 -0.000044
                                -0.000000 -0.000000

  10.1   0     0.0202   -6.2137 -0.000000 -0.000000 -0.000001 -0.000001 -0.000003 -0.000005 -0.000008 -0.000013 -0.000025 -0.000042
                                -0.000085 -0.000150 -0.000331 -0.000569 -0.001191 -0.001363 -0.001880  0.002675  0.003316  0.018004
                                -0.009750  0.012380 -0.073443  0.031001 -0.019192  0.175810 -0.218553  0.288694 -0.653547  0.812967
                                -2.090214  2.442963 -0.000000  0.000000  0.000000  0.000000 -0.000000  0.000000  0.000000  0.000000
                                -0.000003  0.000000  0.000004  0.000000 -0.000025  0.000000  0.000035  0.000000 -0.000119  0.000000
                                 0.000201  0.000000 -0.000368 -0.000000  0.000667 -0.000000 -0.001045 -0.000000  0.001635 -0.000000
                                -0.001960  0.000000  0.009097  0.000000 -0.022103  0.000000  0.023825  0.000000 -0.054205  0.000000
                                -0.000002 -0.000000  0.000000  0.000010 -0.000000 -0.000000 -0.000100  0.000000  0.000000  0.000412
                                -0.000000 -0.000000

  11.1   0     0.0811   -6.8700 -0.000000 -0.000000 -0.000000 -0.000000 -0.000000 -0.000000 -0.000000 -0.000000 -0.000000 -0.000000
                                -0.000000 -0.000000 -0.000000 -0.000000 -0.000000 -0.000000 -0.000000 -0.000000  0.000000  0.000000
                                 0.000000 -0.000000 -0.000000 -0.000000  0.000000 -0.000000  0.000000 -0.000000  0.000000 -0.000000
                                 0.000000 -0.000000 -0.000000  0.000000 -0.000000  0.000002 -0.000000  0.000019 -0.000000  0.000049
                                -0.000000  0.000343 -0.000000  0.000579 -0.000000  0.002643 -0.000000  0.002045 -0.000000  0.008183
                                 0.000000 -0.003769 -0.000000  0.009228  0.000000 -0.033602 -0.000000  0.020646  0.000000 -0.074575
                                -0.000000  0.119017  0.000000 -0.233333 -0.000000  0.677974  0.000000 -1.044296 -0.000000  1.527697
                                -0.000000 -0.000000  0.000028  0.000000 -0.000000 -0.000154 -0.000000 -0.000000  0.000393  0.000000
                                 0.000000 -0.004138

                                   1 2px     1 2px     1 2px     1 2px     1 2px     1 2px     1 2px     1 2px     1 2px     1 2px  
                                   1 2px     1 2px     1 2px     1 2px     1 2px     1 2px     1 2px     1 2px     1 2px     1 2px  
                                   1 2px     1 2px     1 2px     1 2px     1 2px     1 4f1+    1 4f3+    1 4f1+    1 4f3+    1 4f1+ 
                                   1 4f3+    1 4f1+    1 4f3+    1 4f1+    1 4f3+    1 4f1+    1 4f3+    1 6h1+    1 6h3+    1 6h5+ 


   1.2   2  -164.8011 -506.7502  0.000007  0.000025  0.000082  0.000250  0.000751  0.002256  0.006793  0.019896  0.054255  0.128815
                                 0.244436  0.333599  0.273267  0.109674  0.016977  0.000820  0.000057 -0.000140 -0.000003 -0.000019
                                 0.000007 -0.000003  0.000002 -0.000001  0.000000 -0.000002  0.000000  0.000001  0.000000 -0.000001
                                -0.000000  0.000000  0.000000 -0.000000 -0.000000  0.000000  0.000000  0.000000  0.000000 -0.000000

   2.2   2   -31.7790 -174.1172 -0.000003 -0.000012 -0.000038 -0.000117 -0.000352 -0.001063 -0.003214 -0.009528 -0.026454 -0.065078
                                -0.129136 -0.186292 -0.121370  0.129694  0.426277  0.427949  0.146487  0.014216  0.000732  0.000182
                                -0.000069  0.000020 -0.000013  0.000006 -0.000002 -0.000085  0.000000  0.000033 -0.000000 -0.000028
                                 0.000000  0.000011 -0.000000 -0.000006  0.000000  0.000002 -0.000000 -0.000000 -0.000000  0.000000

   3.2   2    -5.0541  -70.0734 -0.000001 -0.000005 -0.000017 -0.000050 -0.000152 -0.000458 -0.001386 -0.004121 -0.011476 -0.028448
                                -0.056941 -0.083358 -0.049780  0.084060  0.273253  0.306890 -0.117966 -0.549350 -0.440859 -0.096322
                                -0.002462 -0.001374  0.000423 -0.000218  0.000084  0.000149  0.000000  0.000398  0.000000  0.000928
                                 0.000000  0.000063 -0.000000 -0.000067 -0.000000  0.000004 -0.000000 -0.000000  0.000000 -0.000000

   4.2   +    -0.3927  -23.3191 -0.000000 -0.000001 -0.000005 -0.000014 -0.000043 -0.000129 -0.000389 -0.001157 -0.003226 -0.008001
                                -0.016053 -0.023522 -0.013885  0.025132  0.081856  0.093562 -0.054324 -0.209404 -0.205920  0.066714
                                 0.463069  0.497382  0.143278 -0.002922  0.001940 -0.000575  0.000000 -0.001021  0.000000 -0.001084
                                -0.000000 -0.008901 -0.000000 -0.015234 -0.000000 -0.004378 -0.000000  0.000075  0.000000 -0.000000

   5.2   0     0.0225   -4.4398  0.000000  0.000000  0.000000  0.000001  0.000003  0.000009  0.000030  0.000078  0.000249  0.000526
                                 0.001287  0.001356  0.001783 -0.003497 -0.002632 -0.012456  0.013164  0.000313  0.039737 -0.047383
                                 0.039833 -0.196083  0.314823 -1.066065  1.724883  0.000060 -0.000000  0.000036 -0.000000  0.000230
                                -0.000000  0.000299  0.000000  0.002318  0.000000 -0.003094  0.000000 -0.000005  0.000000  0.000000

   6.2   0     0.0870   -6.4726  0.000000  0.000000  0.000001  0.000003  0.000009  0.000029  0.000078  0.000262  0.000638  0.001842
                                 0.003040  0.005959  0.000722 -0.000577 -0.026770 -0.003764 -0.014310  0.087886 -0.024923  0.103788
                                -0.333503  0.334589 -1.285258  3.151905 -1.814137  0.000176 -0.000000  0.000120 -0.000000  0.000651
                                -0.000000  0.000985  0.000000  0.006778  0.000000 -0.010730  0.000000 -0.000014  0.000000  0.000000

                                   1 2py     1 2py     1 2py     1 2py     1 2py     1 2py     1 2py     1 2py     1 2py     1 2py  
                                   1 2py     1 2py     1 2py     1 2py     1 2py     1 2py     1 2py     1 2py     1 2py     1 2py  
                                   1 2py     1 2py     1 2py     1 2py     1 2py     1 4f1-    1 4f3-    1 4f1-    1 4f3-    1 4f1- 
                                   1 4f3-    1 4f1-    1 4f3-    1 4f1-    1 4f3-    1 4f1-    1 4f3-    1 6h1-    1 6h3-    1 6h5- 


   1.3   2  -164.8011 -506.7502  0.000007  0.000025  0.000082  0.000250  0.000751  0.002256  0.006793  0.019896  0.054255  0.128815
                                 0.244436  0.333599  0.273267  0.109674  0.016977  0.000820  0.000057 -0.000140 -0.000003 -0.000019
                                 0.000007 -0.000003  0.000002 -0.000001  0.000000 -0.000002 -0.000000  0.000001 -0.000000 -0.000001
                                 0.000000  0.000000 -0.000000 -0.000000  0.000000  0.000000 -0.000000  0.000000 -0.000000 -0.000000

   2.3   2   -31.7790 -174.1172 -0.000003 -0.000012 -0.000038 -0.000117 -0.000352 -0.001063 -0.003214 -0.009528 -0.026454 -0.065078
                                -0.129136 -0.186292 -0.121370  0.129694  0.426277  0.427949  0.146487  0.014216  0.000732  0.000182
                                -0.000069  0.000020 -0.000013  0.000006 -0.000002 -0.000085 -0.000000  0.000033  0.000000 -0.000028
                                -0.000000  0.000011  0.000000 -0.000006 -0.000000  0.000002  0.000000 -0.000000  0.000000  0.000000

   3.3   2    -5.0541  -70.0734 -0.000001 -0.000005 -0.000017 -0.000050 -0.000152 -0.000458 -0.001386 -0.004121 -0.011476 -0.028448
                                -0.056941 -0.083358 -0.049780  0.084060  0.273253  0.306890 -0.117966 -0.549350 -0.440859 -0.096322
                                -0.002462 -0.001374  0.000423 -0.000218  0.000084  0.000149 -0.000000  0.000398 -0.000000  0.000928
                                -0.000000  0.000063  0.000000 -0.000067  0.000000  0.000004  0.000000 -0.000000 -0.000000 -0.000000

   4.3   +    -0.3927  -23.3191 -0.000000 -0.000001 -0.000005 -0.000014 -0.000043 -0.000129 -0.000389 -0.001157 -0.003226 -0.008001
                                -0.016053 -0.023522 -0.013885  0.025132  0.081856  0.093562 -0.054324 -0.209404 -0.205920  0.066714
                                 0.463069  0.497382  0.143278 -0.002922  0.001940 -0.000575 -0.000000 -0.001021 -0.000000 -0.001084
                                -0.000000 -0.008901  0.000000 -0.015234  0.000000 -0.004378  0.000000  0.000075 -0.000000 -0.000000

   5.3   0     0.0225   -4.4398  0.000000  0.000000  0.000000  0.000001  0.000003  0.000009  0.000030  0.000078  0.000249  0.000526
                                 0.001287  0.001356  0.001783 -0.003497 -0.002632 -0.012456  0.013164  0.000313  0.039737 -0.047383
                                 0.039833 -0.196083  0.314823 -1.066065  1.724883  0.000060  0.000000  0.000036  0.000000  0.000230
                                 0.000000  0.000299 -0.000000  0.002318 -0.000000 -0.003094 -0.000000 -0.000005 -0.000000  0.000000

   6.3   0     0.0870   -6.4726  0.000000  0.000000  0.000001  0.000003  0.000009  0.000029  0.000078  0.000262  0.000638  0.001842
                                 0.003040  0.005959  0.000722 -0.000577 -0.026770 -0.003764 -0.014310  0.087886 -0.024923  0.103788
                                -0.333503  0.334589 -1.285258  3.151905 -1.814137  0.000176  0.000000  0.000120  0.000000  0.000651
                                 0.000000  0.000985 -0.000000  0.006778 -0.000000 -0.010730 -0.000000 -0.000014 -0.000000  0.000000

                                   1 3d2-    1 3d2-    1 3d2-    1 3d2-    1 3d2-    1 3d2-    1 3d2-    1 3d2-    1 3d2-    1 3d2- 
                                   1 3d2-    1 3d2-    1 3d2-    1 3d2-    1 3d2-    1 3d2-    1 3d2-    1 3d2-    1 3d2-    1 5g2- 
                                   1 5g4-    1 5g2-    1 5g4-    1 5g2-    1 5g4-    1 5g2-    1 5g4- 

   1.4   2   -22.1860 -159.3839  0.000020  0.000159  0.000981  0.004658  0.017748  0.053452  0.129580  0.235277  0.313965  0.288632
                                 0.151043  0.037247  0.002319  0.000425 -0.000185  0.000097 -0.000075  0.000037 -0.000010 -0.000034
                                -0.000000  0.000006  0.000000 -0.000004 -0.000000  0.000002  0.000000

   2.4   2    -1.9600  -57.9296  0.000008  0.000064  0.000392  0.001867  0.007156  0.021740  0.053532  0.096966  0.124540  0.091015
                                -0.075789 -0.293999 -0.391544 -0.294139 -0.113003 -0.015303 -0.000183 -0.000259  0.000031  0.000222
                                 0.000000  0.001012 -0.000000  0.000581 -0.000000 -0.000131 -0.000000

   3.4   0     0.0811   -6.8700  0.000000  0.000002  0.000019  0.000049  0.000343  0.000579  0.002643  0.002045  0.008183 -0.003769
                                 0.009228 -0.033602  0.020646 -0.074575  0.119017 -0.233333  0.677974 -1.044296  1.527697  0.000028
                                -0.000000 -0.000154 -0.000000  0.000393 -0.000000 -0.004138  0.000000

   4.4   0     0.2002  -10.8373 -0.000001 -0.000009 -0.000039 -0.000267 -0.000737 -0.003090 -0.005388 -0.014787 -0.008727 -0.023783
                                 0.034494  0.000225  0.120666 -0.078069  0.184702 -0.659765  1.134134 -2.576977  1.464871 -0.000059
                                 0.000000  0.000324  0.000000 -0.000100  0.000000  0.011571 -0.000000

                                   1 2pz     1 2pz     1 2pz     1 2pz     1 2pz     1 2pz     1 2pz     1 2pz     1 2pz     1 2pz  
                                   1 2pz     1 2pz     1 2pz     1 2pz     1 2pz     1 2pz     1 2pz     1 2pz     1 2pz     1 2pz  
                                   1 2pz     1 2pz     1 2pz     1 2pz     1 2pz     1 4f0     1 4f2+    1 4f0     1 4f2+    1 4f0  
                                   1 4f2+    1 4f0     1 4f2+    1 4f0     1 4f2+    1 4f0     1 4f2+    1 6h2+    1 6h4+    1 6h0  


   1.5   2  -164.8002 -506.7502  0.000007  0.000025  0.000082  0.000250  0.000751  0.002256  0.006793  0.019897  0.054257  0.128818
                                 0.244443  0.333604  0.273256  0.109668  0.016975  0.000819  0.000056 -0.000140 -0.000002 -0.000019
                                 0.000007 -0.000003  0.000002 -0.000001  0.000000 -0.000002 -0.000000  0.000001  0.000000 -0.000001
                                -0.000000  0.000000  0.000000 -0.000000 -0.000000  0.000000  0.000000 -0.000000  0.000000  0.000000

   2.5   2   -31.7756 -174.1209 -0.000003 -0.000012 -0.000038 -0.000117 -0.000352 -0.001063 -0.003215 -0.009530 -0.026458 -0.065089
                                -0.129158 -0.186325 -0.121373  0.129757  0.426446  0.427842  0.146390  0.014204  0.000717  0.000181
                                -0.000067  0.000022 -0.000013  0.000006 -0.000002 -0.000104 -0.000000  0.000040  0.000000 -0.000034
                                 0.000000  0.000013  0.000000 -0.000008 -0.000000  0.000003  0.000000  0.000000 -0.000000 -0.000000

   3.5   2    -5.0464  -70.1427 -0.000001 -0.000005 -0.000017 -0.000050 -0.000152 -0.000459 -0.001389 -0.004130 -0.011500 -0.028511
                                -0.057062 -0.083553 -0.049853  0.084229  0.274122  0.307405 -0.118568 -0.552408 -0.439751 -0.093859
                                -0.002563 -0.001254  0.000382 -0.000192  0.000074  0.000184 -0.000000  0.000493  0.000000  0.001142
                                -0.000000  0.000071 -0.000000 -0.000083 -0.000000  0.000004 -0.000000 -0.000000  0.000000 -0.000000

   4.5   2    -0.3277  -22.7945  0.000000  0.000001  0.000005  0.000014  0.000041  0.000125  0.000380  0.001128  0.003146  0.007802
                                 0.015657  0.022936  0.013544 -0.024535 -0.079899 -0.091267  0.053161  0.205212  0.202317 -0.079141
                                -0.428263 -0.482042 -0.191174 -0.002396 -0.001895  0.000303 -0.000000  0.000563 -0.000000  0.000574
                                -0.000000  0.004286  0.000000  0.007951 -0.000000  0.003158  0.000000 -0.000000 -0.000000 -0.000017

   5.5   0     0.0241   -4.3801  0.000000  0.000000  0.000000  0.000001  0.000003  0.000009  0.000031  0.000080  0.000258  0.000543
                                 0.001333  0.001394  0.001860 -0.003650 -0.002653 -0.012987  0.013786  0.000045  0.041531 -0.050310
                                 0.044394 -0.202670  0.329876 -1.136823  1.767529  0.000065  0.000000  0.000036 -0.000000  0.000252
                                 0.000000  0.000335 -0.000000  0.002698  0.000000 -0.003277  0.000000 -0.000000  0.000000 -0.000006

   6.5   0     0.0922   -6.5160  0.000000  0.000000  0.000001  0.000003  0.000009  0.000030  0.000083  0.000276  0.000673  0.001944
                                 0.003204  0.006295  0.000741 -0.000564 -0.028334 -0.003809 -0.015353  0.093152 -0.026829  0.108387
                                -0.346882  0.364302 -1.374636  3.194980 -1.796580  0.000199  0.000000  0.000120 -0.000000  0.000755
                                 0.000000  0.001081 -0.000000  0.008335  0.000000 -0.012397 -0.000000 -0.000000  0.000000 -0.000018

                                   1 3d1+    1 3d1+    1 3d1+    1 3d1+    1 3d1+    1 3d1+    1 3d1+    1 3d1+    1 3d1+    1 3d1+ 
                                   1 3d1+    1 3d1+    1 3d1+    1 3d1+    1 3d1+    1 3d1+    1 3d1+    1 3d1+    1 3d1+    1 5g1+ 
                                   1 5g3+    1 5g1+    1 5g3+    1 5g1+    1 5g3+    1 5g1+    1 5g3+ 

   1.6   2   -22.1823 -159.3830  0.000020  0.000159  0.000981  0.004659  0.017749  0.053455  0.129590  0.235292  0.313996  0.288604
                                 0.151009  0.037252  0.002305  0.000416 -0.000194  0.000094 -0.000076  0.000037 -0.000010 -0.000048
                                 0.000000  0.000009 -0.000000 -0.000006  0.000000  0.000003 -0.000000

   2.6   2    -1.9493  -57.9386  0.000008  0.000064  0.000392  0.001869  0.007162  0.021758  0.053578  0.097046  0.124652  0.091068
                                -0.075980 -0.294442 -0.392004 -0.292855 -0.112716 -0.016404 -0.000437 -0.000378  0.000044  0.000315
                                 0.000000  0.001434  0.000000  0.000818 -0.000000 -0.000183 -0.000000

   3.6   0     0.0849   -6.6984  0.000000  0.000001  0.000018  0.000039  0.000311  0.000461  0.002412  0.001491  0.007749 -0.004552
                                 0.010306 -0.033047  0.024527 -0.075909  0.123353 -0.253194  0.701290 -1.113258  1.569709  0.000038
                                 0.000000 -0.000198  0.000000  0.000626 -0.000000 -0.005162 -0.000000

   4.6   0     0.2124  -10.6329 -0.000001 -0.000009 -0.000036 -0.000257 -0.000683 -0.002972 -0.004973 -0.014314 -0.007559 -0.023925
                                 0.035160 -0.004149  0.121651 -0.087043  0.197630 -0.675610  1.226299 -2.666474  1.457968 -0.000087
                                -0.000000  0.000450 -0.000000 -0.000529  0.000000  0.015749  0.000000

                                   1 3d1-    1 3d1-    1 3d1-    1 3d1-    1 3d1-    1 3d1-    1 3d1-    1 3d1-    1 3d1-    1 3d1- 
                                   1 3d1-    1 3d1-    1 3d1-    1 3d1-    1 3d1-    1 3d1-    1 3d1-    1 3d1-    1 3d1-    1 5g1- 
                                   1 5g3-    1 5g1-    1 5g3-    1 5g1-    1 5g3-    1 5g1-    1 5g3- 

   1.7   2   -22.1823 -159.3830  0.000020  0.000159  0.000981  0.004659  0.017749  0.053455  0.129590  0.235292  0.313996  0.288604
                                 0.151009  0.037252  0.002305  0.000416 -0.000194  0.000094 -0.000076  0.000037 -0.000010 -0.000048
                                -0.000000  0.000009  0.000000 -0.000006 -0.000000  0.000003  0.000000

   2.7   2    -1.9493  -57.9386  0.000008  0.000064  0.000392  0.001869  0.007162  0.021758  0.053578  0.097046  0.124652  0.091068
                                -0.075980 -0.294442 -0.392004 -0.292855 -0.112716 -0.016404 -0.000437 -0.000378  0.000044  0.000315
                                -0.000000  0.001434 -0.000000  0.000818  0.000000 -0.000183  0.000000

   3.7   0     0.0849   -6.6984  0.000000  0.000001  0.000018  0.000039  0.000311  0.000461  0.002412  0.001491  0.007749 -0.004552
                                 0.010306 -0.033047  0.024527 -0.075909  0.123353 -0.253194  0.701290 -1.113258  1.569709  0.000038
                                -0.000000 -0.000198 -0.000000  0.000626  0.000000 -0.005162  0.000000

   4.7   0     0.2124  -10.6329 -0.000001 -0.000009 -0.000036 -0.000257 -0.000683 -0.002972 -0.004973 -0.014314 -0.007559 -0.023925
                                 0.035160 -0.004149  0.121651 -0.087043  0.197630 -0.675610  1.226299 -2.666474  1.457968 -0.000087
                                 0.000000  0.000450  0.000000 -0.000529 -0.000000  0.015749 -0.000000

                                   1 4f2-    1 4f2-    1 4f2-    1 4f2-    1 4f2-    1 4f2-    1 6h4-    1 6h2- 

   1.8   0     0.3546  -10.1295  0.001382  0.018529 -0.022124  0.137010 -0.306453  1.168308  0.000000 -0.000253

   2.8   0     0.8449  -17.8162  0.044245  0.030040  0.181690 -0.047680  1.324350 -0.789126  0.000000 -0.001364

 HOMO      4.5    -0.327700 =      -8.9172eV
 LUMO     10.1     0.020200 =       0.5497eV
 LUMO-HOMO         0.347900 =       9.4668eV


 **********************************************************************************************************************************
 DATASETS  * FILE   NREC   LENGTH (MB)   RECORD NAMES
              1      22       20.92       500      610      700      900      950      970     1000      129      960     1700   
                                          VAR    BASINP    GEOM    SYMINP    ZMAT    AOBASIS   BASIS     P2S    ABASIS    OPER   
                                         1101     1401     1411     1412     1650     1100     1400     1410     1200     1210   
                                          SR      EKINR    POTR     PVPR    MOLCAS      S      EKIN      POT      H0       H01  
                                         1080     1600   
                                         AOSYM     SMH  

              2       5        5.77       200      700     1000      520     4202   
                                        OPTIONS   GEOM     BASIS   MCVARS     RHF  

 PROGRAMS   *        TOTAL       RHF       INT
 CPU TIMES  *        52.63      0.93     51.12
 REAL TIME  *        55.32 SEC
 DISK USED  *         1.63 GB      
 SF USED    *         0.06 MB      
 GA USED    *         0.00 MB       (max)       0.00 MB       (current)
 **********************************************************************************************************************************


 PROGRAM * POP (Mulliken population analysis)

 
 Density matrix read from record         4202.2  Type=RHF/CHARGE (state 1.4)
 
 Population analysis by basis function type

 Unique atom        s        p        d        f        g    Total    Charge
   1  TE      9.99989 21.99832 20.00007  0.00168  0.00003 52.00000  + 0.00000


 **********************************************************************************************************************************
 DATASETS  * FILE   NREC   LENGTH (MB)   RECORD NAMES
              1      22       20.92       500      610      700      900      950      970     1000      129      960     1700   
                                          VAR    BASINP    GEOM    SYMINP    ZMAT    AOBASIS   BASIS     P2S    ABASIS    OPER   
                                         1101     1401     1411     1412     1650     1100     1400     1410     1200     1210   
                                          SR      EKINR    POTR     PVPR    MOLCAS      S      EKIN      POT      H0       H01  
                                         1080     1600   
                                         AOSYM     SMH  

              2       5        5.77       200      700     1000      520     4202   
                                        OPTIONS   GEOM     BASIS   MCVARS     RHF  

 PROGRAMS   *        TOTAL       POP       RHF       INT
 CPU TIMES  *        52.63      0.00      0.93     51.12
 REAL TIME  *        55.33 SEC
 DISK USED  *         1.63 GB      
 SF USED    *         0.06 MB      
 GA USED    *         0.00 MB       (max)       0.00 MB       (current)
 **********************************************************************************************************************************


 PROGRAM * MULTI (Direct Multiconfiguration SCF)       Authors: P.J. Knowles, H.-J. Werner (1984)     S.T. Elbert (1988)


 Number of closed-shell orbitals:  24 (   9   3   3   2   3   2   2   0 )
 Number of active  orbitals:        3 (   0   1   1   0   1   0   0   0 )
 Number of external orbitals:     264 (  73  36  36  25  36  25  25   8 )

 State symmetry 1

 Number of electrons:     4    Spin symmetry=Triplet   Space symmetry=4
 Number of states:        1
 Number of CSFs:          1   (1 determinants, 3 intermediate states)

 State symmetry 2

 Number of electrons:     4    Spin symmetry=Triplet   Space symmetry=6
 Number of states:        1
 Number of CSFs:          1   (1 determinants, 3 intermediate states)

 State symmetry 3

 Number of electrons:     4    Spin symmetry=Triplet   Space symmetry=7
 Number of states:        1
 Number of CSFs:          1   (1 determinants, 3 intermediate states)

 Molecular orbitals read from record     4202.2  Type=RHF/CANONICAL (state 1.4)
 *** IN SYMMETRY 1 ORBITAL  3 SYMMETRY CONTAMINATION OF 0.108D-03 HAS BEEN REMOVED
 *** IN SYMMETRY 1 ORBITAL  4 SYMMETRY CONTAMINATION OF 0.377D-04 HAS BEEN REMOVED
 *** IN SYMMETRY 1 ORBITAL  5 SYMMETRY CONTAMINATION OF 0.892D-03 HAS BEEN REMOVED
 *** IN SYMMETRY 1 ORBITAL  6 SYMMETRY CONTAMINATION OF 0.799D-03 HAS BEEN REMOVED
 *** IN SYMMETRY 1 ORBITAL  7 SYMMETRY CONTAMINATION OF 0.123D-02 HAS BEEN REMOVED
 *** IN SYMMETRY 1 ORBITAL  8 SYMMETRY CONTAMINATION OF 0.229D-01 HAS BEEN REMOVED
 *** IN SYMMETRY 1 ORBITAL  9 SYMMETRY CONTAMINATION OF 0.337D-02 HAS BEEN REMOVED

 EXTRA SYMMETRY OF MOS IN SYMMETRY 1:   1 1 1 3 2 1 3 2 1 1   3 2 1 3 2 1 3 2 5 6   4 3 2 1 3 2 5 6 4 1   3 2 5 6 4 1 3 2 5 6
                                        4 1 3 2 3 2 1 3 2 1   3 2 1 3 2 1 3 2 1 3   2 1 3 2 1 1 3 2 1 3   2 1 1 1 1 1 1 1 1 1
                                        1 1
 *** IN SYMMETRY 2 ORBITAL  2 SYMMETRY CONTAMINATION OF 0.980D-04 HAS BEEN REMOVED
 *** IN SYMMETRY 2 ORBITAL  3 SYMMETRY CONTAMINATION OF 0.762D-03 HAS BEEN REMOVED
 *** IN SYMMETRY 2 ORBITAL  4 SYMMETRY CONTAMINATION OF 0.161D-01 HAS BEEN REMOVED
 EXTRA SYMMETRY OF MOS IN SYMMETRY 2:   1 1 1 1 1 1 1 3 2 3   1 2 3 2 1 3 2 1 6 5   4 3 2 3 2 1 1 1 1 1   1 1 1 1 1 1 1 1 1 1
 *** IN SYMMETRY 3 ORBITAL  2 SYMMETRY CONTAMINATION OF 0.980D-04 HAS BEEN REMOVED
 *** IN SYMMETRY 3 ORBITAL  3 SYMMETRY CONTAMINATION OF 0.762D-03 HAS BEEN REMOVED
 *** IN SYMMETRY 3 ORBITAL  4 SYMMETRY CONTAMINATION OF 0.161D-01 HAS BEEN REMOVED
 EXTRA SYMMETRY OF MOS IN SYMMETRY 3:   1 1 1 1 1 1 1 3 2 3   1 2 3 2 1 3 2 1 6 5   4 3 2 3 2 1 1 1 1 1   1 1 1 1 1 1 1 1 1 1
 *** IN SYMMETRY 4 ORBITAL  1 SYMMETRY CONTAMINATION OF 0.377D-04 HAS BEEN REMOVED
 *** IN SYMMETRY 4 ORBITAL  2 SYMMETRY CONTAMINATION OF 0.123D-02 HAS BEEN REMOVED
 EXTRA SYMMETRY OF MOS IN SYMMETRY 4:   1 1 1 1 1 3 2 1 1 3   2 1 3 2 1 3 2 1 1 1   1 1 1 1 1 1 1
 *** IN SYMMETRY 5 ORBITAL  2 SYMMETRY CONTAMINATION OF 0.120D-03 HAS BEEN REMOVED
 *** IN SYMMETRY 5 ORBITAL  3 SYMMETRY CONTAMINATION OF 0.936D-03 HAS BEEN REMOVED
 *** IN SYMMETRY 5 ORBITAL  4 SYMMETRY CONTAMINATION OF 0.876D-02 HAS BEEN REMOVED
 EXTRA SYMMETRY OF MOS IN SYMMETRY 5:   1 1 1 1 1 1 1 3 2 3   2 1 3 2 1 3 2 1 5 4   6 3 2 3 2 1 1 1 1 1   1 1 1 1 1 1 1 1 1 1
 *** IN SYMMETRY 6 ORBITAL  1 SYMMETRY CONTAMINATION OF 0.532D-04 HAS BEEN REMOVED
 *** IN SYMMETRY 6 ORBITAL  2 SYMMETRY CONTAMINATION OF 0.173D-02 HAS BEEN REMOVED
 EXTRA SYMMETRY OF MOS IN SYMMETRY 6:   1 1 1 1 1 3 2 1 1 3   2 1 3 2 1 3 2 1 1 1   1 1 1 1 1 1 1
 *** IN SYMMETRY 7 ORBITAL  1 SYMMETRY CONTAMINATION OF 0.532D-04 HAS BEEN REMOVED
 *** IN SYMMETRY 7 ORBITAL  2 SYMMETRY CONTAMINATION OF 0.173D-02 HAS BEEN REMOVED
 EXTRA SYMMETRY OF MOS IN SYMMETRY 7:   1 1 1 1 1 3 2 1 1 3   2 1 3 2 1 3 2 1 1 1   1 1 1 1 1 1 1
 EXTRA SYMMETRY OF MOS IN SYMMETRY 8:   1 1 1 1 2 3 1 1

 Wavefunction dump at record             5202.2

 Convergence thresholds  0.10E-01 (gradient)  0.10E-05 (energy)  0.10E-02 (step length)

 Weight factors for state symmetry  1:    0.33333
 Weight factors for state symmetry  2:    0.33333
 Weight factors for state symmetry  3:    0.33333

 Number of orbital rotations:     1248   (     9 Core/Active   1131 Core/Virtual   0 Active/Active    108 Active/Virtual)
 Total number of variables:       1251


 ITER. MIC  NCI  NEG     ENERGY(VAR)     ENERGY(PROJ)   ENERGY CHANGE     GRAD(0)  GRAD(ORB)   GRAD(CI)     STEP       TIME

   1   17   21    0   -6791.04707616   -6791.04778690   -0.00071074    0.03750084 0.00000000 0.00000000  0.36D-01      1.16
   2   15   15    0   -6791.04778827   -6791.04778828   -0.00000001    0.00010304 0.00000000 0.00000000  0.13D-03      2.11
   3   17   15    0   -6791.04778828   -6791.04778828    0.00000000    0.00000000 0.00000000 0.00000000  0.26D-08      3.01

 ** WVFN ****  CONVERGENCE REACHED, FINAL GRADIENT:  0.21D-09



 Results for state 1.4
 =====================

 !MCSCF STATE 1.4 Energy            -6791.047788279191
 Nuclear energy                         0.00000000
 Kinetic energy                      7941.85132696
 One electron energy                -9320.15647638
 Two electron energy                 2529.10868810
 Virial ratio                           1.85509631

 !MCSCF STATE 1.4 Dipole moment         0.00000000     0.00000000     0.00000000
 Dipole moment /Debye                   0.00000000     0.00000000     0.00000000



 Results for state 1.6
 =====================

 !MCSCF STATE 1.6 Energy            -6791.047788279192
 Nuclear energy                         0.00000000
 Kinetic energy                      7941.85132696
 One electron energy                -9320.15647638
 Two electron energy                 2529.10868810
 Virial ratio                           1.85509631

 !MCSCF STATE 1.6 Dipole moment         0.00000000     0.00000000     0.00000000
 Dipole moment /Debye                   0.00000000     0.00000000     0.00000000



 Results for state 1.7
 =====================

 !MCSCF STATE 1.7 Energy            -6791.047788279192
 Nuclear energy                         0.00000000
 Kinetic energy                      7941.85132696
 One electron energy                -9320.15647638
 Two electron energy                 2529.10868810
 Virial ratio                           1.85509631

 !MCSCF STATE 1.7 Dipole moment         0.00000000     0.00000000     0.00000000
 Dipole moment /Debye                   0.00000000     0.00000000     0.00000000

 State-averaged charge density matrix saved on record  5202.2 (density set 1)


 NATURAL ORBITALS (state averaged)
 =================================

   Orb     Occ        Energy       Coefficients

                                   1 1s      1 1s      1 1s      1 1s      1 1s      1 1s      1 1s      1 1s      1 1s      1 1s   
                                   1 1s      1 1s      1 1s      1 1s      1 1s      1 1s      1 1s      1 1s      1 1s      1 1s   
                                   1 1s      1 1s      1 1s      1 1s      1 1s      1 1s      1 1s      1 1s      1 1s      1 1s   
                                   1 1s      1 1s      1 3d0     1 3d2+    1 3d0     1 3d2+    1 3d0     1 3d2+    1 3d0     1 3d2+ 
                                   1 3d0     1 3d2+    1 3d0     1 3d2+    1 3d0     1 3d2+    1 3d0     1 3d2+    1 3d0     1 3d2+ 
                                   1 3d0     1 3d2+    1 3d0     1 3d2+    1 3d0     1 3d2+    1 3d0     1 3d2+    1 3d0     1 3d2+ 
                                   1 3d0     1 3d2+    1 3d0     1 3d2+    1 3d0     1 3d2+    1 3d0     1 3d2+    1 3d0     1 3d2+ 
                                   1 5g0     1 5g4+    1 5g2+    1 5g0     1 5g4+    1 5g2+    1 5g0     1 5g4+    1 5g2+    1 5g0  
                                   1 5g4+    1 5g2+ 

   1.1  2.00000 -1174.960703     0.000038  0.000101  0.000255  0.000513  0.000948  0.001629  0.002768  0.004698  0.008178  0.014624
                                 0.027015  0.051026  0.096349  0.172240  0.264453  0.295896  0.189248  0.048777  0.003734 -0.000135
                                 0.000310 -0.000320  0.000156 -0.000092  0.000052 -0.000025  0.000018 -0.000012  0.000005 -0.000002
                                 0.000001 -0.000000  0.000000 -0.000000  0.000000 -0.000000  0.000000 -0.000000  0.000000 -0.000000
                                 0.000000 -0.000000  0.000000 -0.000000  0.000000 -0.000000  0.000000 -0.000000  0.000000 -0.000000
                                 0.000000 -0.000000  0.000000 -0.000000 -0.000000 -0.000000 -0.000000  0.000000 -0.000000  0.000000
                                -0.000000  0.000000 -0.000000  0.000000 -0.000000  0.000000 -0.000000 -0.000000 -0.000000  0.000000
                                 0.000000  0.000000  0.000000  0.000000  0.000000  0.000000  0.000000  0.000000  0.000000  0.000000
                                 0.000000  0.000000

   2.1  2.00000  -183.758338    -0.000013 -0.000035 -0.000088 -0.000178 -0.000328 -0.000566 -0.000964 -0.001643 -0.002878 -0.005194
                                -0.009735 -0.018823 -0.037012 -0.071094 -0.124485 -0.173118 -0.132618  0.093714  0.406808  0.440609
                                 0.199626  0.034343  0.002082  0.000177 -0.000242 -0.000009 -0.000030  0.000020 -0.000006  0.000003
                                -0.000001  0.000000  0.000000  0.000000  0.000000  0.000000  0.000000  0.000000  0.000000  0.000000
                                 0.000000  0.000000  0.000000  0.000000  0.000000  0.000000  0.000000  0.000000  0.000000  0.000000
                                 0.000000  0.000000  0.000000 -0.000000  0.000000 -0.000000 -0.000000 -0.000000 -0.000000 -0.000000
                                -0.000000 -0.000000 -0.000000 -0.000000 -0.000000 -0.000000  0.000000 -0.000000 -0.000000  0.000000
                                 0.000000  0.000000  0.000000  0.000000  0.000000  0.000000  0.000000  0.000000  0.000000  0.000000
                                 0.000000  0.000000

   3.1  2.00000   -38.105192     0.000006  0.000016  0.000039  0.000079  0.000146  0.000252  0.000430  0.000733  0.001286  0.002324
                                 0.004363  0.008470  0.016745  0.032544  0.058124  0.084000  0.067234 -0.060148 -0.315079 -0.449749
                                -0.199269  0.378012  0.694711  0.292540  0.023267  0.002060 -0.000240  0.000247 -0.000146  0.000053
                                -0.000025  0.000009  0.000000  0.000000  0.000000  0.000000  0.000000  0.000000  0.000000  0.000000
                                 0.000000  0.000000  0.000000  0.000000  0.000000  0.000000  0.000000  0.000000  0.000000  0.000000
                                -0.000000  0.000000 -0.000000  0.000000 -0.000000  0.000000 -0.000000  0.000000 -0.000000  0.000000
                                -0.000000 -0.000000 -0.000000  0.000000 -0.000000 -0.000000 -0.000000  0.000000  0.000000 -0.000000
                                 0.000000  0.000000  0.000000  0.000000  0.000000  0.000000  0.000000  0.000000  0.000000  0.000000
                                 0.000000  0.000000

   4.1  2.00000   -22.183628    -0.000000 -0.000000 -0.000000 -0.000000 -0.000000 -0.000000 -0.000000 -0.000000 -0.000000 -0.000000
                                -0.000000 -0.000000 -0.000000 -0.000000 -0.000000 -0.000000 -0.000000  0.000000  0.000000  0.000000
                                 0.000000 -0.000000 -0.000000 -0.000000  0.000000  0.000000  0.000000 -0.000000 -0.000000 -0.000000
                                 0.000000 -0.000000  0.000000  0.000020  0.000000  0.000159  0.000000  0.000981  0.000000  0.004659
                                 0.000002  0.017749  0.000005  0.053454  0.000012  0.129586  0.000022  0.235287  0.000029  0.313985
                                 0.000027  0.288614  0.000014  0.151021  0.000003  0.037250  0.000000  0.002310  0.000000  0.000419
                                -0.000000 -0.000191  0.000000  0.000095 -0.000000 -0.000076  0.000000  0.000037 -0.000000 -0.000010
                                 0.000000  0.000000  0.000000  0.000000  0.000000  0.000000  0.000000  0.000000  0.000000  0.000000
                                 0.000000  0.000000

   5.1  2.00000   -22.183628     0.000000  0.000000  0.000000  0.000000  0.000000  0.000000  0.000000  0.000000  0.000000  0.000000
                                 0.000000  0.000000  0.000000  0.000000  0.000000  0.000000  0.000000 -0.000000 -0.000000 -0.000000
                                -0.000000  0.000000  0.000000  0.000000 -0.000000 -0.000000 -0.000000  0.000000  0.000000  0.000000
                                -0.000000  0.000000  0.000020 -0.000000  0.000159 -0.000000  0.000981 -0.000000  0.004659 -0.000000
                                 0.017749 -0.000002  0.053454 -0.000005  0.129586 -0.000012  0.235287 -0.000022  0.313985 -0.000029
                                 0.288614 -0.000027  0.151021 -0.000014  0.037250 -0.000003  0.002310 -0.000000  0.000419 -0.000000
                                -0.000191  0.000000  0.000095 -0.000000 -0.000076  0.000000  0.000037 -0.000000 -0.000010  0.000000
                                 0.000000  0.000000  0.000000  0.000000  0.000000  0.000000  0.000000  0.000000  0.000000  0.000000
                                 0.000000  0.000000

   6.1  2.00000    -7.107802    -0.000003 -0.000007 -0.000018 -0.000035 -0.000065 -0.000113 -0.000192 -0.000327 -0.000574 -0.001037
                                -0.001948 -0.003784 -0.007493 -0.014591 -0.026185 -0.038113 -0.030894  0.028982  0.158150  0.240520
                                 0.111558 -0.260954 -0.758801 -0.304582  0.694207  0.692885  0.110308 -0.013534  0.004272 -0.001239
                                 0.000515 -0.000176 -0.000000 -0.000000 -0.000000 -0.000000 -0.000000 -0.000000 -0.000000 -0.000000
                                -0.000000 -0.000000 -0.000000 -0.000000 -0.000000 -0.000000 -0.000000 -0.000000 -0.000000 -0.000000
                                -0.000000 -0.000000 -0.000000 -0.000000 -0.000000 -0.000000 -0.000000 -0.000000 -0.000000 -0.000000
                                 0.000000  0.000000 -0.000000 -0.000000  0.000000  0.000000 -0.000000 -0.000000  0.000000  0.000000
                                 0.000000  0.000000  0.000000  0.000000  0.000000  0.000000  0.000000  0.000000  0.000000  0.000000
                                 0.000000  0.000000

   7.1  2.00000    -1.952928     0.000000  0.000000  0.000000  0.000000  0.000000  0.000000  0.000000  0.000000  0.000000  0.000000
                                 0.000000  0.000000  0.000000  0.000000  0.000000  0.000000  0.000000 -0.000000 -0.000000 -0.000000
                                -0.000000  0.000000  0.000000  0.000000 -0.000000 -0.000000 -0.000000  0.000000 -0.000000  0.000000
                                -0.000000  0.000000  0.000000  0.000008  0.000000  0.000064  0.000000  0.000392  0.000000  0.001868
                                 0.000000  0.007160  0.000000  0.021752  0.000001  0.053563  0.000001  0.097020  0.000001  0.124615
                                 0.000001  0.091051 -0.000001 -0.075917 -0.000004 -0.294294 -0.000005 -0.391854 -0.000003 -0.293286
                                -0.000001 -0.112803 -0.000000 -0.016040 -0.000000 -0.000358 -0.000000 -0.000336  0.000000  0.000039
                                 0.000000  0.000000  0.000000  0.000000  0.000000  0.000000  0.000000  0.000000  0.000000  0.000000
                                 0.000000  0.000000

   8.1  2.00000    -1.952928     0.000000  0.000000  0.000000  0.000000  0.000000  0.000000  0.000000  0.000000  0.000000  0.000000
                                 0.000000  0.000000  0.000000  0.000000  0.000000  0.000000  0.000000 -0.000000 -0.000000 -0.000000
                                -0.000000  0.000000  0.000000  0.000000 -0.000000 -0.000000 -0.000000  0.000000 -0.000000  0.000000
                                -0.000000  0.000000  0.000008 -0.000000  0.000064 -0.000000  0.000392 -0.000000  0.001868 -0.000000
                                 0.007160 -0.000000  0.021752 -0.000000  0.053563 -0.000001  0.097020 -0.000001  0.124615 -0.000001
                                 0.091051 -0.000001 -0.075917  0.000001 -0.294294  0.000004 -0.391854  0.000005 -0.293286  0.000003
                                -0.112803  0.000001 -0.016040  0.000000 -0.000358  0.000000 -0.000336  0.000000  0.000039 -0.000000
                                 0.000000  0.000000  0.000000  0.000000  0.000000  0.000000  0.000000  0.000000  0.000000  0.000000
                                 0.000000  0.000000

   9.1  2.00000    -0.746787     0.000001  0.000002  0.000006  0.000012  0.000022  0.000037  0.000064  0.000109  0.000191  0.000345
                                 0.000649  0.001260  0.002497  0.004861  0.008740  0.012722  0.010371 -0.009855 -0.053748 -0.083215
                                -0.038736  0.094311  0.305597  0.109761 -0.355811 -0.543070 -0.134671  0.557894  0.631252  0.167745
                                -0.001585  0.001283  0.000000 -0.000000  0.000000 -0.000000  0.000000 -0.000000  0.000000 -0.000000
                                 0.000000 -0.000000  0.000000 -0.000000  0.000000 -0.000000  0.000000 -0.000000  0.000000 -0.000000
                                 0.000000 -0.000000 -0.000000 -0.000000 -0.000000  0.000000 -0.000000  0.000000 -0.000000  0.000000
                                -0.000000  0.000000 -0.000000  0.000000 -0.000000  0.000000 -0.000000  0.000000  0.000000 -0.000000
                                 0.000000  0.000000  0.000000  0.000000  0.000000  0.000000  0.000000  0.000000  0.000000  0.000000
                                 0.000000  0.000000

                                   1 2px     1 2px     1 2px     1 2px     1 2px     1 2px     1 2px     1 2px     1 2px     1 2px  
                                   1 2px     1 2px     1 2px     1 2px     1 2px     1 2px     1 2px     1 2px     1 2px     1 2px  
                                   1 2px     1 2px     1 2px     1 2px     1 2px     1 4f1+    1 4f3+    1 4f1+    1 4f3+    1 4f1+ 
                                   1 4f3+    1 4f1+    1 4f3+    1 4f1+    1 4f3+    1 4f1+    1 4f3+    1 6h1+    1 6h3+    1 6h5+ 


   1.2  2.00000  -164.800845     0.000007  0.000025  0.000082  0.000250  0.000751  0.002256  0.006793  0.019897  0.054256  0.128816
                                 0.244438  0.333601  0.273263  0.109672  0.016976  0.000820  0.000057 -0.000140 -0.000003 -0.000019
                                 0.000008 -0.000003  0.000002 -0.000001  0.000000  0.000000  0.000000  0.000000  0.000000  0.000000
                                 0.000000  0.000000  0.000000  0.000000  0.000000  0.000000  0.000000  0.000000  0.000000  0.000000

   2.2  2.00000   -31.777910    -0.000003 -0.000012 -0.000038 -0.000117 -0.000352 -0.001063 -0.003214 -0.009529 -0.026455 -0.065082
                                -0.129143 -0.186303 -0.121371  0.129714  0.426332  0.427913  0.146455  0.014214  0.000729  0.000181
                                -0.000073  0.000016 -0.000015  0.000006 -0.000002  0.000000  0.000000  0.000000  0.000000  0.000000
                                 0.000000  0.000000  0.000000  0.000000  0.000000  0.000000  0.000000  0.000000  0.000000  0.000000

   3.2  2.00000    -5.051629    -0.000001 -0.000005 -0.000017 -0.000050 -0.000152 -0.000458 -0.001387 -0.004123 -0.011482 -0.028465
                                -0.056973 -0.083410 -0.049797  0.084103  0.273498  0.307011 -0.118137 -0.550253 -0.440385 -0.095536
                                -0.002739 -0.001605  0.000315 -0.000209  0.000079  0.000000  0.000000  0.000000  0.000000  0.000000
                                 0.000000  0.000000  0.000000  0.000000  0.000000  0.000000  0.000000  0.000000  0.000000  0.000000

   4.2  1.33333    -0.239346    -0.000000 -0.000001 -0.000005 -0.000014 -0.000042 -0.000127 -0.000386 -0.001146 -0.003196 -0.007925
                                -0.015904 -0.023298 -0.013759  0.024909  0.081093  0.092687 -0.053874 -0.207715 -0.204561  0.073392
                                 0.444271  0.491013  0.167800 -0.001177  0.002095  0.000000  0.000000  0.000000  0.000000  0.000000
                                 0.000000  0.000000  0.000000  0.000000  0.000000  0.000000  0.000000  0.000000  0.000000  0.000000

                                   1 2py     1 2py     1 2py     1 2py     1 2py     1 2py     1 2py     1 2py     1 2py     1 2py  
                                   1 2py     1 2py     1 2py     1 2py     1 2py     1 2py     1 2py     1 2py     1 2py     1 2py  
                                   1 2py     1 2py     1 2py     1 2py     1 2py     1 4f1-    1 4f3-    1 4f1-    1 4f3-    1 4f1- 
                                   1 4f3-    1 4f1-    1 4f3-    1 4f1-    1 4f3-    1 4f1-    1 4f3-    1 6h1-    1 6h3-    1 6h5- 


   1.3  2.00000  -164.800845     0.000007  0.000025  0.000082  0.000250  0.000751  0.002256  0.006793  0.019897  0.054256  0.128816
                                 0.244438  0.333601  0.273263  0.109672  0.016976  0.000820  0.000057 -0.000140 -0.000003 -0.000019
                                 0.000008 -0.000003  0.000002 -0.000001  0.000000  0.000000  0.000000  0.000000  0.000000  0.000000
                                 0.000000  0.000000  0.000000  0.000000  0.000000  0.000000  0.000000  0.000000  0.000000  0.000000

   2.3  2.00000   -31.777910    -0.000003 -0.000012 -0.000038 -0.000117 -0.000352 -0.001063 -0.003214 -0.009529 -0.026455 -0.065082
                                -0.129143 -0.186303 -0.121371  0.129714  0.426332  0.427913  0.146455  0.014214  0.000729  0.000181
                                -0.000073  0.000016 -0.000015  0.000006 -0.000002  0.000000  0.000000  0.000000  0.000000  0.000000
                                 0.000000  0.000000  0.000000  0.000000  0.000000  0.000000  0.000000  0.000000  0.000000  0.000000

   3.3  2.00000    -5.051629    -0.000001 -0.000005 -0.000017 -0.000050 -0.000152 -0.000458 -0.001387 -0.004123 -0.011482 -0.028465
                                -0.056973 -0.083410 -0.049797  0.084103  0.273498  0.307011 -0.118137 -0.550253 -0.440385 -0.095536
                                -0.002739 -0.001605  0.000315 -0.000209  0.000079  0.000000  0.000000  0.000000  0.000000  0.000000
                                 0.000000  0.000000  0.000000  0.000000  0.000000  0.000000  0.000000  0.000000  0.000000  0.000000

   4.3  1.33333    -0.239346    -0.000000 -0.000001 -0.000005 -0.000014 -0.000042 -0.000127 -0.000386 -0.001146 -0.003196 -0.007925
                                -0.015904 -0.023298 -0.013759  0.024909  0.081093  0.092687 -0.053874 -0.207715 -0.204561  0.073392
                                 0.444271  0.491013  0.167800 -0.001177  0.002095  0.000000  0.000000  0.000000  0.000000  0.000000
                                 0.000000  0.000000  0.000000  0.000000  0.000000  0.000000  0.000000  0.000000  0.000000  0.000000

                                   1 3d2-    1 3d2-    1 3d2-    1 3d2-    1 3d2-    1 3d2-    1 3d2-    1 3d2-    1 3d2-    1 3d2- 
                                   1 3d2-    1 3d2-    1 3d2-    1 3d2-    1 3d2-    1 3d2-    1 3d2-    1 3d2-    1 3d2-    1 5g2- 
                                   1 5g4-    1 5g2-    1 5g4-    1 5g2-    1 5g4-    1 5g2-    1 5g4- 

   1.4  2.00000   -22.183628     0.000020  0.000159  0.000981  0.004659  0.017749  0.053454  0.129586  0.235287  0.313985  0.288614
                                 0.151021  0.037250  0.002310  0.000419 -0.000191  0.000095 -0.000076  0.000037 -0.000010  0.000000
                                 0.000000  0.000000  0.000000  0.000000  0.000000  0.000000  0.000000

   2.4  2.00000    -1.952928     0.000008  0.000064  0.000392  0.001868  0.007160  0.021752  0.053563  0.097020  0.124615  0.091051
                                -0.075917 -0.294294 -0.391854 -0.293286 -0.112803 -0.016040 -0.000358 -0.000336  0.000039  0.000000
                                 0.000000  0.000000  0.000000  0.000000  0.000000  0.000000  0.000000

                                   1 2pz     1 2pz     1 2pz     1 2pz     1 2pz     1 2pz     1 2pz     1 2pz     1 2pz     1 2pz  
                                   1 2pz     1 2pz     1 2pz     1 2pz     1 2pz     1 2pz     1 2pz     1 2pz     1 2pz     1 2pz  
                                   1 2pz     1 2pz     1 2pz     1 2pz     1 2pz     1 4f0     1 4f2+    1 4f0     1 4f2+    1 4f0  
                                   1 4f2+    1 4f0     1 4f2+    1 4f0     1 4f2+    1 4f0     1 4f2+    1 6h2+    1 6h4+    1 6h0  


   1.5  2.00000  -164.800845     0.000007  0.000025  0.000082  0.000250  0.000751  0.002256  0.006793  0.019897  0.054256  0.128816
                                 0.244438  0.333601  0.273263  0.109672  0.016976  0.000820  0.000057 -0.000140 -0.000003 -0.000019
                                 0.000008 -0.000003  0.000002 -0.000001  0.000000  0.000000  0.000000  0.000000  0.000000  0.000000
                                 0.000000  0.000000  0.000000  0.000000  0.000000  0.000000  0.000000  0.000000  0.000000  0.000000

   2.5  2.00000   -31.777910    -0.000003 -0.000012 -0.000038 -0.000117 -0.000352 -0.001063 -0.003214 -0.009529 -0.026455 -0.065082
                                -0.129143 -0.186303 -0.121371  0.129714  0.426332  0.427913  0.146455  0.014214  0.000729  0.000181
                                -0.000073  0.000016 -0.000015  0.000006 -0.000002  0.000000  0.000000  0.000000  0.000000  0.000000
                                 0.000000  0.000000  0.000000  0.000000  0.000000  0.000000  0.000000  0.000000  0.000000  0.000000

   3.5  2.00000    -5.051629    -0.000001 -0.000005 -0.000017 -0.000050 -0.000152 -0.000458 -0.001387 -0.004123 -0.011482 -0.028465
                                -0.056973 -0.083410 -0.049797  0.084103  0.273498  0.307011 -0.118137 -0.550253 -0.440385 -0.095536
                                -0.002739 -0.001605  0.000315 -0.000209  0.000079  0.000000  0.000000  0.000000  0.000000  0.000000
                                 0.000000  0.000000  0.000000  0.000000  0.000000  0.000000  0.000000  0.000000  0.000000  0.000000

   4.5  1.33333    -0.239346     0.000000  0.000001  0.000005  0.000014  0.000042  0.000127  0.000386  0.001146  0.003196  0.007925
                                 0.015904  0.023298  0.013759 -0.024909 -0.081093 -0.092687  0.053874  0.207715  0.204561 -0.073392
                                -0.444271 -0.491013 -0.167800  0.001177 -0.002095  0.000000  0.000000  0.000000  0.000000  0.000000
                                 0.000000  0.000000  0.000000  0.000000  0.000000  0.000000  0.000000  0.000000  0.000000  0.000000

                                   1 3d1+    1 3d1+    1 3d1+    1 3d1+    1 3d1+    1 3d1+    1 3d1+    1 3d1+    1 3d1+    1 3d1+ 
                                   1 3d1+    1 3d1+    1 3d1+    1 3d1+    1 3d1+    1 3d1+    1 3d1+    1 3d1+    1 3d1+    1 5g1+ 
                                   1 5g3+    1 5g1+    1 5g3+    1 5g1+    1 5g3+    1 5g1+    1 5g3+ 

   1.6  2.00000   -22.183628     0.000020  0.000159  0.000981  0.004659  0.017749  0.053454  0.129586  0.235287  0.313985  0.288614
                                 0.151021  0.037250  0.002310  0.000419 -0.000191  0.000095 -0.000076  0.000037 -0.000010  0.000000
                                 0.000000  0.000000  0.000000  0.000000  0.000000  0.000000  0.000000

   2.6  2.00000    -1.952928     0.000008  0.000064  0.000392  0.001868  0.007160  0.021752  0.053563  0.097020  0.124615  0.091051
                                -0.075917 -0.294294 -0.391854 -0.293286 -0.112803 -0.016040 -0.000358 -0.000336  0.000039  0.000000
                                 0.000000  0.000000  0.000000  0.000000  0.000000  0.000000  0.000000

                                   1 3d1-    1 3d1-    1 3d1-    1 3d1-    1 3d1-    1 3d1-    1 3d1-    1 3d1-    1 3d1-    1 3d1- 
                                   1 3d1-    1 3d1-    1 3d1-    1 3d1-    1 3d1-    1 3d1-    1 3d1-    1 3d1-    1 3d1-    1 5g1- 
                                   1 5g3-    1 5g1-    1 5g3-    1 5g1-    1 5g3-    1 5g1-    1 5g3- 

   1.7  2.00000   -22.183628     0.000020  0.000159  0.000981  0.004659  0.017749  0.053454  0.129586  0.235287  0.313985  0.288614
                                 0.151021  0.037250  0.002310  0.000419 -0.000191  0.000095 -0.000076  0.000037 -0.000010  0.000000
                                 0.000000  0.000000  0.000000  0.000000  0.000000  0.000000  0.000000

   2.7  2.00000    -1.952928     0.000008  0.000064  0.000392  0.001868  0.007160  0.021752  0.053563  0.097020  0.124615  0.091051
                                -0.075917 -0.294294 -0.391854 -0.293286 -0.112803 -0.016040 -0.000358 -0.000336  0.000039  0.000000
                                 0.000000  0.000000  0.000000  0.000000  0.000000  0.000000  0.000000
 
 *** IN SYMMETRY 1 ORBITAL  4 SYMMETRY CONTAMINATION OF 0.936D-04 HAS BEEN REMOVED
 *** IN SYMMETRY 1 ORBITAL  5 SYMMETRY CONTAMINATION OF 0.936D-04 HAS BEEN REMOVED
 *** IN SYMMETRY 1 ORBITAL  7 SYMMETRY CONTAMINATION OF 0.119D-04 HAS BEEN REMOVED
 *** IN SYMMETRY 1 ORBITAL  8 SYMMETRY CONTAMINATION OF 0.119D-04 HAS BEEN REMOVED

 EXTRA SYMMETRY OF MOS IN SYMMETRY 1:   1 1 1 3 2 1 3 2 1 1   2 3 1 3 2 1 2 3 6 4   5 2 3 1 2 3 4 6 5 1   2 3 6 4 5 1 2 3 6 4
                                        5 1 2 3 2 3 1 2 3 1   2 3 1 2 3 1 3 2 1 3   2 1 3 2 1 1 3 2 1 3   2 1 1 1 1 1 1 1 1 1
                                        1 1
 EXTRA SYMMETRY OF MOS IN SYMMETRY 2:   1 1 1 1 1 1 1 3 2 3   2 1 2 3 1 2 3 1 5 4   6 2 3 2 3 1 1 1 1 1   1 1 1 1 1 1 1 1 1 1
 EXTRA SYMMETRY OF MOS IN SYMMETRY 3:   1 1 1 1 1 1 1 3 2 2   3 1 2 3 1 2 3 1 5 4   6 2 3 2 3 1 1 1 1 1   1 1 1 1 1 1 1 1 1 1
 EXTRA SYMMETRY OF MOS IN SYMMETRY 4:   1 1 1 1 1 2 3 1 1 2   3 1 2 3 1 2 3 1 1 1   1 1 1 1 1 1 1
 EXTRA SYMMETRY OF MOS IN SYMMETRY 5:   1 1 1 1 1 1 1 2 3 3   2 1 3 2 1 3 2 1 5 6   4 3 2 3 2 1 1 1 1 1   1 1 1 1 1 1 1 1 1 1
 EXTRA SYMMETRY OF MOS IN SYMMETRY 6:   1 1 1 1 1 3 2 1 1 3   2 1 2 3 1 2 3 1 1 1   1 1 1 1 1 1 1
 EXTRA SYMMETRY OF MOS IN SYMMETRY 7:   1 1 1 1 1 3 2 1 1 3   2 1 2 3 1 2 3 1 1 1   1 1 1 1 1 1 1

 Natural orbital dump (state averaged) at molpro section  5202.2    (Orbital set 2)


 CI vector for state symmetry 1
 ==============================

 a a 2           1.0000000

 TOTAL ENERGIES                     -6791.04778828

 CI vector for state symmetry 2
 ==============================

 a 2 a           1.0000000

 TOTAL ENERGIES                     -6791.04778828

 CI vector for state symmetry 3
 ==============================

 2 a a           1.0000000

 TOTAL ENERGIES                     -6791.04778828



 **********************************************************************************************************************************
 DATASETS  * FILE   NREC   LENGTH (MB)   RECORD NAMES
              1      23       71.86       500      610      700      900      950      970     1000      129      960     1700   
                                          VAR    BASINP    GEOM    SYMINP    ZMAT    AOBASIS   BASIS     P2S    ABASIS    OPER   
                                         1101     1401     1411     1412     1650     1100     1400     1410     1200     1210   
                                          SR      EKINR    POTR     PVPR    MOLCAS      S      EKIN      POT      H0       H01  
                                         1080     1600     1380   
                                         AOSYM     SMH     JKOP   

              2       6        8.77       200      700     1000      520     4202     5202   
                                        OPTIONS   GEOM     BASIS   MCVARS     RHF     MCSCF   

 PROGRAMS   *        TOTAL     MULTI       POP       RHF       INT
 CPU TIMES  *        56.83      4.20      0.00      0.93     51.12
 REAL TIME  *        63.11 SEC
 DISK USED  *         1.63 GB      
 SF USED    *       205.67 MB      
 GA USED    *         0.00 MB       (max)       0.00 MB       (current)
 **********************************************************************************************************************************


 PROGRAM * RHF-SCF (OPEN SHELL)       Authors: W. Meyer, H.-J. Werner


 NUMBER OF ELECTRONS:      27+   25-    SPACE SYMMETRY=4    SPIN SYMMETRY: Triplet 
 CONVERGENCE THRESHOLDS:    1.00E-05 (Density)    1.04E-07 (Energy)
 MAX. NUMBER OF ITERATIONS:        0
 INTERPOLATION TYPE:            DIIS
 INTERPOLATION STEPS:              2 (START)      1 (STEP)
 LEVEL SHIFTS:                 -0.60 (CLOSED) -0.30 (OPEN) 

 Number of closed-shell orbitals:   25 (   9   3   3   2   4   2   2   0 )
 Number of open-shell orbitals:      2 (   0   1   1   0   0   0   0   0 )


 Molecular orbitals read from record     5202.2  Type=MCSCF/NATURAL (state averaged)

 Molecular orbital dump at record        2101.2

 ITERATION    DDIFF          GRAD             ENERGY        2-EL.EN.            DIPOLE MOMENTS         DIIS   ORB.
    1      0.000D+00      0.000D+00     -6791.04778828   5058.217376    0.00000    0.00000    0.00000    0    start

 Final alpha occupancy:   9   4   4   2   4   2   2   0
 Final beta  occupancy:   9   3   3   2   4   2   2   0

[...]
                                 0.000000  0.000000  0.000000  0.000000  0.000000  0.000000  0.000000

   3.6  0.20000    -0.543539     0.000002  0.000017  0.000106  0.000501  0.001938  0.005842  0.014541  0.026026  0.033900  0.022677
                                -0.024870 -0.092445 -0.114486 -0.092538  0.110874  0.457160  0.440544  0.123662  0.000234  0.000000
                                 0.000000  0.000000  0.000000  0.000000  0.000000  0.000000  0.000000

                                   1 3d1-    1 3d1-    1 3d1-    1 3d1-    1 3d1-    1 3d1-    1 3d1-    1 3d1-    1 3d1-    1 3d1- 
                                   1 3d1-    1 3d1-    1 3d1-    1 3d1-    1 3d1-    1 3d1-    1 3d1-    1 3d1-    1 3d1-    1 5g1- 
                                   1 5g3-    1 5g1-    1 5g3-    1 5g1-    1 5g3-    1 5g1-    1 5g3- 

   1.7  2.00000   -23.437842     0.000020  0.000159  0.000981  0.004660  0.017753  0.053469  0.129611  0.235332  0.314012  0.288649
                                 0.150930  0.037124  0.002317  0.000431 -0.000168  0.000101 -0.000073  0.000036 -0.000010  0.000000
                                 0.000000  0.000000  0.000000  0.000000  0.000000  0.000000  0.000000

   2.7  2.00000    -3.188246    -0.000008 -0.000064 -0.000395 -0.001883 -0.007219 -0.021926 -0.053999 -0.097787 -0.125619 -0.091635
                                 0.076796  0.297168  0.394286  0.299185  0.101760  0.004872  0.000994 -0.000516  0.000162  0.000000
                                 0.000000  0.000000  0.000000  0.000000  0.000000  0.000000  0.000000

   3.7  0.20000    -0.543539     0.000002  0.000017  0.000106  0.000501  0.001938  0.005842  0.014541  0.026026  0.033900  0.022677
                                -0.024870 -0.092445 -0.114486 -0.092538  0.110874  0.457160  0.440544  0.123662  0.000234  0.000000
                                 0.000000  0.000000  0.000000  0.000000  0.000000  0.000000  0.000000

 Total charge:   3.000000000000
 
 *** IN SYMMETRY 1 ORBITAL  4 SYMMETRY CONTAMINATION OF 0.720D-03 HAS BEEN REMOVED
 *** IN SYMMETRY 1 ORBITAL  5 SYMMETRY CONTAMINATION OF 0.720D-03 HAS BEEN REMOVED
 *** IN SYMMETRY 1 ORBITAL  7 SYMMETRY CONTAMINATION OF 0.892D-04 HAS BEEN REMOVED
 *** IN SYMMETRY 1 ORBITAL  8 SYMMETRY CONTAMINATION OF 0.892D-04 HAS BEEN REMOVED

 EXTRA SYMMETRY OF MOS IN SYMMETRY 1:   1 1 1 3 2 1 2 3 1 3   2 1 1 2 3 1 3 2 6 4   5 2 3 1 4 6 5 2 3 1   2 3 6 4 5 1 2 3 6 4
                                        5 1 2 3 2 3 1 2 3 1   2 3 1 2 3 1 3 2 1 3   2 1 3 2 1 1 3 2 1 3   2 1 1 1 1 1 1 1 1 1
                                        1 1
 EXTRA SYMMETRY OF MOS IN SYMMETRY 2:   1 1 1 1 1 2 3 1 1 2   3 1 2 3 1 2 3 1 4 5   6 2 3 2 3 1 1 1 1 1   1 1 1 1 1 1 1 1 1 1
 EXTRA SYMMETRY OF MOS IN SYMMETRY 5:   1 1 1 1 1 3 2 1 1 3   2 1 3 2 1 3 2 1 5 6   4 3 2 3 2 1 1 1 1 1   1 1 1 1 1 1 1 1 1 1
 EXTRA SYMMETRY OF MOS IN SYMMETRY 6:   1 1 1 1 1 3 2 1 3 2   1 1 2 3 1 2 3 1 1 1   1 1 1 1 1 1 1
 EXTRA SYMMETRY OF MOS IN SYMMETRY 7:   1 1 1 1 1 3 2 1 3 2   1 1 2 3 1 2 3 1 1 1   1 1 1 1 1 1 1
 EXTRA SYMMETRY OF MOS IN SYMMETRY 8:   1 1 1 1 2 3 1 1

 Natural orbital dump (state averaged) at molpro section  5202.2    (Orbital set 2)


 CI vector for state symmetry 1
 ==============================

 0a 0 0 0          0.9999967  -0.0025499
 a0 0 0 0          0.0025499   0.9999967

 TOTAL ENERGIES                     -6788.56685656 -6788.56685656

 CI vector for state symmetry 2
 ==============================

 00 a 0 0          1.0000000

 TOTAL ENERGIES                     -6788.56685656

 CI vector for state symmetry 3
 ==============================

 00 0 a 0          1.0000000

 TOTAL ENERGIES                     -6788.56685656

 CI vector for state symmetry 4
 ==============================

 00 0 0 a          1.0000000

 TOTAL ENERGIES                     -6788.56685656



 **********************************************************************************************************************************
 DATASETS  * FILE   NREC   LENGTH (MB)   RECORD NAMES
              1      23       91.49       500      610      700      900      950      970     1000      129      960     1700   
                                          VAR    BASINP    GEOM    SYMINP    ZMAT    AOBASIS   BASIS     P2S    ABASIS    OPER   
                                         1101     1401     1411     1412     1650     1100     1400     1410     1200     1210   
                                          SR      EKINR    POTR     PVPR    MOLCAS      S      EKIN      POT      H0       H01  
                                         1080     1600     1380   
                                         AOSYM     SMH     JKOP   

              2      16       36.32       200      700     1000      520     4202     5202     2101     2103     2105     2107   
                                        OPTIONS   GEOM     BASIS   MCVARS     RHF     MCSCF     RHF      RHF      RHF      RHF  
                                         2109     5202(1)  2111     2113     2115     2117   
                                          RHF     MCSCF     RHF      RHF      RHF      RHF  

 PROGRAMS   *        TOTAL     MULTI       POP       RHF  RCCSD(T)       RHF     MULTI       POP       RHF  RCCSD(T)       RHF
 CPU TIMES  *       117.91      4.29      0.01      0.96      0.64      0.06      1.18      0.00      0.78      1.11      0.03
 REAL TIME  *       163.40 SEC
 DISK USED  *         3.14 GB      
 SF USED    *       330.93 MB      
 GA USED    *         0.00 MB       (max)       0.00 MB       (current)
 **********************************************************************************************************************************


 PROGRAM * RHF-SCF (OPEN SHELL)       Authors: W. Meyer, H.-J. Werner


 NUMBER OF ELECTRONS:      25+   24-    SPACE SYMMETRY=1    SPIN SYMMETRY: Doublet 
 CONVERGENCE THRESHOLDS:    1.00E-05 (Density)    1.00E-07 (Energy)
 MAX. NUMBER OF ITERATIONS:        0
 INTERPOLATION TYPE:            DIIS
 INTERPOLATION STEPS:              2 (START)      1 (STEP)
 LEVEL SHIFTS:                 -0.60 (CLOSED) -0.30 (OPEN) 

 Number of closed-shell orbitals:   24 (   9   3   3   2   3   2   2   0 )
 Number of open-shell orbitals:      1 (   1   0   0   0   0   0   0   0 )


 Molecular orbitals read from record     5202.2  Type=MCSCF/NATURAL (state averaged)

 Molecular orbital dump at record        2119.2

 ITERATION    DDIFF          GRAD             ENERGY        2-EL.EN.            DIPOLE MOMENTS         DIIS   ORB.
    1      0.000D+00      0.000D+00     -6788.56685660   4935.617028    0.00000    0.00000    0.00000    0    start

 Final alpha occupancy:  10   3   3   2   3   2   2   0
 Final beta  occupancy:   9   3   3   2   3   2   2   0

 !RHF STATE 1.1 Energy              -6788.566856598484
 Nuclear energy                         0.00000000
 One-electron energy                -9256.37537066
 Two-electron energy                 2467.80851406
 Virial quotient                       -0.85504811
 !RHF STATE 1.1 Dipole moment           0.00000000     0.00000000     0.00000000
 Dipole moment /Debye                   0.00000000     0.00000000     0.00000000

 Orbital energies:

         1.1          2.1          3.1          4.1          5.1          6.1          7.1          8.1          9.1         10.1
  -1176.236537  -185.018778   -39.358776   -23.437842   -23.437842    -8.349700    -3.188246    -3.188246    -1.756311    -0.543539

        11.1         12.1
     -0.543539    -0.526537

         1.2          2.2          3.2          4.2          5.2
   -166.061246   -33.028649    -6.287913    -1.020250    -0.417684

         1.3          2.3          3.3          4.3          5.3
   -166.061246   -33.028649    -6.287913    -1.020250    -0.417684

         1.4          2.4          3.4          4.4
    -23.437842    -3.188246    -0.543539    -0.282864

         1.5          2.5          3.5          4.5          5.5
   -166.061246   -33.028649    -6.287913    -1.020250    -0.417684

         1.6          2.6          3.6          4.6
    -23.437842    -3.188246    -0.543539    -0.282864

         1.7          2.7          3.7          4.7
    -23.437842    -3.188246    -0.543539    -0.282864

         1.8          2.8
     -0.303837    -0.037321

 HOMO     10.1    -0.543539 =     -14.7905eV
 LUMO      4.2    -1.020250 =     -27.7624eV
 LUMO-HOMO        -0.476711 =     -12.9720eV


 **********************************************************************************************************************************
 DATASETS  * FILE   NREC   LENGTH (MB)   RECORD NAMES
              1      23       91.49       500      610      700      900      950      970     1000      129      960     1700   
                                          VAR    BASINP    GEOM    SYMINP    ZMAT    AOBASIS   BASIS     P2S    ABASIS    OPER   
                                         1101     1401     1411     1412     1650     1100     1400     1410     1200     1210   
                                          SR      EKINR    POTR     PVPR    MOLCAS      S      EKIN      POT      H0       H01  
                                         1080     1600     1380   
                                         AOSYM     SMH     JKOP   

              2      17       39.49       200      700     1000      520     4202     5202     2101     2103     2105     2107   
                                        OPTIONS   GEOM     BASIS   MCVARS     RHF     MCSCF     RHF      RHF      RHF      RHF  
                                         2109     5202(1)  2111     2113     2115     2117     2119   
                                          RHF     MCSCF     RHF      RHF      RHF      RHF      RHF  

 PROGRAMS   *        TOTAL       RHF     MULTI       POP       RHF  RCCSD(T)       RHF     MULTI       POP       RHF  RCCSD(T)
 CPU TIMES  *       118.01      0.10      4.29      0.01      0.96      0.64      0.06      1.18      0.00      0.78      1.11
 REAL TIME  *       163.54 SEC
 DISK USED  *         3.14 GB      
 SF USED    *       330.93 MB      
 GA USED    *         0.00 MB       (max)       0.00 MB       (current)
 **********************************************************************************************************************************
 SETTING SCF(10)        =     -6788.56685660  AU                              
 SETTING _CC_NORM_MAX   =         2.00000000                                  


 PROGRAM * CCSD (Restricted open-shell coupled cluster)     Authors: C. Hampel, H.-J. Werner, 1991, M. Deegan, P.J. Knowles, 1992


 Convergence thresholds:  THRVAR = 1.00D-08  THRDEN = 1.00D-06

 CCSD(T)     terms to be evaluated (factor= 1.000)


 Number of core orbitals:          23 (   8   3   3   2   3   2   2   0 )
 Number of closed-shell orbitals:   1 (   1   0   0   0   0   0   0   0 )
 Number of active  orbitals:        1 (   1   0   0   0   0   0   0   0 )
 Number of external orbitals:     266 (  72  37  37  25  37  25  25   8 )

 Memory could be reduced to 21.86 Mwords without degradation in triples

 Number of N-1 electron functions:               3
 Number of N-2 electron functions:               3
 Number of singly external CSFs:               219
 Number of doubly external CSFs:             28304
 Total number of CSFs:                       28523

 Molecular orbitals read from record     2119.2  Type=RHF/CANONICAL (state 1.1)

 Integral transformation finished. Total CPU:   0.19 sec, npass=  1  Memory used:   2.18 MW

 Starting RMP2 calculation

 Wavefunction is spin-projected

 ITER.      SQ.NORM     CORR.ENERGY   TOTAL ENERGY   ENERGY CHANGE        DEN1      VAR(S)    VAR(P)  DIIS     TIME
   1      1.04633049    -0.05628474 -6788.62314134    -0.05628474    -0.00133970  0.14D-05  0.15D-02  1  1     0.23
   2      1.05102392    -0.05793268 -6788.62478928    -0.00164794    -0.00001777  0.21D-07  0.23D-04  2  2     0.24
   3      1.05157803    -0.05805555 -6788.62491214    -0.00012286    -0.00000004  0.11D-09  0.29D-07  3  3     0.24
   4      1.05159089    -0.05805782 -6788.62491442    -0.00000228    -0.00000000  0.12D-12  0.36D-10  4  4     0.24
   5      1.05159114    -0.05805789 -6788.62491449    -0.00000007    -0.00000000  0.42D-15  0.60D-13  5  5     0.25

 Norm of t1 vector:      0.01540111      S-energy:    -0.00039993      T1 diagnostic:  0.00428498
 Norm of t2 vector:      0.22661409      P-energy:    -0.05765796
                                         Alpha-Beta:  -0.05128852
                                         Alpha-Alpha: -0.00636945
                                         Beta-Beta:    0.00000000

 Spin contamination <S**2-Sz**2-Sz>     0.00000000
  Reference energy                  -6788.566856598468
  RHF-RMP2 correlation energy          -0.058057891680
 !RHF-RMP2 energy                   -6788.624914490148
 (NB above energy spin projected)

 Starting RCCSD calculation

 ITER.      SQ.NORM     CORR.ENERGY   TOTAL ENERGY   ENERGY CHANGE        DEN1      VAR(S)    VAR(P)  DIIS     TIME
   1      1.07974454    -0.06568206 -6788.63253866    -0.06568206    -0.01137563  0.23D-03  0.13D-01  1  1     0.30
   2      1.16462291    -0.07848871 -6788.64534531    -0.01280665    -0.00997886  0.20D-03  0.14D-01  2  2     0.35
   3      1.09363220    -0.07046201 -6788.63731861     0.00802670    -0.00897356  0.24D-03  0.12D-01  3  3     0.40
   4      1.83816772    -0.00237948 -6788.56923608     0.06808254    -0.00059665  0.83D-04  0.41D-03  4  4     0.45
   5      1.09290680    -0.04430142 -6788.61115802    -0.04192194    -0.00006524  0.59D-05  0.36D-04  5  5     0.49
   6      1.22892504    -0.03138882 -6788.59824542     0.01291259    -0.00000966  0.50D-06  0.58D-05  6  6     0.54
   7      1.31979753    -0.02561931 -6788.59247591     0.00576951    -0.00000128  0.14D-06  0.73D-06  6  1     0.58
   8      1.29930232    -0.02686082 -6788.59371742    -0.00124151    -0.00000006  0.30D-08  0.35D-07  6  2     0.63
   9      1.30518606    -0.02650202 -6788.59335861     0.00035880    -0.00000001  0.45D-09  0.77D-08  6  5     0.66
  10      1.30391749    -0.02657827 -6788.59343487    -0.00007625    -0.00000000  0.11D-10  0.29D-09  6  6     0.71
  11      1.30423264    -0.02656000 -6788.59341660     0.00001827    -0.00000000  0.25D-11  0.18D-10  6  3     0.75
  12      1.30424932    -0.02655881 -6788.59341541     0.00000119    -0.00000000  0.11D-12  0.17D-11  6  4     0.80
  13      1.30425800    -0.02655821 -6788.59341481     0.00000060    -0.00000000  0.56D-14  0.16D-12  6  1     0.84

 Norm of t1 vector:      0.04855126      S-energy:    -0.00074817      T1 diagnostic:  0.01743986
                                                                       D1 diagnostic:  0.02484236
 Norm of t2 vector:      0.54945498      P-energy:    -0.02581004
                                         Alpha-Beta:  -0.01783192
                                         Alpha-Alpha: -0.00797812
                                         Beta-Beta:    0.00000000

 Doubles amplitudes (print threshold =  0.500E-01):

         I         J         SYM. A    SYM. B    A         B      T(IJ, AB) [Alpha-Beta]

         1         1         2         2         1         1     -0.09139009
         1         1         3         3         1         1     -0.09139009
         1         1         5         5         1         1     -0.09557522
         2         1         2         2         1         1      0.34434525
         2         1         2         2         4         1      0.06194130
         2         1         3         3         1         1     -0.34434525
         2         1         3         3         3         1     -0.06194130
         2         1         5         5         3         1      0.05044324

 Spin contamination <S**2-Sz**2-Sz>     0.00000000

 Memory could be reduced to 22.00 Mwords without degradation in triples
 

 RESULTS
 =======

  Reference energy                  -6788.566856598468
  RCCSD singles energy                 -0.000748166811
  RCCSD pair energy                    -0.025810042653
  RCCSD correlation energy             -0.026558209463
  Triples (T) contribution             -0.005453043878
  Total correlation energy             -0.032011253341
 
  RHF-RCCSD energy                  -6788.593414807931
  RHF-RCCSD[T] energy               -6788.598922089926
  RHF-RCCSD-T energy                -6788.598879374132
 !RHF-RCCSD(T) energy               -6788.598867851809

 Program statistics:

 Available memory in ccsd:               511999848
 Min. memory needed in ccsd:                412859
 Max. memory used in ccsd:                  419306
 Max. memory used in cckext:                582339 (13 integral passes)
 Max. memory used in cckint:               2175748 ( 1 integral passes)



 **********************************************************************************************************************************
 DATASETS  * FILE   NREC   LENGTH (MB)   RECORD NAMES
              1      23       91.49       500      610      700      900      950      970     1000      129      960     1700   
                                          VAR    BASINP    GEOM    SYMINP    ZMAT    AOBASIS   BASIS     P2S    ABASIS    OPER   
                                         1101     1401     1411     1412     1650     1100     1400     1410     1200     1210   
                                          SR      EKINR    POTR     PVPR    MOLCAS      S      EKIN      POT      H0       H01  
                                         1080     1600     1380   
                                         AOSYM     SMH     JKOP   

              2      17       39.49       200      700     1000      520     4202     5202     2101     2103     2105     2107   
                                        OPTIONS   GEOM     BASIS   MCVARS     RHF     MCSCF     RHF      RHF      RHF      RHF  
                                         2109     5202(1)  2111     2113     2115     2117     2119   
                                          RHF     MCSCF     RHF      RHF      RHF      RHF      RHF  

 PROGRAMS   *        TOTAL  RCCSD(T)       RHF     MULTI       POP       RHF  RCCSD(T)       RHF     MULTI       POP       RHF
 CPU TIMES  *       119.50      1.48      0.10      4.29      0.01      0.96      0.64      0.06      1.18      0.00      0.78
 REAL TIME  *       165.52 SEC
 DISK USED  *         3.21 GB      
 SF USED    *       330.93 MB      
 GA USED    *         0.00 MB       (max)       0.00 MB       (current)
 **********************************************************************************************************************************
 SETTING CCSD(10)       =     -6788.59886785  AU                              
 Output type csv         
                                                                                                                                                                                                                                                                

         SCF,CCSD
   -6791.047788,   -6791.171039
   -6790.886718,   -6790.981810
   -6791.087899,   -6791.245608
   -6790.769262,   -6790.853148
   -6790.419771,   -6790.532593
   -6790.190599,   -6790.225227
   -6790.092364,   -6790.161690
   -6789.102298,   -6789.155912
   -6787.777879,   -6787.814941
   -6788.566857,   -6788.598868
                                                  

 RCCSD(T)/USERDEF energy=  -6788.598867851809

        RCCSD(T)        RHF-SCF         MULTI           RHF-SCF         RCCSD(T)        RHF-SCF         MULTI           RHF-SCF 
  -6788.59886785  -6788.56685660  -6788.56685656  -6788.56721148  -6787.81494065  -6787.77787852  -6787.77787852  -6787.77787852
 **********************************************************************************************************************************
 Molpro calculation terminated
 Variable memory released
