/global/cscratch1/sd/bkincaid/cutoffs/Pd/250-610/runs/scf_510

     Program PWSCF v.6.4.1 starts on 17Jan2022 at 17:39:28 

     This program is part of the open-source Quantum ESPRESSO suite
     for quantum simulation of materials; please cite
         "P. Giannozzi et al., J. Phys.:Condens. Matter 21 395502 (2009);
         "P. Giannozzi et al., J. Phys.:Condens. Matter 29 465901 (2017);
          URL http://www.quantum-espresso.org", 
     in publications or presentations arising from this work. More details at
     http://www.quantum-espresso.org/quote

     Parallel version (MPI & OpenMP), running on      32 processor cores
     Number of MPI processes:                32
     Threads/MPI process:                     1

     MPI processes distributed on     1 nodes
     R & G space division:  proc/nbgrp/npool/nimage =      32
     Reading input from scf_510.in

     Current dimensions of program PWSCF are:
     Max number of different atomic species (ntypx) = 10
     Max number of k-points (npk) =  40000
     Max angular momentum in pseudopotentials (lmaxx) =  3

     IMPORTANT: XC functional enforced from input :
     Exchange-correlation      = PBE ( 1  4  3  4 0 0)
     Any further DFT definition will be discarded
     Please, verify this is what you really want


     gamma-point specific algorithms are used

     Subspace diagonalization in iterative solution of the eigenvalue problem:
     one sub-group per band group will be used
     scalapack distributed-memory algorithm (size of sub-group:  4*  4 procs)

     Message from routine setup:
     DEPRECATED: symmetry with ibrav=0, use correct ibrav instead
 
     Parallelization info
     --------------------
     sticks:   dense  smooth     PW     G-vecs:    dense   smooth      PW
     Min        2607    2607    651               567000   567000   70884
     Max        2610    2610    654               567012   567012   70890
     Sum       83473   83473  20889             18144183 18144183 2268371
 


     bravais-lattice index     =            0
     lattice parameter (alat)  =      22.6767  a.u.
     unit-cell volume          =   11661.1222 (a.u.)^3
     number of atoms/cell      =            1
     number of atomic types    =            1
     number of electrons       =        18.00 (up:   9.00, down:   9.00)
     number of Kohn-Sham states=           12
     kinetic-energy cutoff     =     510.0000  Ry
     charge density cutoff     =    2040.0000  Ry
     convergence threshold     =      1.0E-06
     mixing beta               =       0.7000
     number of iterations used =            8  plain     mixing
     Exchange-correlation      = PBE ( 1  4  3  4 0 0)

     celldm(1)=  22.676714  celldm(2)=   0.000000  celldm(3)=   0.000000
     celldm(4)=   0.000000  celldm(5)=   0.000000  celldm(6)=   0.000000

     crystal axes: (cart. coord. in units of alat)
               a(1) = (   1.000000   0.000000   0.000000 )  
               a(2) = (   0.000000   1.000000   0.000000 )  
               a(3) = (   0.000000   0.000000   1.000000 )  

     reciprocal axes: (cart. coord. in units 2 pi/alat)
               b(1) = (  1.000000  0.000000  0.000000 )  
               b(2) = (  0.000000  1.000000  0.000000 )  
               b(3) = (  0.000000  0.000000  1.000000 )  


     PseudoPot. # 1 for Pd read from file:
     ./Pd.upf
     MD5 check sum: 2db6b29890942ac22920366b342684d2
     Pseudo is Norm-conserving, Zval = 18.0
     Generated by new atomic code, or converted to UPF format
     Using radial grid of 1174 points,  2 beta functions with: 
                l(1) =   0
                l(2) =   2

     atomic species   valence    mass     pseudopotential
        Pd            18.00   106.42000     Pd( 1.00)

     Starting magnetic structure 
     atomic species   magnetization
        Pd           0.500

     48 Sym. Ops., with inversion, found


                                    s                        frac. trans.

      isym =  1     identity                                     

 cryst.   s( 1) = (     1          0          0      )
                  (     0          1          0      )
                  (     0          0          1      )

 cart.    s( 1) = (  1.0000000  0.0000000  0.0000000 )
                  (  0.0000000  1.0000000  0.0000000 )
                  (  0.0000000  0.0000000  1.0000000 )


      isym =  2     180 deg rotation - cart. axis [0,0,1]        

 cryst.   s( 2) = (    -1          0          0      )
                  (     0         -1          0      )
                  (     0          0          1      )

 cart.    s( 2) = ( -1.0000000  0.0000000  0.0000000 )
                  (  0.0000000 -1.0000000  0.0000000 )
                  (  0.0000000  0.0000000  1.0000000 )


      isym =  3     180 deg rotation - cart. axis [0,1,0]        

 cryst.   s( 3) = (    -1          0          0      )
                  (     0          1          0      )
                  (     0          0         -1      )

 cart.    s( 3) = ( -1.0000000  0.0000000  0.0000000 )
                  (  0.0000000  1.0000000  0.0000000 )
                  (  0.0000000  0.0000000 -1.0000000 )


      isym =  4     180 deg rotation - cart. axis [1,0,0]        

 cryst.   s( 4) = (     1          0          0      )
                  (     0         -1          0      )
                  (     0          0         -1      )

 cart.    s( 4) = (  1.0000000  0.0000000  0.0000000 )
                  (  0.0000000 -1.0000000  0.0000000 )
                  (  0.0000000  0.0000000 -1.0000000 )


      isym =  5     180 deg rotation - cart. axis [1,1,0]        

 cryst.   s( 5) = (     0          1          0      )
                  (     1          0          0      )
                  (     0          0         -1      )

 cart.    s( 5) = (  0.0000000  1.0000000  0.0000000 )
                  (  1.0000000  0.0000000  0.0000000 )
                  (  0.0000000  0.0000000 -1.0000000 )


      isym =  6     180 deg rotation - cart. axis [1,-1,0]       

 cryst.   s( 6) = (     0         -1          0      )
                  (    -1          0          0      )
                  (     0          0         -1      )

 cart.    s( 6) = (  0.0000000 -1.0000000  0.0000000 )
                  ( -1.0000000  0.0000000  0.0000000 )
                  (  0.0000000  0.0000000 -1.0000000 )


      isym =  7      90 deg rotation - cart. axis [0,0,-1]       

 cryst.   s( 7) = (     0         -1          0      )
                  (     1          0          0      )
                  (     0          0          1      )

 cart.    s( 7) = (  0.0000000  1.0000000  0.0000000 )
                  ( -1.0000000  0.0000000  0.0000000 )
                  (  0.0000000  0.0000000  1.0000000 )


      isym =  8      90 deg rotation - cart. axis [0,0,1]        

 cryst.   s( 8) = (     0          1          0      )
                  (    -1          0          0      )
                  (     0          0          1      )

 cart.    s( 8) = (  0.0000000 -1.0000000  0.0000000 )
                  (  1.0000000  0.0000000  0.0000000 )
                  (  0.0000000  0.0000000  1.0000000 )


      isym =  9     180 deg rotation - cart. axis [1,0,1]        

 cryst.   s( 9) = (     0          0          1      )
                  (     0         -1          0      )
                  (     1          0          0      )

 cart.    s( 9) = (  0.0000000  0.0000000  1.0000000 )
                  (  0.0000000 -1.0000000  0.0000000 )
                  (  1.0000000  0.0000000  0.0000000 )


      isym = 10     180 deg rotation - cart. axis [-1,0,1]       

 cryst.   s(10) = (     0          0         -1      )
                  (     0         -1          0      )
                  (    -1          0          0      )

 cart.    s(10) = (  0.0000000  0.0000000 -1.0000000 )
                  (  0.0000000 -1.0000000  0.0000000 )
                  ( -1.0000000  0.0000000  0.0000000 )


      isym = 11      90 deg rotation - cart. axis [0,1,0]        

 cryst.   s(11) = (     0          0         -1      )
                  (     0          1          0      )
                  (     1          0          0      )

 cart.    s(11) = (  0.0000000  0.0000000  1.0000000 )
                  (  0.0000000  1.0000000  0.0000000 )
                  ( -1.0000000  0.0000000  0.0000000 )


      isym = 12      90 deg rotation - cart. axis [0,-1,0]       

 cryst.   s(12) = (     0          0          1      )
                  (     0          1          0      )
                  (    -1          0          0      )

 cart.    s(12) = (  0.0000000  0.0000000 -1.0000000 )
                  (  0.0000000  1.0000000  0.0000000 )
                  (  1.0000000  0.0000000  0.0000000 )


      isym = 13     180 deg rotation - cart. axis [0,1,1]        

 cryst.   s(13) = (    -1          0          0      )
                  (     0          0          1      )
                  (     0          1          0      )

 cart.    s(13) = ( -1.0000000  0.0000000  0.0000000 )
                  (  0.0000000  0.0000000  1.0000000 )
                  (  0.0000000  1.0000000  0.0000000 )


      isym = 14     180 deg rotation - cart. axis [0,1,-1]       

 cryst.   s(14) = (    -1          0          0      )
                  (     0          0         -1      )
                  (     0         -1          0      )

 cart.    s(14) = ( -1.0000000  0.0000000  0.0000000 )
                  (  0.0000000  0.0000000 -1.0000000 )
                  (  0.0000000 -1.0000000  0.0000000 )


      isym = 15      90 deg rotation - cart. axis [-1,0,0]       

 cryst.   s(15) = (     1          0          0      )
                  (     0          0         -1      )
                  (     0          1          0      )

 cart.    s(15) = (  1.0000000  0.0000000  0.0000000 )
                  (  0.0000000  0.0000000  1.0000000 )
                  (  0.0000000 -1.0000000  0.0000000 )


      isym = 16      90 deg rotation - cart. axis [1,0,0]        

 cryst.   s(16) = (     1          0          0      )
                  (     0          0          1      )
                  (     0         -1          0      )

 cart.    s(16) = (  1.0000000  0.0000000  0.0000000 )
                  (  0.0000000  0.0000000 -1.0000000 )
                  (  0.0000000  1.0000000  0.0000000 )


      isym = 17     120 deg rotation - cart. axis [-1,-1,-1]     

 cryst.   s(17) = (     0          0          1      )
                  (     1          0          0      )
                  (     0          1          0      )

 cart.    s(17) = (  0.0000000  1.0000000  0.0000000 )
                  (  0.0000000  0.0000000  1.0000000 )
                  (  1.0000000  0.0000000  0.0000000 )


      isym = 18     120 deg rotation - cart. axis [-1,1,1]       

 cryst.   s(18) = (     0          0         -1      )
                  (    -1          0          0      )
                  (     0          1          0      )

 cart.    s(18) = (  0.0000000 -1.0000000  0.0000000 )
                  (  0.0000000  0.0000000  1.0000000 )
                  ( -1.0000000  0.0000000  0.0000000 )


      isym = 19     120 deg rotation - cart. axis [1,1,-1]       

 cryst.   s(19) = (     0          0         -1      )
                  (     1          0          0      )
                  (     0         -1          0      )

 cart.    s(19) = (  0.0000000  1.0000000  0.0000000 )
                  (  0.0000000  0.0000000 -1.0000000 )
                  ( -1.0000000  0.0000000  0.0000000 )


      isym = 20     120 deg rotation - cart. axis [1,-1,1]       

 cryst.   s(20) = (     0          0          1      )
                  (    -1          0          0      )
                  (     0         -1          0      )

 cart.    s(20) = (  0.0000000 -1.0000000  0.0000000 )
                  (  0.0000000  0.0000000 -1.0000000 )
                  (  1.0000000  0.0000000  0.0000000 )


      isym = 21     120 deg rotation - cart. axis [1,1,1]        

 cryst.   s(21) = (     0          1          0      )
                  (     0          0          1      )
                  (     1          0          0      )

 cart.    s(21) = (  0.0000000  0.0000000  1.0000000 )
                  (  1.0000000  0.0000000  0.0000000 )
                  (  0.0000000  1.0000000  0.0000000 )


      isym = 22     120 deg rotation - cart. axis [-1,1,-1]      

 cryst.   s(22) = (     0         -1          0      )
                  (     0          0         -1      )
                  (     1          0          0      )

 cart.    s(22) = (  0.0000000  0.0000000  1.0000000 )
                  ( -1.0000000  0.0000000  0.0000000 )
                  (  0.0000000 -1.0000000  0.0000000 )


      isym = 23     120 deg rotation - cart. axis [1,-1,-1]      

 cryst.   s(23) = (     0         -1          0      )
                  (     0          0          1      )
                  (    -1          0          0      )

 cart.    s(23) = (  0.0000000  0.0000000 -1.0000000 )
                  ( -1.0000000  0.0000000  0.0000000 )
                  (  0.0000000  1.0000000  0.0000000 )


      isym = 24     120 deg rotation - cart. axis [-1,-1,1]      

 cryst.   s(24) = (     0          1          0      )
                  (     0          0         -1      )
                  (    -1          0          0      )

 cart.    s(24) = (  0.0000000  0.0000000 -1.0000000 )
                  (  1.0000000  0.0000000  0.0000000 )
                  (  0.0000000 -1.0000000  0.0000000 )


      isym = 25     inversion                                    

 cryst.   s(25) = (    -1          0          0      )
                  (     0         -1          0      )
                  (     0          0         -1      )

 cart.    s(25) = ( -1.0000000  0.0000000  0.0000000 )
                  (  0.0000000 -1.0000000  0.0000000 )
                  (  0.0000000  0.0000000 -1.0000000 )


      isym = 26     inv. 180 deg rotation - cart. axis [0,0,1]   

 cryst.   s(26) = (     1          0          0      )
                  (     0          1          0      )
                  (     0          0         -1      )

 cart.    s(26) = (  1.0000000  0.0000000  0.0000000 )
                  (  0.0000000  1.0000000  0.0000000 )
                  (  0.0000000  0.0000000 -1.0000000 )


      isym = 27     inv. 180 deg rotation - cart. axis [0,1,0]   

 cryst.   s(27) = (     1          0          0      )
                  (     0         -1          0      )
                  (     0          0          1      )

 cart.    s(27) = (  1.0000000  0.0000000  0.0000000 )
                  (  0.0000000 -1.0000000  0.0000000 )
                  (  0.0000000  0.0000000  1.0000000 )


      isym = 28     inv. 180 deg rotation - cart. axis [1,0,0]   

 cryst.   s(28) = (    -1          0          0      )
                  (     0          1          0      )
                  (     0          0          1      )

 cart.    s(28) = ( -1.0000000  0.0000000  0.0000000 )
                  (  0.0000000  1.0000000  0.0000000 )
                  (  0.0000000  0.0000000  1.0000000 )


      isym = 29     inv. 180 deg rotation - cart. axis [1,1,0]   

 cryst.   s(29) = (     0         -1          0      )
                  (    -1          0          0      )
                  (     0          0          1      )

 cart.    s(29) = (  0.0000000 -1.0000000  0.0000000 )
                  ( -1.0000000  0.0000000  0.0000000 )
                  (  0.0000000  0.0000000  1.0000000 )


      isym = 30     inv. 180 deg rotation - cart. axis [1,-1,0]  

 cryst.   s(30) = (     0          1          0      )
                  (     1          0          0      )
                  (     0          0          1      )

 cart.    s(30) = (  0.0000000  1.0000000  0.0000000 )
                  (  1.0000000  0.0000000  0.0000000 )
                  (  0.0000000  0.0000000  1.0000000 )


      isym = 31     inv.  90 deg rotation - cart. axis [0,0,-1]  

 cryst.   s(31) = (     0          1          0      )
                  (    -1          0          0      )
                  (     0          0         -1      )

 cart.    s(31) = (  0.0000000 -1.0000000  0.0000000 )
                  (  1.0000000  0.0000000  0.0000000 )
                  (  0.0000000  0.0000000 -1.0000000 )


      isym = 32     inv.  90 deg rotation - cart. axis [0,0,1]   

 cryst.   s(32) = (     0         -1          0      )
                  (     1          0          0      )
                  (     0          0         -1      )

 cart.    s(32) = (  0.0000000  1.0000000  0.0000000 )
                  ( -1.0000000  0.0000000  0.0000000 )
                  (  0.0000000  0.0000000 -1.0000000 )


      isym = 33     inv. 180 deg rotation - cart. axis [1,0,1]   

 cryst.   s(33) = (     0          0         -1      )
                  (     0          1          0      )
                  (    -1          0          0      )

 cart.    s(33) = (  0.0000000  0.0000000 -1.0000000 )
                  (  0.0000000  1.0000000  0.0000000 )
                  ( -1.0000000  0.0000000  0.0000000 )


      isym = 34     inv. 180 deg rotation - cart. axis [-1,0,1]  

 cryst.   s(34) = (     0          0          1      )
                  (     0          1          0      )
                  (     1          0          0      )

 cart.    s(34) = (  0.0000000  0.0000000  1.0000000 )
                  (  0.0000000  1.0000000  0.0000000 )
                  (  1.0000000  0.0000000  0.0000000 )


      isym = 35     inv.  90 deg rotation - cart. axis [0,1,0]   

 cryst.   s(35) = (     0          0          1      )
                  (     0         -1          0      )
                  (    -1          0          0      )

 cart.    s(35) = (  0.0000000  0.0000000 -1.0000000 )
                  (  0.0000000 -1.0000000  0.0000000 )
                  (  1.0000000  0.0000000  0.0000000 )


      isym = 36     inv.  90 deg rotation - cart. axis [0,-1,0]  

 cryst.   s(36) = (     0          0         -1      )
                  (     0         -1          0      )
                  (     1          0          0      )

 cart.    s(36) = (  0.0000000  0.0000000  1.0000000 )
                  (  0.0000000 -1.0000000  0.0000000 )
                  ( -1.0000000  0.0000000  0.0000000 )


      isym = 37     inv. 180 deg rotation - cart. axis [0,1,1]   

 cryst.   s(37) = (     1          0          0      )
                  (     0          0         -1      )
                  (     0         -1          0      )

 cart.    s(37) = (  1.0000000  0.0000000  0.0000000 )
                  (  0.0000000  0.0000000 -1.0000000 )
                  (  0.0000000 -1.0000000  0.0000000 )


      isym = 38     inv. 180 deg rotation - cart. axis [0,1,-1]  

 cryst.   s(38) = (     1          0          0      )
                  (     0          0          1      )
                  (     0          1          0      )

 cart.    s(38) = (  1.0000000  0.0000000  0.0000000 )
                  (  0.0000000  0.0000000  1.0000000 )
                  (  0.0000000  1.0000000  0.0000000 )


      isym = 39     inv.  90 deg rotation - cart. axis [-1,0,0]  

 cryst.   s(39) = (    -1          0          0      )
                  (     0          0          1      )
                  (     0         -1          0      )

 cart.    s(39) = ( -1.0000000  0.0000000  0.0000000 )
                  (  0.0000000  0.0000000 -1.0000000 )
                  (  0.0000000  1.0000000  0.0000000 )


      isym = 40     inv.  90 deg rotation - cart. axis [1,0,0]   

 cryst.   s(40) = (    -1          0          0      )
                  (     0          0         -1      )
                  (     0          1          0      )

 cart.    s(40) = ( -1.0000000  0.0000000  0.0000000 )
                  (  0.0000000  0.0000000  1.0000000 )
                  (  0.0000000 -1.0000000  0.0000000 )


      isym = 41     inv. 120 deg rotation - cart. axis [-1,-1,-1]

 cryst.   s(41) = (     0          0         -1      )
                  (    -1          0          0      )
                  (     0         -1          0      )

 cart.    s(41) = (  0.0000000 -1.0000000  0.0000000 )
                  (  0.0000000  0.0000000 -1.0000000 )
                  ( -1.0000000  0.0000000  0.0000000 )


      isym = 42     inv. 120 deg rotation - cart. axis [-1,1,1]  

 cryst.   s(42) = (     0          0          1      )
                  (     1          0          0      )
                  (     0         -1          0      )

 cart.    s(42) = (  0.0000000  1.0000000  0.0000000 )
                  (  0.0000000  0.0000000 -1.0000000 )
                  (  1.0000000  0.0000000  0.0000000 )


      isym = 43     inv. 120 deg rotation - cart. axis [1,1,-1]  

 cryst.   s(43) = (     0          0          1      )
                  (    -1          0          0      )
                  (     0          1          0      )

 cart.    s(43) = (  0.0000000 -1.0000000  0.0000000 )
                  (  0.0000000  0.0000000  1.0000000 )
                  (  1.0000000  0.0000000  0.0000000 )


      isym = 44     inv. 120 deg rotation - cart. axis [1,-1,1]  

 cryst.   s(44) = (     0          0         -1      )
                  (     1          0          0      )
                  (     0          1          0      )

 cart.    s(44) = (  0.0000000  1.0000000  0.0000000 )
                  (  0.0000000  0.0000000  1.0000000 )
                  ( -1.0000000  0.0000000  0.0000000 )


      isym = 45     inv. 120 deg rotation - cart. axis [1,1,1]   

 cryst.   s(45) = (     0         -1          0      )
                  (     0          0         -1      )
                  (    -1          0          0      )

 cart.    s(45) = (  0.0000000  0.0000000 -1.0000000 )
                  ( -1.0000000  0.0000000  0.0000000 )
                  (  0.0000000 -1.0000000  0.0000000 )


      isym = 46     inv. 120 deg rotation - cart. axis [-1,1,-1] 

 cryst.   s(46) = (     0          1          0      )
                  (     0          0          1      )
                  (    -1          0          0      )

 cart.    s(46) = (  0.0000000  0.0000000 -1.0000000 )
                  (  1.0000000  0.0000000  0.0000000 )
                  (  0.0000000  1.0000000  0.0000000 )


      isym = 47     inv. 120 deg rotation - cart. axis [1,-1,-1] 

 cryst.   s(47) = (     0          1          0      )
                  (     0          0         -1      )
                  (     1          0          0      )

 cart.    s(47) = (  0.0000000  0.0000000  1.0000000 )
                  (  1.0000000  0.0000000  0.0000000 )
                  (  0.0000000 -1.0000000  0.0000000 )


      isym = 48     inv. 120 deg rotation - cart. axis [-1,-1,1] 

 cryst.   s(48) = (     0         -1          0      )
                  (     0          0          1      )
                  (     1          0          0      )

 cart.    s(48) = (  0.0000000  0.0000000  1.0000000 )
                  ( -1.0000000  0.0000000  0.0000000 )
                  (  0.0000000  1.0000000  0.0000000 )


   Cartesian axes

     site n.     atom                  positions (alat units)
         1           Pd  tau(   1) = (   0.5000000   0.5000000   0.5000000  )

   Crystallographic axes

     site n.     atom                  positions (cryst. coord.)
         1           Pd  tau(   1) = (  0.5000000  0.5000000  0.5000000  )

     number of k points=     1
                       cart. coord. in units 2pi/alat
        k(    1) = (   0.0000000   0.0000000   0.0000000), wk =   1.0000000

                       cryst. coord.
        k(    1) = (   0.0000000   0.0000000   0.0000000), wk =   1.0000000

     Dense  grid:  9072092 G-vectors     FFT dimensions: ( 360, 360, 360)

     Dynamical RAM for                 wfc:       6.49 MB

     Dynamical RAM for     wfc (w. buffer):      19.47 MB

     Dynamical RAM for           str. fact:       4.33 MB

     Dynamical RAM for           local pot:       0.00 MB

     Dynamical RAM for          nlocal pot:       3.24 MB

     Dynamical RAM for                qrad:       1.87 MB

     Dynamical RAM for          rho,v,vnew:      97.15 MB

     Dynamical RAM for               rhoin:      32.38 MB

     Dynamical RAM for            rho*nmix:     138.43 MB

     Dynamical RAM for           G-vectors:      18.39 MB

     Dynamical RAM for          h,s,v(r/c):       0.00 MB

     Dynamical RAM for          <psi|beta>:       0.00 MB

     Dynamical RAM for                 psi:      25.95 MB

     Dynamical RAM for                hpsi:      25.95 MB

     Dynamical RAM for      wfcinit/wfcrot:      12.98 MB

     Estimated static dynamical RAM per process >     395.09 MB

     Estimated max dynamical RAM per process >     447.00 MB

     Estimated total dynamical RAM >      13.97 GB
     Generating pointlists ...
     new r_m :   0.4125 (alat units)  9.3541 (a.u.) for type    1

     Initial potential from superposition of free atoms

     starting charge   16.00000, renormalised to   18.00000

     negative rho (up, down):  2.371E-04 0.000E+00
     Starting wfcs are    9 randomized atomic wfcs +    3 random wfcs

     total cpu time spent up to now is       12.7 secs

     Self-consistent Calculation

     iteration #  1     ecut=   510.00 Ry     beta= 0.70
     Davidson diagonalization with overlap
     ethr =  1.00E-02,  avg # of iterations =  9.5

     total cpu time spent up to now is       35.5 secs

     total energy              =    -216.92351530 Ry
     Harris-Foulkes estimate   =    -260.39897719 Ry
     estimated scf accuracy    <      53.38819522 Ry

     total magnetization       =    -0.00 Bohr mag/cell
     absolute magnetization    =     1.67 Bohr mag/cell

     iteration #  2     ecut=   510.00 Ry     beta= 0.70
     Davidson diagonalization with overlap
     ethr =  1.00E-02,  avg # of iterations =  7.0

     total cpu time spent up to now is       54.3 secs

     total energy              =    -257.28315420 Ry
     Harris-Foulkes estimate   =    -276.57650711 Ry
     estimated scf accuracy    <      32.63051179 Ry

     total magnetization       =    -0.00 Bohr mag/cell
     absolute magnetization    =     1.28 Bohr mag/cell

     iteration #  3     ecut=   510.00 Ry     beta= 0.70
     Davidson diagonalization with overlap
     ethr =  1.00E-02,  avg # of iterations =  3.0

     total cpu time spent up to now is       67.9 secs

     total energy              =    -256.05533493 Ry
     Harris-Foulkes estimate   =    -259.04964875 Ry
     estimated scf accuracy    <       6.98521971 Ry

     total magnetization       =    -0.00 Bohr mag/cell
     absolute magnetization    =     1.31 Bohr mag/cell

     iteration #  4     ecut=   510.00 Ry     beta= 0.70
     Davidson diagonalization with overlap
     ethr =  1.00E-02,  avg # of iterations =  2.0

     total cpu time spent up to now is       79.3 secs

     total energy              =    -253.86434632 Ry
     Harris-Foulkes estimate   =    -256.18947482 Ry
     estimated scf accuracy    <       2.86548978 Ry

     total magnetization       =    -0.00 Bohr mag/cell
     absolute magnetization    =     1.33 Bohr mag/cell

     iteration #  5     ecut=   510.00 Ry     beta= 0.70
     Davidson diagonalization with overlap
     ethr =  1.00E-02,  avg # of iterations =  2.5

     total cpu time spent up to now is       92.1 secs

     total energy              =    -254.34418072 Ry
     Harris-Foulkes estimate   =    -254.40450512 Ry
     estimated scf accuracy    <       0.08234700 Ry

     total magnetization       =     0.00 Bohr mag/cell
     absolute magnetization    =     1.40 Bohr mag/cell

     iteration #  6     ecut=   510.00 Ry     beta= 0.70
     Davidson diagonalization with overlap
     ethr =  4.57E-04,  avg # of iterations =  4.5

     total cpu time spent up to now is      107.1 secs

     total energy              =    -254.61235939 Ry
     Harris-Foulkes estimate   =    -254.75997351 Ry
     estimated scf accuracy    <       0.56306576 Ry

     total magnetization       =    -0.00 Bohr mag/cell
     absolute magnetization    =     1.57 Bohr mag/cell

     iteration #  7     ecut=   510.00 Ry     beta= 0.70
     Davidson diagonalization with overlap
     ethr =  4.57E-04,  avg # of iterations =  2.0

     negative rho (up, down):  0.000E+00 3.510E-03

     total cpu time spent up to now is      119.5 secs

     total energy              =    -254.59090619 Ry
     Harris-Foulkes estimate   =    -254.63495342 Ry
     estimated scf accuracy    <       0.18725568 Ry

     total magnetization       =     0.00 Bohr mag/cell
     absolute magnetization    =     1.58 Bohr mag/cell

     iteration #  8     ecut=   510.00 Ry     beta= 0.70
     Davidson diagonalization with overlap
     ethr =  4.57E-04,  avg # of iterations =  1.5

     total cpu time spent up to now is      131.0 secs

     total energy              =    -254.53937603 Ry
     Harris-Foulkes estimate   =    -254.59338866 Ry
     estimated scf accuracy    <       0.25596359 Ry

     total magnetization       =    -0.00 Bohr mag/cell
     absolute magnetization    =     1.56 Bohr mag/cell

     iteration #  9     ecut=   510.00 Ry     beta= 0.70
     Davidson diagonalization with overlap
     ethr =  4.57E-04,  avg # of iterations =  3.0

     total cpu time spent up to now is      145.1 secs

     total energy              =    -254.59213334 Ry
     Harris-Foulkes estimate   =    -254.59920533 Ry
     estimated scf accuracy    <       0.01087980 Ry

     total magnetization       =    -0.00 Bohr mag/cell
     absolute magnetization    =     1.68 Bohr mag/cell

     iteration # 10     ecut=   510.00 Ry     beta= 0.70
     Davidson diagonalization with overlap
     ethr =  6.04E-05,  avg # of iterations =  5.5

     total cpu time spent up to now is      160.1 secs

     total energy              =    -254.72714399 Ry
     Harris-Foulkes estimate   =    -254.72832467 Ry
     estimated scf accuracy    <       0.29505054 Ry

     total magnetization       =    -0.00 Bohr mag/cell
     absolute magnetization    =     0.22 Bohr mag/cell

     iteration # 11     ecut=   510.00 Ry     beta= 0.70
     Davidson diagonalization with overlap
     ethr =  6.04E-05,  avg # of iterations =  1.0

     total cpu time spent up to now is      171.2 secs

     total energy              =    -254.73518389 Ry
     Harris-Foulkes estimate   =    -254.72723336 Ry
     estimated scf accuracy    <       0.29669541 Ry

     total magnetization       =     0.00 Bohr mag/cell
     absolute magnetization    =     0.22 Bohr mag/cell

     iteration # 12     ecut=   510.00 Ry     beta= 0.70
     Davidson diagonalization with overlap
     ethr =  6.04E-05,  avg # of iterations =  1.0

     total cpu time spent up to now is      182.3 secs

     total energy              =    -254.75211117 Ry
     Harris-Foulkes estimate   =    -254.73533760 Ry
     estimated scf accuracy    <       0.32215122 Ry

     total magnetization       =    -0.00 Bohr mag/cell
     absolute magnetization    =     0.22 Bohr mag/cell

     iteration # 13     ecut=   510.00 Ry     beta= 0.70
     Davidson diagonalization with overlap
     ethr =  6.04E-05,  avg # of iterations =  2.0

     total cpu time spent up to now is      194.0 secs

     total energy              =    -254.70919052 Ry
     Harris-Foulkes estimate   =    -254.75281646 Ry
     estimated scf accuracy    <       0.39143349 Ry

     total magnetization       =    -0.00 Bohr mag/cell
     absolute magnetization    =     0.23 Bohr mag/cell

     iteration # 14     ecut=   510.00 Ry     beta= 0.70
     Davidson diagonalization with overlap
     ethr =  6.04E-05,  avg # of iterations =  2.0

     total cpu time spent up to now is      206.3 secs

     total energy              =    -254.71169695 Ry
     Harris-Foulkes estimate   =    -254.71253227 Ry
     estimated scf accuracy    <       0.25744977 Ry

     total magnetization       =    -0.00 Bohr mag/cell
     absolute magnetization    =     0.24 Bohr mag/cell

     iteration # 15     ecut=   510.00 Ry     beta= 0.70
     Davidson diagonalization with overlap
     ethr =  6.04E-05,  avg # of iterations =  1.0

     total cpu time spent up to now is      217.4 secs

     total energy              =    -254.71168629 Ry
     Harris-Foulkes estimate   =    -254.71172102 Ry
     estimated scf accuracy    <       0.25674611 Ry

     total magnetization       =    -0.00 Bohr mag/cell
     absolute magnetization    =     0.24 Bohr mag/cell

     iteration # 16     ecut=   510.00 Ry     beta= 0.70
     Davidson diagonalization with overlap
     ethr =  6.04E-05,  avg # of iterations =  1.0

     total cpu time spent up to now is      228.4 secs

     total energy              =    -254.70858436 Ry
     Harris-Foulkes estimate   =    -254.71169661 Ry
     estimated scf accuracy    <       0.25904556 Ry

     total magnetization       =     0.00 Bohr mag/cell
     absolute magnetization    =     0.25 Bohr mag/cell

     iteration # 17     ecut=   510.00 Ry     beta= 0.70
     Davidson diagonalization with overlap
     ethr =  6.04E-05,  avg # of iterations =  1.0

     total cpu time spent up to now is      239.5 secs

     total energy              =    -254.71048965 Ry
     Harris-Foulkes estimate   =    -254.70877458 Ry
     estimated scf accuracy    <       0.23087006 Ry

     total magnetization       =     0.00 Bohr mag/cell
     absolute magnetization    =     0.23 Bohr mag/cell

     iteration # 18     ecut=   510.00 Ry     beta= 0.70
     Davidson diagonalization with overlap
     ethr =  6.04E-05,  avg # of iterations =  1.0

     negative rho (up, down):  9.529E-03 6.817E-02

     total cpu time spent up to now is      250.4 secs

     total energy              =    -254.63319968 Ry
     Harris-Foulkes estimate   =    -254.71052079 Ry
     estimated scf accuracy    <       0.23460244 Ry

     total magnetization       =    -0.00 Bohr mag/cell
     absolute magnetization    =     0.24 Bohr mag/cell

     iteration # 19     ecut=   510.00 Ry     beta= 0.70
     Davidson diagonalization with overlap
     ethr =  6.04E-05,  avg # of iterations =  5.0

     negative rho (up, down):  6.442E-04 6.921E-02

     total cpu time spent up to now is      266.4 secs

     total energy              =    -254.67663763 Ry
     Harris-Foulkes estimate   =    -254.68059705 Ry
     estimated scf accuracy    <       0.00802794 Ry

     total magnetization       =    -0.00 Bohr mag/cell
     absolute magnetization    =     0.18 Bohr mag/cell

     iteration # 20     ecut=   510.00 Ry     beta= 0.70
     Davidson diagonalization with overlap
     ethr =  4.46E-05,  avg # of iterations =  2.0

     negative rho (up, down):  1.123E-03 3.987E-02

     total cpu time spent up to now is      278.4 secs

     total energy              =    -254.67779839 Ry
     Harris-Foulkes estimate   =    -254.67790812 Ry
     estimated scf accuracy    <       0.00043403 Ry

     total magnetization       =     0.00 Bohr mag/cell
     absolute magnetization    =     0.16 Bohr mag/cell

     iteration # 21     ecut=   510.00 Ry     beta= 0.70
     Davidson diagonalization with overlap
     ethr =  2.41E-06,  avg # of iterations =  4.0

     negative rho (up, down):  1.206E-04 5.491E-02

     total cpu time spent up to now is      292.0 secs

     total energy              =    -254.67789307 Ry
     Harris-Foulkes estimate   =    -254.67790408 Ry
     estimated scf accuracy    <       0.00005110 Ry

     total magnetization       =    -0.00 Bohr mag/cell
     absolute magnetization    =     0.15 Bohr mag/cell

     iteration # 22     ecut=   510.00 Ry     beta= 0.70
     Davidson diagonalization with overlap
     ethr =  2.84E-07,  avg # of iterations =  2.5

     negative rho (up, down):  1.023E-05 4.281E-02

     total cpu time spent up to now is      304.4 secs

     total energy              =    -254.67790447 Ry
     Harris-Foulkes estimate   =    -254.67790475 Ry
     estimated scf accuracy    <       0.00000140 Ry

     total magnetization       =    -0.00 Bohr mag/cell
     absolute magnetization    =     0.15 Bohr mag/cell

     iteration # 23     ecut=   510.00 Ry     beta= 0.70
     Davidson diagonalization with overlap
     ethr =  7.79E-09,  avg # of iterations =  2.5
 
     Magnetic moment per site:
     atom:    1    charge:   17.9998    magn:    0.0000    constr:    0.0000

     total cpu time spent up to now is      316.3 secs

     End of self-consistent calculation

 ------ SPIN UP ------------


          k = 0.0000 0.0000 0.0000 (****** PWs)   bands (ev):

   -85.4747 -51.0599 -51.0524 -51.0481  -3.8831  -3.8727  -3.8676  -3.8421
    -3.8420  -3.1651  -0.0970  -0.0549

     occupation numbers 
     1.0000   1.0000   1.0000   1.0000   1.0000   1.0000   1.0000   1.0000
     1.0000   0.0000   0.0000   0.0000

 ------ SPIN DOWN ----------


          k = 0.0000 0.0000 0.0000 (****** PWs)   bands (ev):

   -85.4736 -51.0668 -51.0457 -51.0450  -3.8760  -3.8742  -3.8576  -3.8490
    -3.8482  -3.1660  -0.0762  -0.0335

     occupation numbers 
     1.0000   1.0000   1.0000   1.0000   1.0000   1.0000   1.0000   1.0000
     1.0000   0.0000   0.0000   0.0000

     highest occupied, lowest unoccupied level (ev):    -3.8420   -3.1660

!    total energy              =    -254.67790506 Ry
     Harris-Foulkes estimate   =    -254.67790503 Ry
     estimated scf accuracy    <       0.00000021 Ry

     The total energy is the sum of the following terms:

     one-electron contribution =    -372.49546890 Ry
     hartree contribution      =     183.93391256 Ry
     xc contribution           =     -25.57765339 Ry
     ewald contribution        =     -40.53869533 Ry

     total magnetization       =    -0.00 Bohr mag/cell
     absolute magnetization    =     0.16 Bohr mag/cell

     convergence has been achieved in  23 iterations

     Writing output data file pwscf.save/
 
     init_run     :     12.07s CPU     12.63s WALL (       1 calls)
     electrons    :    296.86s CPU    304.42s WALL (       1 calls)

     Called by init_run:
     wfcinit      :      2.16s CPU      2.29s WALL (       1 calls)
     wfcinit:atom :      0.03s CPU      0.03s WALL (       2 calls)
     wfcinit:wfcr :      2.10s CPU      2.22s WALL (       2 calls)
     potinit      :      3.17s CPU      3.36s WALL (       1 calls)
     hinit0       :      0.29s CPU      0.42s WALL (       1 calls)

     Called by electrons:
     c_bands      :    151.26s CPU    152.56s WALL (      23 calls)
     sum_band     :     46.95s CPU     47.04s WALL (      23 calls)
     v_of_rho     :     77.15s CPU     81.04s WALL (      24 calls)
     v_h          :      5.76s CPU      6.35s WALL (      24 calls)
     v_xc         :     71.39s CPU     74.69s WALL (      24 calls)
     mix_rho      :     21.55s CPU     23.48s WALL (      23 calls)

     Called by c_bands:
     init_us_2    :      0.76s CPU      0.76s WALL (      94 calls)
     regterg      :    150.14s CPU    151.42s WALL (      46 calls)

     Called by sum_band:

     Called by *egterg:
     h_psi        :    139.90s CPU    140.21s WALL (     181 calls)
     g_psi        :      0.40s CPU      0.41s WALL (     133 calls)
     rdiaghg      :      0.19s CPU      0.21s WALL (     179 calls)
     regterg:over :      2.67s CPU      2.67s WALL (     133 calls)
     regterg:upda :      5.32s CPU      5.41s WALL (     133 calls)
     regterg:last :      1.64s CPU      1.64s WALL (      53 calls)
     rdiaghg:chol :      0.03s CPU      0.04s WALL (     179 calls)
     rdiaghg:inve :      0.01s CPU      0.01s WALL (     179 calls)
     rdiaghg:para :      0.02s CPU      0.02s WALL (     358 calls)

     Called by h_psi:
     h_psi:pot    :    139.11s CPU    139.41s WALL (     181 calls)
     h_psi:calbec :      0.42s CPU      0.46s WALL (     181 calls)
     vloc_psi     :    137.97s CPU    138.23s WALL (     181 calls)
     add_vuspsi   :      0.72s CPU      0.72s WALL (     181 calls)

     General routines
     calbec       :      0.42s CPU      0.46s WALL (     181 calls)
     fft          :     62.13s CPU     62.61s WALL (     356 calls)
     ffts         :      6.40s CPU      6.41s WALL (      46 calls)
     fftw         :    134.11s CPU    134.38s WALL (    1928 calls)
 
     Parallel routines
     fft_scatt_xy :     38.10s CPU     38.15s WALL (    2330 calls)
     fft_scatt_yz :     65.50s CPU     65.95s WALL (    2330 calls)
 
     PWSCF        :   5m 9.66s CPU   5m18.94s WALL

 
   This run was terminated on:  17:44:47  17Jan2022            

=------------------------------------------------------------------------------=
   JOB DONE.
=------------------------------------------------------------------------------=
