
 Primary working directories    : /global/cscratch1/sd/bkincaid
 Secondary working directories  : /global/cscratch1/sd/bkincaid
 Wavefunction directory         : /global/homes/b/bkincaid/wfu/
 Main file repository           : /global/cscratch1/sd/bkincaid/

 SHA1      : 19cd028119e0e09f93f0674bd8af7968d9b3eff6
 NAME      : 2015.1.36
 ARCHNAME  : linux/x86_64
 FC        : /opt/cray/pe/craype/2.5.14/bin/ftn
 BLASLIB   : -L/opt/intel/compilers_and_libraries_2018.1.163/linux/mkl/lib/intel64 -Wl,-_start-group -lmkl_intel_ilp64 -lmkl_intel_thread -lmkl_core -Wl,-_end-group -liomp5
 id        : lbl

 Nodes     nprocs
 nid01136    23
 Number of processes for MPI-2 version of Molpro:   nprocs(total)=   24   nprocs(compute)=   23   nprocs(helper)=    1

 Using customized tuning parameters: mindgm=7; mindgv=16; mindgc=1; mindgr=1; noblas=0; minvec=7
 default implementation of scratch files=sf  

 ***,Calculation for Au atom
 memory,512,m
 geometry={
 1
 Au
 Au  0.0 0.0 0.0
 }
 
 basis={
 Including file /global/u1/b/bkincaid/molpro/Au/atoms/ccECP/basis/ccECP
 Including file /global/u1/b/bkincaid/molpro/Au/atoms/ccECP/basis/aug-cc-pwCVTZ.basis
 }
 
 Including file /global/u1/b/bkincaid/molpro/Au/atoms/ccECP/basis/states.proc
 
 do i=1,14
     if (i.eq.1) then
         Is1dten
     else if (i.eq.2) then
         As2dten
     else if (i.eq.3) then
         Ip1dten
     else if (i.eq.4) then
         Is2d9
     else if (i.eq.5) then
         IIdten
     else if (i.eq.6) then
         IIs1d9
     else if (i.eq.7) then
         IIId9
     else if (i.eq.8) then
         IVd8
     else if (i.eq.9) then
         Vd7
     else if (i.eq.10) then
         VId6
     else if (i.eq.11) then
         VIId5
     else if (i.eq.12) then
         XIIXeandF
     else if (i.eq.13) then
         XVp3
     else if (i.eq.14) then
         XVIIIs2
     endif
     scf(i)=energy
     _CC_NORM_MAX=2.0
     {rccsd(t),maxit=100;core}
     ccsd(i)=energy
 enddo
 
 
 table,scf,ccsd
 save, 3.csv,new
 

 Variables initialized (889), CPU time= 0.01 sec
 Commands  initialized (702), CPU time= 0.01 sec, 572 directives.
 Default parameters read. Elapsed time= 0.20 sec

 Checking input...
 Passed
1


                                         ***  PROGRAM SYSTEM MOLPRO  ***
                                       Copyright, TTI GmbH Stuttgart, 2015
                                    Version 2015.1 linked Dec 29 2018 15:55:43


 **********************************************************************************************************************************
 LABEL *   Calculation for Au atom                                                       
  64 bit mpp version                                                                     DATE: 04-May-21          TIME: 01:59:44  
 **********************************************************************************************************************************

 SHA1:             19cd028119e0e09f93f0674bd8af7968d9b3eff6
 **********************************************************************************************************************************

Geometry recognized as XYZ


 Variable memory set to  512000000 words,  buffer space   230000 words

 SETTING BASIS          =    USERDEF

 DO I                   =         1.00000000   

 Running procedure=IS1DTEN


 Recomputing integrals since basis changed


 Using spherical harmonics



 PROGRAM * SEWARD (Integral evaluation for generally contracted gaussian basis sets)     Author: Roland Lindh, 1990

 Geometry written to block  1 of record 700

 Orientation using atomic masses  
 Molecule type: Atom
 Symmetry elements: X,Y,Z
 Rotational constants:       0.0000000      0.0000000      0.0000000 GHz  (calculated with average atomic masses)

 Point group  D2h 



 ATOMIC COORDINATES

 NR  ATOM    CHARGE       X              Y              Z

   1  AU     19.00    0.000000000    0.000000000    0.000000000

 NUCLEAR CHARGE:                   19
 NUMBER OF PRIMITIVE AOS:         449
 NUMBER OF SYMMETRY AOS:          365
 NUMBER OF CONTRACTIONS:          365   (  86Ag  +  61B3u +  61B2u +  27B1g +  61B1u +  27B2g +  27B3g +  15Au  )
 NUMBER OF CORE ORBITALS:           4   (   1Ag  +   1B3u +   1B2u +   0B1g +   1B1u +   0B2g +   0B3g +   0Au  )
 NUMBER OF VALENCE ORBITALS:        6   (   3Ag  +   0B3u +   0B2u +   1B1g +   0B1u +   1B2g +   1B3g +   0Au  )


 NUCLEAR REPULSION ENERGY    0.00000000

 EXTRA SYMMETRY OF AOS IN SYMMETRY 1:   1 1 1 1 1 1 1 1 1 1   1 1 1 1 1 1 1 1 1 1   1 1 1 1 1 1 1 1 1 1   1 1 1 1 1 2 3 2 3 2
                                        3 2 3 2 3 2 3 2 3 2   3 2 3 2 3 2 3 2 3 2   3 2 3 2 3 2 3 2 3 2   3 2 3 2 3 2 3 4 5 6
                                        4 5 6 4 5 6
 EXTRA SYMMETRY OF AOS IN SYMMETRY 2:   1 1 1 1 1 1 1 1 1 1   1 1 1 1 1 1 1 1 1 1   1 1 1 1 1 1 1 1 1 1   1 2 3 2 3 2 3 2 3 2
                                        3 2 3 2 3 2 3 2 3 2   3 2 3 2 3 2 3 2 3 2   3
 EXTRA SYMMETRY OF AOS IN SYMMETRY 3:   1 1 1 1 1 1 1 1 1 1   1 1 1 1 1 1 1 1 1 1   1 1 1 1 1 1 1 1 1 1   1 2 3 2 3 2 3 2 3 2
                                        3 2 3 2 3 2 3 2 3 2   3 2 3 2 3 2 3 2 3 2   3
 EXTRA SYMMETRY OF AOS IN SYMMETRY 4:   1 1 1 1 1 1 1 1 1 1   1 1 1 1 1 1 1 1 1 1   1 2 3 2 3 2 3
 EXTRA SYMMETRY OF AOS IN SYMMETRY 5:   1 1 1 1 1 1 1 1 1 1   1 1 1 1 1 1 1 1 1 1   1 1 1 1 1 1 1 1 1 1   1 2 3 2 3 2 3 2 3 2
                                        3 2 3 2 3 2 3 2 3 2   3 2 3 2 3 2 3 2 3 2   3
 EXTRA SYMMETRY OF AOS IN SYMMETRY 6:   1 1 1 1 1 1 1 1 1 1   1 1 1 1 1 1 1 1 1 1   1 2 3 2 3 2 3
 EXTRA SYMMETRY OF AOS IN SYMMETRY 7:   1 1 1 1 1 1 1 1 1 1   1 1 1 1 1 1 1 1 1 1   1 2 3 2 3 2 3

 Eigenvalues of metric

         1 0.109E-05 0.119E-04 0.119E-04 0.186E-04 0.547E-04 0.121E-03 0.121E-03 0.172E-03
         2 0.490E-06 0.215E-04 0.415E-04 0.415E-04 0.153E-03 0.505E-03 0.891E-03 0.891E-03
         3 0.490E-06 0.215E-04 0.415E-04 0.415E-04 0.153E-03 0.505E-03 0.891E-03 0.891E-03
         4 0.119E-04 0.121E-03 0.616E-03 0.199E-02 0.555E-02 0.132E-01 0.261E-01 0.504E-01
         5 0.490E-06 0.215E-04 0.415E-04 0.415E-04 0.153E-03 0.505E-03 0.891E-03 0.891E-03
         6 0.119E-04 0.121E-03 0.616E-03 0.199E-02 0.555E-02 0.132E-01 0.261E-01 0.504E-01
         7 0.119E-04 0.121E-03 0.616E-03 0.199E-02 0.555E-02 0.132E-01 0.261E-01 0.504E-01
         8 0.415E-04 0.891E-03 0.509E-02 0.124E-01 0.336E-01 0.825E-01 0.168E+00 0.319E+00


 Contracted 2-electron integrals neglected if value below      1.0D-13

 Warning: maximum contribution to expansion of local PP integrals   0.7D+07
 AO integral compression algorithm  1   Integral accuracy      1.0D-13

     1797.784 MB (compressed) written to integral file ( 38.7%)

     Node minimum: 21.234 MB, node maximum: 199.492 MB


 NUMBER OF SORTED TWO-ELECTRON INTEGRALS:   12524691.     BUFFER LENGTH:  32768
 NUMBER OF SEGMENTS:   1  SEGMENT LENGTH:   12524691      RECORD LENGTH: 524288

 Memory used in sort:      13.08 MW

 SORT1 READ   581377519. AND WROTE     7269920. INTEGRALS IN     21 RECORDS. CPU TIME:    14.28 SEC, REAL TIME:    15.99 SEC
 SORT2 READ   169258147. AND WROTE   288141177. INTEGRALS IN  10350 RECORDS. CPU TIME:     0.37 SEC, REAL TIME:     0.68 SEC

 Node minimum:    12382733.  Node maximum:    12692957. integrals

 OPERATOR DM      FOR CENTER  0  COORDINATES:    0.000000    0.000000    0.000000


 **********************************************************************************************************************************
 DATASETS  * FILE   NREC   LENGTH (MB)   RECORD NAMES
              1      19       20.87       500      610      700      900      950      970     1000      129      960     1100   
                                          VAR    BASINP    GEOM    SYMINP    ZMAT    AOBASIS   BASIS     P2S    ABASIS      S 
                                         1400     1410     1420     1200     1210     1080     1600     1650     1700   
                                           T        V       ECP      H0       H01     AOSYM     SMH    MOLCAS    OPER   

 PROGRAMS   *        TOTAL       INT
 CPU TIMES  *       149.17    148.68
 REAL TIME  *       152.98 SEC
 DISK USED  *         3.87 GB      
 GA USED    *         0.00 MB       (max)       0.00 MB       (current)
 **********************************************************************************************************************************


 PROGRAM * RHF-SCF (OPEN SHELL)       Authors: W. Meyer, H.-J. Werner


 NUMBER OF ELECTRONS:      10+    9-    SPACE SYMMETRY=1    SPIN SYMMETRY: Doublet 
 CONVERGENCE THRESHOLDS:    1.00E-05 (Density)    1.00E-07 (Energy)
 MAX. NUMBER OF ITERATIONS:       60
 INTERPOLATION TYPE:            DIIS
 INTERPOLATION STEPS:              2 (START)      1 (STEP)
 LEVEL SHIFTS:                 -0.60 (CLOSED) -0.30 (OPEN) 


 Singly occupied orbitals:      4.1
 
 Extra symmetries of mos in symmetry 1:   1   3   2   1
 Orbital guess generated from atomic densities. Full valence occupancy:    4   1   1   1   1   1   1   0


 Molecular orbital dump at record        4202.2

 ITERATION    DDIFF          GRAD             ENERGY        2-EL.EN.            DIPOLE MOMENTS         DIIS   ORB.
    1      0.000D+00      0.000D+00      -134.95619415    213.207308    0.00000    0.00000    0.00000    0    start
    2      0.000D+00      0.105D-01      -134.99333762    208.104300    0.00000    0.00000    0.00000    1    diag,B
    3      0.481D-02      0.372D-02      -134.99618028    208.796389    0.00000    0.00000    0.00000    2    diag,B
    4      0.156D-02      0.538D-03      -134.99642858    208.675770    0.00000    0.00000    0.00000    3    diag,B
    5      0.697D-03      0.143D-03      -134.99646964    208.624691    0.00000    0.00000    0.00000    4    diag,B
    6      0.257D-03      0.374D-04      -134.99647479    208.607245    0.00000    0.00000    0.00000    5    diag,B
    7      0.152D-03      0.864D-05      -134.99647524    208.605579    0.00000    0.00000    0.00000    6    fixocc
    8      0.249D-04      0.421D-05      -134.99647540    208.603893    0.00000    0.00000    0.00000    7    diag,B
    9      0.201D-04      0.242D-05      -134.99647541    208.603694    0.00000    0.00000    0.00000    8    diag,B
   10      0.793D-05      0.217D-05      -134.99647541    208.603558    0.00000    0.00000    0.00000    0    orth

 Final alpha occupancy:   4   1   1   1   1   1   1   0
 Final beta  occupancy:   3   1   1   1   1   1   1   0

 !RHF STATE 1.1 Energy               -134.996475412571
 Nuclear energy                         0.00000000
 One-electron energy                 -239.29825445
 Two-electron energy                  104.30177904
 Virial quotient                       -2.92937618
 !RHF STATE 1.1 Dipole moment           0.00000000     0.00000000     0.00000000
 Dipole moment /Debye                   0.00000000     0.00000000     0.00000000

 ELECTRON ORBITALS
 =================


   Orb  Occ    Energy  Couls-En    Coefficients

                                   1 1s      1 1s      1 1s      1 1s      1 1s      1 1s      1 1s      1 1s      1 1s      1 1s   
                                   1 1s      1 1s      1 1s      1 1s      1 1s      1 1s      1 1s      1 1s      1 1s      1 1s   
                                   1 1s      1 1s      1 1s      1 1s      1 1s      1 1s      1 1s      1 1s      1 1s      1 1s   
                                   1 1s      1 1s      1 1s      1 1s      1 1s      1 3d0     1 3d2+    1 3d0     1 3d2+    1 3d0  
                                   1 3d2+    1 3d0     1 3d2+    1 3d0     1 3d2+    1 3d0     1 3d2+    1 3d0     1 3d2+    1 3d0  
                                   1 3d2+    1 3d0     1 3d2+    1 3d0     1 3d2+    1 3d0     1 3d2+    1 3d0     1 3d2+    1 3d0  
                                   1 3d2+    1 3d0     1 3d2+    1 3d0     1 3d2+    1 3d0     1 3d2+    1 3d0     1 3d2+    1 3d0  
                                   1 3d2+    1 3d0     1 3d2+    1 3d0     1 3d2+    1 3d0     1 3d2+    1 5g0     1 5g4+    1 5g2+ 
                                   1 5g0     1 5g4+    1 5g2+    1 5g0     1 5g4+    1 5g2+ 

   1.1   2    -4.6724  -21.8938 -0.000000  0.000000 -0.000000  0.000000 -0.000000  0.000000 -0.000000  0.000000 -0.000000  0.000000
                                -0.000001  0.000002 -0.000006  0.000016 -0.000042  0.000107 -0.000269  0.000670 -0.001647  0.003982
                                -0.009454  0.021973 -0.045163  0.021339  0.348870 -0.986486 -0.483763  1.094316  0.589656  0.031766
                                -0.005932  0.002356 -0.000528  0.365588 -0.159567 -0.000000  0.000000  0.000000 -0.000000 -0.000000
                                 0.000000 -0.000000 -0.000000  0.000000  0.000000 -0.000000 -0.000000  0.000000  0.000000 -0.000000
                                -0.000000  0.000000  0.000000 -0.000000 -0.000000 -0.000000  0.000000 -0.000000 -0.000000  0.000000
                                -0.000000  0.000000 -0.000000 -0.000000  0.000000 -0.000000  0.000000  0.000000  0.000000 -0.000000
                                -0.000000  0.000000  0.000000 -0.000000  0.000000  0.000000 -0.000000 -0.000000 -0.000000 -0.000000
                                 0.000000  0.000000  0.000000 -0.000000 -0.000000 -0.000000

   2.1   2    -0.4535  -11.3474  0.000000  0.000000 -0.000000  0.000000 -0.000000  0.000000 -0.000000  0.000000 -0.000000  0.000000
                                -0.000000  0.000000 -0.000000  0.000000 -0.000000  0.000000 -0.000000  0.000000 -0.000000  0.000000
                                -0.000000  0.000000 -0.000000  0.000000 -0.000000  0.000001  0.000003 -0.000004 -0.000004  0.000004
                                -0.000008  0.000014 -0.000011 -0.000003  0.000005 -0.000000 -0.000000  0.000000  0.000000 -0.000000
                                -0.000000  0.000000  0.000001 -0.000000 -0.000002  0.000001  0.000007 -0.000002 -0.000022  0.000005
                                 0.000059 -0.000013 -0.000151  0.000038  0.000458 -0.000155 -0.001857  0.001254  0.014970 -0.003840
                                -0.045854  0.001021  0.012152  0.018782  0.224239  0.031400  0.374825  0.029383  0.350782  0.017248
                                 0.205909  0.004903  0.058529 -0.003199 -0.038153  0.001236  0.014770  0.000000  0.000000 -0.000000
                                -0.000000 -0.000000  0.000000  0.000000  0.000000 -0.000000

   3.1   2    -0.4536  -11.3474 -0.000000  0.000000 -0.000000 -0.000000 -0.000000  0.000000 -0.000000  0.000000 -0.000000  0.000000
                                -0.000000  0.000000 -0.000000  0.000000 -0.000000  0.000000 -0.000000  0.000000 -0.000000  0.000000
                                -0.000000  0.000000 -0.000000  0.000000  0.000001 -0.000003 -0.000001 -0.000001 -0.000004  0.000002
                                -0.000006 -0.000017  0.000021  0.000001  0.000009  0.000000 -0.000000 -0.000000  0.000000  0.000000
                                -0.000000 -0.000001  0.000000  0.000002 -0.000000 -0.000007  0.000001  0.000022 -0.000002 -0.000059
                                 0.000005  0.000151 -0.000013 -0.000458  0.000038  0.001857 -0.000155 -0.014970  0.001252  0.045856
                                -0.003832 -0.012148  0.001042 -0.224240  0.018755 -0.374824  0.031352 -0.350782  0.029390 -0.205909
                                 0.017249 -0.058529  0.004900  0.038149 -0.003219 -0.014771  0.001297 -0.000001 -0.000004  0.000001
                                 0.000001  0.000003 -0.000001 -0.000000 -0.000001  0.000000

   4.1   +    -0.2907   -7.1183  0.000000 -0.000000  0.000000 -0.000000  0.000000 -0.000000  0.000000 -0.000000  0.000000 -0.000000
                                 0.000000 -0.000001  0.000002 -0.000005  0.000013 -0.000034  0.000086 -0.000215  0.000529 -0.001283
                                 0.003066 -0.007210  0.015223 -0.008918 -0.115572  0.358385  0.172566 -0.496070 -0.370070  0.193280
                                 0.637834  0.364896  0.010416 -0.143981  0.087544  0.000000  0.000000 -0.000000 -0.000000  0.000000
                                 0.000000 -0.000000 -0.000000  0.000000  0.000000 -0.000000 -0.000000  0.000000  0.000000 -0.000000
                                -0.000000  0.000000  0.000000 -0.000000 -0.000000  0.000000  0.000000 -0.000001 -0.000001  0.000003
                                 0.000003  0.000007  0.000007 -0.000006 -0.000004 -0.000006 -0.000003 -0.000001  0.000001 -0.000001
                                 0.000000 -0.000000 -0.000000 -0.000007 -0.000008  0.000006  0.000005  0.000000  0.000000  0.000000
                                 0.000000 -0.000000 -0.000000 -0.000000  0.000000  0.000000

   5.1   0     0.0393   -2.2686  0.000000 -0.000000  0.000000 -0.000000  0.000000 -0.000000  0.000000 -0.000000  0.000000 -0.000000
                                 0.000000 -0.000000  0.000001 -0.000003  0.000007 -0.000019  0.000048 -0.000118  0.000285 -0.000669
                                 0.001501 -0.003207  0.006945 -0.020897  0.084735 -0.329635 -1.035360  1.322933  0.889162 -0.542719
                                 0.851922 -2.281718  2.263444  0.856168 -1.491214  0.000000 -0.000000 -0.000000  0.000000  0.000000
                                -0.000000 -0.000000  0.000000  0.000000 -0.000000 -0.000000  0.000000  0.000000  0.000000 -0.000000
                                -0.000000  0.000000  0.000000 -0.000000 -0.000000  0.000000  0.000000 -0.000000 -0.000000  0.000001
                                 0.000000  0.000003  0.000002  0.000001 -0.000001  0.000004 -0.000000  0.000004  0.000001  0.000002
                                 0.000001  0.000001  0.000000 -0.000004 -0.000002  0.000001  0.000002 -0.000000 -0.000000 -0.000000
                                -0.000000  0.000000  0.000000  0.000000 -0.000000 -0.000000

   6.1   0     0.2181   -3.4191 -0.000000  0.000000 -0.000000  0.000000 -0.000000  0.000000 -0.000000  0.000000 -0.000000  0.000000
                                -0.000001  0.000003 -0.000007  0.000019 -0.000048  0.000123 -0.000309  0.000767 -0.001871  0.004452
                                -0.010278  0.022970 -0.049197  0.092160 -0.142946  0.694592  3.656187 -4.276872 -2.846129  2.000487
                                -5.043227  5.310865 -1.983113 -3.013941  5.587917  0.000000  0.000000 -0.000000 -0.000000  0.000000
                                 0.000000 -0.000000 -0.000000  0.000000  0.000000 -0.000000 -0.000000  0.000000  0.000000 -0.000000
                                -0.000000  0.000000  0.000000 -0.000000 -0.000000  0.000000  0.000000 -0.000000 -0.000000  0.000001
                                 0.000000  0.000002  0.000001 -0.000001 -0.000001 -0.000000 -0.000001  0.000000 -0.000000 -0.000000
                                -0.000000  0.000001 -0.000000 -0.000003 -0.000001  0.000001  0.000001 -0.000000 -0.000000 -0.000000
                                -0.000000  0.000000  0.000000  0.000000 -0.000000 -0.000000

                                   1 2px     1 2px     1 2px     1 2px     1 2px     1 2px     1 2px     1 2px     1 2px     1 2px  
                                   1 2px     1 2px     1 2px     1 2px     1 2px     1 2px     1 2px     1 2px     1 2px     1 2px  
                                   1 2px     1 2px     1 2px     1 2px     1 2px     1 2px     1 2px     1 2px     1 2px     1 2px  
                                   1 2px     1 4f1+    1 4f3+    1 4f1+    1 4f3+    1 4f1+    1 4f3+    1 4f1+    1 4f3+    1 4f1+ 
                                   1 4f3+    1 4f1+    1 4f3+    1 4f1+    1 4f3+    1 4f1+    1 4f3+    1 4f1+    1 4f3+    1 4f1+ 
                                   1 4f3+    1 4f1+    1 4f3+    1 4f1+    1 4f3+    1 4f1+    1 4f3+    1 4f1+    1 4f3+    1 4f1+ 
                                   1 4f3+ 

   1.2   2    -2.7539  -17.6022  0.000000 -0.000000  0.000000 -0.000000  0.000000 -0.000000  0.000000 -0.000000  0.000001 -0.000003
                                 0.000010 -0.000028  0.000075 -0.000188  0.000448 -0.001015  0.002168 -0.003621 -0.006898  0.112866
                                -0.343132 -0.145469  0.532456  0.527945  0.170078  0.016001  0.000495  0.000132 -0.000030  0.118848
                                -0.033351 -0.000000 -0.000000  0.000000  0.000000 -0.000000 -0.000000  0.000000 -0.000000 -0.000000
                                 0.000000  0.000000 -0.000000  0.000000 -0.000000 -0.000000  0.000000 -0.000000 -0.000000 -0.000000
                                -0.000000  0.000000  0.000000  0.000000  0.000000  0.000000  0.000000 -0.000000  0.000000  0.000000
                                -0.000000

   2.2   0     0.0235   -2.4298  0.000000 -0.000000  0.000000 -0.000000  0.000000 -0.000000  0.000000 -0.000000  0.000000 -0.000001
                                 0.000003 -0.000008  0.000021 -0.000052  0.000123 -0.000278  0.000605 -0.001361  0.004002 -0.016699
                                 0.057900  0.483475 -0.220106 -0.474282  0.111247 -0.090395  0.353788 -0.422092  1.185567 -0.446782
                                 0.478371 -0.000000 -0.000000  0.000000  0.000000 -0.000000 -0.000000  0.000000  0.000000 -0.000000
                                -0.000000  0.000000  0.000000 -0.000000 -0.000000  0.000000  0.000000 -0.000000 -0.000000 -0.000000
                                -0.000000 -0.000000 -0.000000  0.000000  0.000000  0.000000  0.000000  0.000000  0.000000 -0.000000
                                -0.000000

   3.2   0     0.0747   -3.2850 -0.000000  0.000000 -0.000000  0.000000 -0.000000  0.000000 -0.000000  0.000000 -0.000001  0.000004
                                -0.000011  0.000030 -0.000081  0.000203 -0.000482  0.001090 -0.002370  0.004969 -0.009016  0.009059
                                -0.039653 -1.233960  0.389858  1.048713 -0.346013  0.458440 -0.515073  2.007772 -1.418275  1.138882
                                -1.254497  0.000000 -0.000000  0.000000  0.000000 -0.000000 -0.000000  0.000000  0.000000 -0.000000
                                -0.000000  0.000000  0.000000 -0.000000 -0.000000  0.000000  0.000000 -0.000000 -0.000000 -0.000000
                                -0.000000  0.000000 -0.000000 -0.000000  0.000000  0.000000  0.000000 -0.000000  0.000000  0.000000
                                -0.000000

                                   1 2py     1 2py     1 2py     1 2py     1 2py     1 2py     1 2py     1 2py     1 2py     1 2py  
                                   1 2py     1 2py     1 2py     1 2py     1 2py     1 2py     1 2py     1 2py     1 2py     1 2py  
                                   1 2py     1 2py     1 2py     1 2py     1 2py     1 2py     1 2py     1 2py     1 2py     1 2py  
                                   1 2py     1 4f1-    1 4f3-    1 4f1-    1 4f3-    1 4f1-    1 4f3-    1 4f1-    1 4f3-    1 4f1- 
                                   1 4f3-    1 4f1-    1 4f3-    1 4f1-    1 4f3-    1 4f1-    1 4f3-    1 4f1-    1 4f3-    1 4f1- 
                                   1 4f3-    1 4f1-    1 4f3-    1 4f1-    1 4f3-    1 4f1-    1 4f3-    1 4f1-    1 4f3-    1 4f1- 
                                   1 4f3- 

   1.3   2    -2.7539  -17.6022  0.000000 -0.000000  0.000000 -0.000000  0.000000 -0.000000  0.000000 -0.000000  0.000001 -0.000003
                                 0.000010 -0.000028  0.000075 -0.000188  0.000448 -0.001015  0.002168 -0.003621 -0.006898  0.112866
                                -0.343132 -0.145466  0.532456  0.527948  0.170078  0.016001  0.000495  0.000132 -0.000030  0.118844
                                -0.033355  0.000000  0.000000 -0.000000  0.000000  0.000000 -0.000000 -0.000000  0.000000  0.000000
                                 0.000000 -0.000000 -0.000000  0.000000  0.000000 -0.000000 -0.000000  0.000000  0.000000  0.000001
                                 0.000001  0.000000  0.000000 -0.000000 -0.000001 -0.000000 -0.000001  0.000000  0.000000 -0.000000
                                -0.000000

   2.3   0     0.0235   -2.4298  0.000000 -0.000000  0.000000 -0.000000  0.000000 -0.000000  0.000000 -0.000000  0.000000 -0.000001
                                 0.000003 -0.000008  0.000021 -0.000052  0.000123 -0.000278  0.000605 -0.001361  0.004002 -0.016699
                                 0.057900  0.483476 -0.220107 -0.474283  0.111247 -0.090396  0.353790 -0.422095  1.185568 -0.446783
                                 0.478372 -0.000000  0.000000  0.000000  0.000000 -0.000000 -0.000000  0.000000  0.000000 -0.000000
                                -0.000000  0.000000 -0.000000 -0.000000  0.000000  0.000000 -0.000000 -0.000000  0.000000 -0.000000
                                 0.000000 -0.000000 -0.000000  0.000000 -0.000000  0.000000  0.000000  0.000000  0.000000 -0.000000
                                -0.000000

   3.3   0     0.0747   -3.2850 -0.000000  0.000000 -0.000000  0.000000 -0.000000  0.000000 -0.000000  0.000000 -0.000001  0.000004
                                -0.000011  0.000030 -0.000081  0.000203 -0.000482  0.001090 -0.002370  0.004969 -0.009016  0.009059
                                -0.039653 -1.233961  0.389859  1.048714 -0.346013  0.458440 -0.515073  2.007772 -1.418274  1.138882
                                -1.254498  0.000000  0.000000 -0.000000  0.000000  0.000000 -0.000000 -0.000000 -0.000000  0.000000
                                 0.000000 -0.000000 -0.000000  0.000000  0.000000 -0.000000 -0.000000  0.000000  0.000000  0.000000
                                 0.000000 -0.000000 -0.000000 -0.000000 -0.000000  0.000000  0.000000  0.000000  0.000000 -0.000000
                                -0.000000

                                   1 3d2-    1 3d2-    1 3d2-    1 3d2-    1 3d2-    1 3d2-    1 3d2-    1 3d2-    1 3d2-    1 3d2- 
                                   1 3d2-    1 3d2-    1 3d2-    1 3d2-    1 3d2-    1 3d2-    1 3d2-    1 3d2-    1 3d2-    1 3d2- 
                                   1 3d2-    1 5g2-    1 5g4-    1 5g2-    1 5g4-    1 5g2-    1 5g4- 

   1.4   2    -0.4535  -11.3474 -0.000000  0.000000 -0.000000  0.000001 -0.000002  0.000007 -0.000022  0.000059 -0.000151  0.000460
                                -0.001864  0.015022 -0.046015  0.012196  0.225019  0.376127  0.352012  0.206629  0.058736 -0.038288
                                 0.014835  0.000000 -0.000000 -0.000000 -0.000000 -0.000000 -0.000000

   2.4   0     0.2724   -3.7403  0.000000 -0.000001  0.000004 -0.000017  0.000065 -0.000218  0.000636 -0.001640  0.003853 -0.008649
                                 0.020014 -0.056376  0.268836  0.661647 -0.793733 -1.682927  0.548576 -0.853690  1.411001 -0.651438
                                 1.764171 -0.000000  0.000000  0.000000  0.000000 -0.000000 -0.000000

   3.4   0     0.9245   -4.5368 -0.000000  0.000002 -0.000011  0.000049 -0.000190  0.000637 -0.001856  0.004787 -0.011237  0.025084
                                -0.057062  0.147720 -0.741075 -2.018803  2.117020  4.793652 -2.410757  2.748701 -1.133440  2.011096
                                -5.544221 -0.000000  0.000000  0.000000  0.000000 -0.000000 -0.000000

                                   1 2pz     1 2pz     1 2pz     1 2pz     1 2pz     1 2pz     1 2pz     1 2pz     1 2pz     1 2pz  
                                   1 2pz     1 2pz     1 2pz     1 2pz     1 2pz     1 2pz     1 2pz     1 2pz     1 2pz     1 2pz  
                                   1 2pz     1 2pz     1 2pz     1 2pz     1 2pz     1 2pz     1 2pz     1 2pz     1 2pz     1 2pz  
                                   1 2pz     1 4f0     1 4f2+    1 4f0     1 4f2+    1 4f0     1 4f2+    1 4f0     1 4f2+    1 4f0  
                                   1 4f2+    1 4f0     1 4f2+    1 4f0     1 4f2+    1 4f0     1 4f2+    1 4f0     1 4f2+    1 4f0  
                                   1 4f2+    1 4f0     1 4f2+    1 4f0     1 4f2+    1 4f0     1 4f2+    1 4f0     1 4f2+    1 4f0  
                                   1 4f2+ 

   1.5   2    -2.7539  -17.6022  0.000000 -0.000000  0.000000 -0.000000  0.000000 -0.000000  0.000000 -0.000000  0.000001 -0.000003
                                 0.000010 -0.000028  0.000075 -0.000188  0.000448 -0.001015  0.002168 -0.003621 -0.006898  0.112866
                                -0.343132 -0.145465  0.532455  0.527945  0.170078  0.016001  0.000495  0.000132 -0.000030  0.118844
                                -0.033352  0.000000 -0.000000 -0.000000  0.000000  0.000000 -0.000000 -0.000000  0.000000  0.000000
                                -0.000000 -0.000000  0.000000 -0.000000 -0.000000  0.000000  0.000000 -0.000000 -0.000000 -0.000000
                                -0.000000 -0.000000  0.000000  0.000000  0.000000  0.000000  0.000000  0.000000 -0.000000 -0.000000
                                 0.000000

   2.5   0     0.0235   -2.4298  0.000000 -0.000000  0.000000 -0.000000  0.000000 -0.000000  0.000000 -0.000000  0.000000 -0.000001
                                 0.000003 -0.000008  0.000021 -0.000052  0.000123 -0.000278  0.000605 -0.001361  0.004002 -0.016699
                                 0.057900  0.483475 -0.220106 -0.474282  0.111247 -0.090395  0.353788 -0.422092  1.185567 -0.446782
                                 0.478371 -0.000000  0.000000  0.000000 -0.000000 -0.000000  0.000000  0.000000 -0.000000 -0.000000
                                 0.000000  0.000000 -0.000000 -0.000000 -0.000000  0.000000 -0.000000 -0.000000  0.000000 -0.000000
                                 0.000000 -0.000000  0.000000  0.000000 -0.000000  0.000000 -0.000000  0.000000 -0.000000 -0.000000
                                -0.000000

   3.5   0     0.0747   -3.2850 -0.000000  0.000000 -0.000000  0.000000 -0.000000  0.000000 -0.000000  0.000000 -0.000001  0.000004
                                -0.000011  0.000030 -0.000081  0.000203 -0.000482  0.001090 -0.002370  0.004969 -0.009016  0.009059
                                -0.039652 -1.233960  0.389858  1.048713 -0.346013  0.458440 -0.515073  2.007772 -1.418275  1.138881
                                -1.254496 -0.000000  0.000000  0.000000 -0.000000 -0.000000  0.000000  0.000000 -0.000000 -0.000000
                                 0.000000  0.000000 -0.000000 -0.000000  0.000000  0.000000 -0.000000 -0.000000  0.000000 -0.000000
                                 0.000000 -0.000000  0.000000  0.000000 -0.000000  0.000000 -0.000000  0.000000 -0.000000 -0.000000
                                 0.000000

                                   1 3d1+    1 3d1+    1 3d1+    1 3d1+    1 3d1+    1 3d1+    1 3d1+    1 3d1+    1 3d1+    1 3d1+ 
                                   1 3d1+    1 3d1+    1 3d1+    1 3d1+    1 3d1+    1 3d1+    1 3d1+    1 3d1+    1 3d1+    1 3d1+ 
                                   1 3d1+    1 5g1+    1 5g3+    1 5g1+    1 5g3+    1 5g1+    1 5g3+ 

   1.6   2    -0.4535  -11.3474 -0.000000  0.000000 -0.000000  0.000001 -0.000002  0.000007 -0.000022  0.000059 -0.000151  0.000460
                                -0.001864  0.015022 -0.046015  0.012196  0.225019  0.376127  0.352012  0.206629  0.058736 -0.038288
                                 0.014834 -0.000000 -0.000000  0.000000 -0.000000 -0.000000 -0.000000

   2.6   0     0.2724   -3.7403  0.000000 -0.000001  0.000004 -0.000017  0.000065 -0.000218  0.000636 -0.001640  0.003853 -0.008649
                                 0.020014 -0.056376  0.268836  0.661648 -0.793733 -1.682927  0.548576 -0.853691  1.411001 -0.651438
                                 1.764172 -0.000000  0.000000  0.000000  0.000000 -0.000000 -0.000000

   3.6   0     0.9245   -4.5368 -0.000000  0.000002 -0.000011  0.000049 -0.000190  0.000637 -0.001856  0.004787 -0.011237  0.025084
                                -0.057062  0.147720 -0.741075 -2.018804  2.117020  4.793653 -2.410757  2.748701 -1.133440  2.011096
                                -5.544222 -0.000000  0.000000  0.000000  0.000000 -0.000000 -0.000000

                                   1 3d1-    1 3d1-    1 3d1-    1 3d1-    1 3d1-    1 3d1-    1 3d1-    1 3d1-    1 3d1-    1 3d1- 
                                   1 3d1-    1 3d1-    1 3d1-    1 3d1-    1 3d1-    1 3d1-    1 3d1-    1 3d1-    1 3d1-    1 3d1- 
                                   1 3d1-    1 5g1-    1 5g3-    1 5g1-    1 5g3-    1 5g1-    1 5g3- 

   1.7   2    -0.4535  -11.3474 -0.000000  0.000000 -0.000000  0.000001 -0.000002  0.000007 -0.000022  0.000059 -0.000151  0.000460
                                -0.001864  0.015022 -0.046015  0.012196  0.225019  0.376127  0.352012  0.206629  0.058736 -0.038288
                                 0.014835 -0.000000 -0.000000 -0.000000 -0.000000 -0.000000 -0.000000

   2.7   0     0.2724   -3.7403  0.000000 -0.000001  0.000004 -0.000017  0.000065 -0.000218  0.000636 -0.001640  0.003853 -0.008649
                                 0.020014 -0.056376  0.268836  0.661647 -0.793733 -1.682927  0.548576 -0.853690  1.411001 -0.651438
                                 1.764172  0.000000  0.000000  0.000000  0.000000 -0.000000  0.000000

   3.7   0     0.9245   -4.5368 -0.000000  0.000002 -0.000011  0.000049 -0.000190  0.000637 -0.001856  0.004787 -0.011237  0.025084
                                -0.057062  0.147720 -0.741075 -2.018803  2.117020  4.793652 -2.410757  2.748701 -1.133440  2.011096
                                -5.544221  0.000000  0.000000  0.000000  0.000000 -0.000000  0.000000

                                   1 4f2-    1 4f2-    1 4f2-    1 4f2-    1 4f2-    1 4f2-    1 4f2-    1 4f2-    1 4f2-    1 4f2- 
                                   1 4f2-    1 4f2-    1 4f2-    1 4f2-    1 4f2- 

   1.8   0     0.6554   -4.1258  0.000012 -0.000079  0.000364 -0.001287  0.003766 -0.009720  0.025441 -0.074830  0.464630  2.342371
                                 2.098382 -1.331883 -2.393721 -1.450777  1.321207

   2.8   0     1.5415   -4.7681 -0.000025  0.000167 -0.000768  0.002718 -0.007908  0.021240 -0.052630  0.163288 -0.999339 -5.153611
                                -4.818511  2.924489  5.532025  3.985512 -1.045812

 HOMO      4.1    -0.290709 =      -7.9106eV
 LUMO      2.3     0.023534 =       0.6404eV
 LUMO-HOMO         0.314242 =       8.5510eV


 **********************************************************************************************************************************
 DATASETS  * FILE   NREC   LENGTH (MB)   RECORD NAMES
              1      19       20.91       500      610      700      900      950      970     1000      129      960     1100   
                                          VAR    BASINP    GEOM    SYMINP    ZMAT    AOBASIS   BASIS     P2S    ABASIS      S 
                                         1400     1410     1420     1200     1210     1080     1600     1650     1700   
                                           T        V       ECP      H0       H01     AOSYM     SMH    MOLCAS    OPER   

              2       5        5.99       200      700     1000      520     4202   
                                        OPTIONS   GEOM     BASIS   MCVARS     RHF  

 PROGRAMS   *        TOTAL       RHF       INT
 CPU TIMES  *       150.41      1.24    148.68
 REAL TIME  *       154.40 SEC
 DISK USED  *         4.56 GB      
 SF USED    *         0.09 MB      
 GA USED    *         0.00 MB       (max)       0.00 MB       (current)
 **********************************************************************************************************************************


 PROGRAM * POP (Mulliken population analysis)

 
 Density matrix read from record         4202.2  Type=RHF/CHARGE (state 1.1)
 
 Population analysis by basis function type

 Unique atom        s        p        d        f        g    Total    Charge
   1  AU      3.00000  6.00000 10.00000  0.00000  0.00000 19.00000  - 0.00000


 **********************************************************************************************************************************
 DATASETS  * FILE   NREC   LENGTH (MB)   RECORD NAMES
              1      19       20.91       500      610      700      900      950      970     1000      129      960     1100   
                                          VAR    BASINP    GEOM    SYMINP    ZMAT    AOBASIS   BASIS     P2S    ABASIS      S 
                                         1400     1410     1420     1200     1210     1080     1600     1650     1700   
                                           T        V       ECP      H0       H01     AOSYM     SMH    MOLCAS    OPER   

              2       5        5.99       200      700     1000      520     4202   
                                        OPTIONS   GEOM     BASIS   MCVARS     RHF  

 PROGRAMS   *        TOTAL       POP       RHF       INT
 CPU TIMES  *       150.41      0.00      1.24    148.68
 REAL TIME  *       154.42 SEC
 DISK USED  *         4.56 GB      
 SF USED    *         0.09 MB      
 GA USED    *         0.00 MB       (max)       0.00 MB       (current)
 **********************************************************************************************************************************


 PROGRAM * MULTI (Direct Multiconfiguration SCF)       Authors: P.J. Knowles, H.-J. Werner (1984)     S.T. Elbert (1988)


 Number of closed-shell orbitals:   9 (   3   1   1   1   1   1   1   0 )
 Number of active  orbitals:        1 (   1   0   0   0   0   0   0   0 )
 Number of external orbitals:     355 (  82  60  60  26  60  26  26  15 )

 State symmetry 1

 Orbital occupancy restrictions for symmetry 1
  1      1       2                               

 Number of electrons:     1    Spin symmetry=Doublet   Space symmetry=1
 Number of states:        1
 Number of CSFs:          1
 
 Maximum number of shells:             1
 Maximum number of spin couplings:     1

 Storage for configuration lists       2, coupling coefficients      1, address lists      7

 Molecular orbitals read from record     4202.2  Type=RHF/CANONICAL (state 1.1)
 *** IN SYMMETRY 1 ORBITAL  2 SYMMETRY CONTAMINATION OF 0.773D-01 HAS BEEN REMOVED
 *** IN SYMMETRY 1 ORBITAL  3 SYMMETRY CONTAMINATION OF 0.774D-01 HAS BEEN REMOVED
 *** IN SYMMETRY 1 ORBITAL  4 SYMMETRY CONTAMINATION OF 0.237D-04 HAS BEEN REMOVED

 EXTRA SYMMETRY OF MOS IN SYMMETRY 1:   1 3 2 1 1 1 3 2 1 3   2 5 6 4 3 2 1 3 2 6   5 4 1 6 5 4 3 2 1 2   3 1 3 2 1 2 3 3 2 1
                                        3 2 1 3 2 1 3 2 1 3   2 1 1 2 3 1 3 2 1 3   2 1 3 2 1 3 2 1 1 3   2 1 3 2 1 1 1 1 1 1
                                        1 1 1 1 1 1
 EXTRA SYMMETRY OF MOS IN SYMMETRY 2:   1 1 1 1 3 2 1 3 2 1   3 2 1 3 2 1 3 2 3 2   1 3 2 1 3 2 1 2 3 1   2 3 1 3 2 1 1 3 2 1
                                        2 3 1 1 2 3 1 2 3 1   1 1 1 1 1 1 1 1 1 1   1
 EXTRA SYMMETRY OF MOS IN SYMMETRY 3:   1 1 1 1 3 2 1 3 2 1   3 2 1 2 3 1 2 3 3 2   1 2 3 1 2 3 1 2 3 1   2 3 1 2 3 1 1 2 3 1
                                        2 3 1 1 2 3 1 2 3 1   1 1 1 1 1 1 1 1 1 1   1
 EXTRA SYMMETRY OF MOS IN SYMMETRY 4:   1 1 1 3 2 1 1 3 2 3   2 1 1 1 1 1 1 1 1 1   1 1 1 1 1 1 1
 EXTRA SYMMETRY OF MOS IN SYMMETRY 5:   1 1 1 1 3 2 1 3 2 1   2 3 1 2 3 1 3 2 2 3   1 3 2 1 3 2 1 3 2 1   3 2 1 3 2 1 1 2 3 1
                                        2 3 1 1 2 3 1 2 3 1   1 1 1 1 1 1 1 1 1 1   1
 EXTRA SYMMETRY OF MOS IN SYMMETRY 6:   1 1 1 3 2 1 1 3 2 3   2 1 1 1 1 1 1 1 1 1   1 1 1 1 1 1 1
 EXTRA SYMMETRY OF MOS IN SYMMETRY 7:   1 1 1 3 2 1 1 2 3 2   3 1 1 1 1 1 1 1 1 1   1 1 1 1 1 1 1

 Wavefunction dump at record             5202.2

 Convergence thresholds  0.10E-01 (gradient)  0.10E-05 (energy)  0.10E-02 (step length)

 Number of orbital rotations:      589   (     3 Core/Active    504 Core/Virtual   0 Active/Active     82 Active/Virtual)
 Total number of variables:        590


 ITER. MIC  NCI  NEG     ENERGY(VAR)     ENERGY(PROJ)   ENERGY CHANGE     GRAD(0)  GRAD(ORB)   GRAD(CI)     STEP       TIME

   1   24    4    0    -134.99647541    -134.99647542   -0.00000000    0.00003045 0.00000000 0.00000000  0.12D-03      0.55

 ** WVFN ****  CONVERGENCE REACHED, FINAL GRADIENT:  0.58D-09


 First order charge density matrix for state 1.1 saved on record  5202.2 (density set 1)

 Results for state 1.1
 =====================

 !MCSCF STATE 1.1 Energy             -134.996475415952
 Nuclear energy                         0.00000000
 Kinetic energy                        46.08371529
 One electron energy                 -239.29811262
 Two electron energy                  104.30163720
 Virial ratio                           3.92937483

 !MCSCF STATE 1.1 Dipole moment         0.00000000     0.00000000     0.00000000
 Dipole moment /Debye                   0.00000000     0.00000000     0.00000000


 NATURAL ORBITALS
 ================

   Orb     Occ        Energy       Coefficients

                                   1 1s      1 1s      1 1s      1 1s      1 1s      1 1s      1 1s      1 1s      1 1s      1 1s   
                                   1 1s      1 1s      1 1s      1 1s      1 1s      1 1s      1 1s      1 1s      1 1s      1 1s   
                                   1 1s      1 1s      1 1s      1 1s      1 1s      1 1s      1 1s      1 1s      1 1s      1 1s   
                                   1 1s      1 1s      1 1s      1 1s      1 1s      1 3d0     1 3d2+    1 3d0     1 3d2+    1 3d0  
                                   1 3d2+    1 3d0     1 3d2+    1 3d0     1 3d2+    1 3d0     1 3d2+    1 3d0     1 3d2+    1 3d0  
                                   1 3d2+    1 3d0     1 3d2+    1 3d0     1 3d2+    1 3d0     1 3d2+    1 3d0     1 3d2+    1 3d0  
                                   1 3d2+    1 3d0     1 3d2+    1 3d0     1 3d2+    1 3d0     1 3d2+    1 3d0     1 3d2+    1 3d0  
                                   1 3d2+    1 3d0     1 3d2+    1 3d0     1 3d2+    1 3d0     1 3d2+    1 5g0     1 5g4+    1 5g2+ 
                                   1 5g0     1 5g4+    1 5g2+    1 5g0     1 5g4+    1 5g2+ 

   1.1  2.00000    -4.672421    -0.000000  0.000000 -0.000000  0.000000 -0.000000  0.000000 -0.000000  0.000000 -0.000000  0.000000
                                -0.000001  0.000002 -0.000006  0.000016 -0.000042  0.000107 -0.000269  0.000670 -0.001647  0.003982
                                -0.009454  0.021973 -0.045163  0.021340  0.348869 -0.986480 -0.483746  1.094296  0.589651  0.031767
                                -0.005933  0.002356 -0.000528  0.365573 -0.159550  0.000000  0.000000  0.000000  0.000000  0.000000
                                 0.000000  0.000000  0.000000  0.000000  0.000000  0.000000  0.000000  0.000000  0.000000  0.000000
                                 0.000000  0.000000  0.000000  0.000000  0.000000  0.000000  0.000000  0.000000  0.000000  0.000000
                                 0.000000  0.000000  0.000000  0.000000  0.000000  0.000000  0.000000  0.000000  0.000000  0.000000
                                 0.000000  0.000000  0.000000  0.000000  0.000000  0.000000  0.000000  0.000000  0.000000  0.000000
                                 0.000000  0.000000  0.000000  0.000000  0.000000  0.000000

   2.1  2.00000    -0.453559     0.000000  0.000000  0.000000  0.000000  0.000000  0.000000  0.000000  0.000000  0.000000  0.000000
                                 0.000000  0.000000  0.000000  0.000000  0.000000  0.000000  0.000000  0.000000  0.000000  0.000000
                                 0.000000  0.000000  0.000000  0.000000  0.000000  0.000000  0.000000  0.000000  0.000000  0.000000
                                 0.000000  0.000000  0.000000  0.000000  0.000000  0.000000  0.000000 -0.000000  0.000000  0.000000
                                 0.000000 -0.000001  0.000000  0.000002  0.000000 -0.000007  0.000000  0.000022  0.000000 -0.000059
                                 0.000000  0.000151  0.000000 -0.000460  0.000000  0.001864  0.000000 -0.015022  0.000000  0.046016
                                 0.000000 -0.012193  0.000000 -0.225023  0.000000 -0.376136  0.000000 -0.352011  0.000000 -0.206633
                                 0.000000 -0.058726  0.000000  0.038285  0.000000 -0.014826  0.000000  0.000000  0.000000  0.000000
                                 0.000000  0.000000  0.000000  0.000000  0.000000  0.000000

   3.1  2.00000    -0.453559     0.000000  0.000000  0.000000  0.000000  0.000000  0.000000  0.000000  0.000000  0.000000  0.000000
                                 0.000000  0.000000  0.000000  0.000000  0.000000  0.000000  0.000000  0.000000  0.000000  0.000000
                                 0.000000  0.000000  0.000000  0.000000  0.000000  0.000000  0.000000  0.000000  0.000000  0.000000
                                 0.000000  0.000000  0.000000  0.000000  0.000000  0.000000 -0.000000  0.000000  0.000000  0.000000
                                -0.000000  0.000000  0.000001  0.000000 -0.000002  0.000000  0.000007  0.000000 -0.000022  0.000000
                                 0.000059  0.000000 -0.000151  0.000000  0.000460  0.000000 -0.001864  0.000000  0.015022  0.000000
                                -0.046016  0.000000  0.012193  0.000000  0.225023  0.000000  0.376136  0.000000  0.352011  0.000000
                                 0.206633  0.000000  0.058726  0.000000 -0.038285  0.000000  0.014826  0.000000  0.000000  0.000000
                                 0.000000  0.000000  0.000000  0.000000  0.000000  0.000000

   4.1  1.00000    -0.142980     0.000000 -0.000000  0.000000 -0.000000  0.000000 -0.000000  0.000000 -0.000000  0.000000 -0.000000
                                 0.000000 -0.000001  0.000002 -0.000005  0.000013 -0.000034  0.000086 -0.000215  0.000529 -0.001283
                                 0.003065 -0.007209  0.015222 -0.008918 -0.115564  0.358361  0.172563 -0.496045 -0.370048  0.193261
                                 0.637730  0.364896  0.010562 -0.143977  0.087552  0.000000  0.000000  0.000000  0.000000  0.000000
                                 0.000000  0.000000  0.000000  0.000000  0.000000  0.000000  0.000000  0.000000  0.000000  0.000000
                                 0.000000  0.000000  0.000000  0.000000  0.000000  0.000000  0.000000  0.000000  0.000000  0.000000
                                 0.000000  0.000000  0.000000  0.000000  0.000000  0.000000  0.000000  0.000000  0.000000  0.000000
                                 0.000000  0.000000  0.000000  0.000000  0.000000  0.000000  0.000000  0.000000  0.000000  0.000000
                                 0.000000  0.000000  0.000000  0.000000  0.000000  0.000000

                                   1 2px     1 2px     1 2px     1 2px     1 2px     1 2px     1 2px     1 2px     1 2px     1 2px  
                                   1 2px     1 2px     1 2px     1 2px     1 2px     1 2px     1 2px     1 2px     1 2px     1 2px  
                                   1 2px     1 2px     1 2px     1 2px     1 2px     1 2px     1 2px     1 2px     1 2px     1 2px  
                                   1 2px     1 4f1+    1 4f3+    1 4f1+    1 4f3+    1 4f1+    1 4f3+    1 4f1+    1 4f3+    1 4f1+ 
                                   1 4f3+    1 4f1+    1 4f3+    1 4f1+    1 4f3+    1 4f1+    1 4f3+    1 4f1+    1 4f3+    1 4f1+ 
                                   1 4f3+    1 4f1+    1 4f3+    1 4f1+    1 4f3+    1 4f1+    1 4f3+    1 4f1+    1 4f3+    1 4f1+ 
                                   1 4f3+ 

   1.2  2.00000    -2.753951     0.000000 -0.000000  0.000000 -0.000000  0.000000 -0.000000  0.000000 -0.000000  0.000001 -0.000003
                                 0.000010 -0.000028  0.000075 -0.000188  0.000448 -0.001015  0.002168 -0.003621 -0.006898  0.112866
                                -0.343132 -0.145467  0.532455  0.527945  0.170079  0.016000  0.000495  0.000132 -0.000030  0.118846
                                -0.033351  0.000000  0.000000  0.000000  0.000000  0.000000  0.000000  0.000000  0.000000  0.000000
                                 0.000000  0.000000  0.000000  0.000000  0.000000  0.000000  0.000000  0.000000  0.000000  0.000000
                                 0.000000  0.000000  0.000000  0.000000  0.000000  0.000000  0.000000  0.000000  0.000000  0.000000
                                 0.000000

                                   1 2py     1 2py     1 2py     1 2py     1 2py     1 2py     1 2py     1 2py     1 2py     1 2py  
                                   1 2py     1 2py     1 2py     1 2py     1 2py     1 2py     1 2py     1 2py     1 2py     1 2py  
                                   1 2py     1 2py     1 2py     1 2py     1 2py     1 2py     1 2py     1 2py     1 2py     1 2py  
                                   1 2py     1 4f1-    1 4f3-    1 4f1-    1 4f3-    1 4f1-    1 4f3-    1 4f1-    1 4f3-    1 4f1- 
                                   1 4f3-    1 4f1-    1 4f3-    1 4f1-    1 4f3-    1 4f1-    1 4f3-    1 4f1-    1 4f3-    1 4f1- 
                                   1 4f3-    1 4f1-    1 4f3-    1 4f1-    1 4f3-    1 4f1-    1 4f3-    1 4f1-    1 4f3-    1 4f1- 
                                   1 4f3- 

   1.3  2.00000    -2.753951     0.000000 -0.000000  0.000000 -0.000000  0.000000 -0.000000  0.000000 -0.000000  0.000001 -0.000003
                                 0.000010 -0.000028  0.000075 -0.000188  0.000448 -0.001015  0.002168 -0.003621 -0.006898  0.112866
                                -0.343132 -0.145467  0.532455  0.527945  0.170079  0.016000  0.000495  0.000132 -0.000030  0.118846
                                -0.033351  0.000000  0.000000  0.000000  0.000000  0.000000  0.000000  0.000000  0.000000  0.000000
                                 0.000000  0.000000  0.000000  0.000000  0.000000  0.000000  0.000000  0.000000  0.000000  0.000000
                                 0.000000  0.000000  0.000000  0.000000  0.000000  0.000000  0.000000  0.000000  0.000000  0.000000
                                 0.000000

                                   1 3d2-    1 3d2-    1 3d2-    1 3d2-    1 3d2-    1 3d2-    1 3d2-    1 3d2-    1 3d2-    1 3d2- 
                                   1 3d2-    1 3d2-    1 3d2-    1 3d2-    1 3d2-    1 3d2-    1 3d2-    1 3d2-    1 3d2-    1 3d2- 
                                   1 3d2-    1 5g2-    1 5g4-    1 5g2-    1 5g4-    1 5g2-    1 5g4- 

   1.4  2.00000    -0.453559    -0.000000  0.000000 -0.000000  0.000001 -0.000002  0.000007 -0.000022  0.000059 -0.000151  0.000460
                                -0.001864  0.015022 -0.046016  0.012193  0.225023  0.376136  0.352011  0.206633  0.058726 -0.038285
                                 0.014826  0.000000  0.000000  0.000000  0.000000  0.000000  0.000000

                                   1 2pz     1 2pz     1 2pz     1 2pz     1 2pz     1 2pz     1 2pz     1 2pz     1 2pz     1 2pz  
                                   1 2pz     1 2pz     1 2pz     1 2pz     1 2pz     1 2pz     1 2pz     1 2pz     1 2pz     1 2pz  
                                   1 2pz     1 2pz     1 2pz     1 2pz     1 2pz     1 2pz     1 2pz     1 2pz     1 2pz     1 2pz  
                                   1 2pz     1 4f0     1 4f2+    1 4f0     1 4f2+    1 4f0     1 4f2+    1 4f0     1 4f2+    1 4f0  
                                   1 4f2+    1 4f0     1 4f2+    1 4f0     1 4f2+    1 4f0     1 4f2+    1 4f0     1 4f2+    1 4f0  
                                   1 4f2+    1 4f0     1 4f2+    1 4f0     1 4f2+    1 4f0     1 4f2+    1 4f0     1 4f2+    1 4f0  
                                   1 4f2+ 

   1.5  2.00000    -2.753951     0.000000 -0.000000  0.000000 -0.000000  0.000000 -0.000000  0.000000 -0.000000  0.000001 -0.000003
                                 0.000010 -0.000028  0.000075 -0.000188  0.000448 -0.001015  0.002168 -0.003621 -0.006898  0.112866
                                -0.343132 -0.145467  0.532455  0.527945  0.170079  0.016000  0.000495  0.000132 -0.000030  0.118846
                                -0.033351  0.000000  0.000000  0.000000  0.000000  0.000000  0.000000  0.000000  0.000000  0.000000
                                 0.000000  0.000000  0.000000  0.000000  0.000000  0.000000  0.000000  0.000000  0.000000  0.000000
                                 0.000000  0.000000  0.000000  0.000000  0.000000  0.000000  0.000000  0.000000  0.000000  0.000000
                                 0.000000

                                   1 3d1+    1 3d1+    1 3d1+    1 3d1+    1 3d1+    1 3d1+    1 3d1+    1 3d1+    1 3d1+    1 3d1+ 
                                   1 3d1+    1 3d1+    1 3d1+    1 3d1+    1 3d1+    1 3d1+    1 3d1+    1 3d1+    1 3d1+    1 3d1+ 
                                   1 3d1+    1 5g1+    1 5g3+    1 5g1+    1 5g3+    1 5g1+    1 5g3+ 

   1.6  2.00000    -0.453559    -0.000000  0.000000 -0.000000  0.000001 -0.000002  0.000007 -0.000022  0.000059 -0.000151  0.000460
                                -0.001864  0.015022 -0.046016  0.012193  0.225023  0.376136  0.352011  0.206633  0.058726 -0.038285
                                 0.014826  0.000000  0.000000  0.000000  0.000000  0.000000  0.000000

                                   1 3d1-    1 3d1-    1 3d1-    1 3d1-    1 3d1-    1 3d1-    1 3d1-    1 3d1-    1 3d1-    1 3d1- 
                                   1 3d1-    1 3d1-    1 3d1-    1 3d1-    1 3d1-    1 3d1-    1 3d1-    1 3d1-    1 3d1-    1 3d1- 
                                   1 3d1-    1 5g1-    1 5g3-    1 5g1-    1 5g3-    1 5g1-    1 5g3- 

   1.7  2.00000    -0.453559    -0.000000  0.000000 -0.000000  0.000001 -0.000002  0.000007 -0.000022  0.000059 -0.000151  0.000460
                                -0.001864  0.015022 -0.046016  0.012193  0.225023  0.376136  0.352011  0.206633  0.058726 -0.038285
                                 0.014826  0.000000  0.000000  0.000000  0.000000  0.000000  0.000000
 

 EXTRA SYMMETRY OF MOS IN SYMMETRY 1:   1 2 3 1 1 1 2 3 1 2   3 4 6 5 3 2 1 2 3 5   4 6 1 4 5 6 2 3 1 2   3 1 2 3 1 2 3 3 2 1
                                        2 3 1 2 3 1 3 2 1 2   3 1 1 2 3 1 3 2 1 3   2 1 2 3 1 2 3 1 1 2   3 1 2 3 1 1 1 1 1 1
                                        1 1 1 1 1 1
 EXTRA SYMMETRY OF MOS IN SYMMETRY 2:   1 1 1 1 2 3 1 3 2 1   3 2 1 3 2 1 3 2 3 2   1 2 3 1 2 3 1 3 2 1   3 2 1 3 2 1 1 3 2 1
                                        3 2 1 1 3 2 1 3 2 1   1 1 1 1 1 1 1 1 1 1   1
 EXTRA SYMMETRY OF MOS IN SYMMETRY 3:   1 1 1 1 3 2 1 3 2 1   2 3 1 3 2 1 3 2 3 2   1 2 3 1 3 2 1 2 3 1   2 3 1 2 3 1 1 2 3 1
                                        3 2 1 1 3 2 1 3 2 1   1 1 1 1 1 1 1 1 1 1   1
 EXTRA SYMMETRY OF MOS IN SYMMETRY 4:   1 1 1 3 2 1 1 2 3 2   3 1 1 1 1 1 1 1 1 1   1 1 1 1 1 1 1
 EXTRA SYMMETRY OF MOS IN SYMMETRY 5:   1 1 1 1 2 3 1 2 3 1   2 3 1 2 3 1 2 3 2 3   1 2 3 1 2 3 1 2 3 1   2 3 1 2 3 1 1 2 3 1
                                        2 3 1 1 2 3 1 2 3 1   1 1 1 1 1 1 1 1 1 1   1

 Natural orbital dump at molpro section  5202.2    (Orbital set 2)


 CI vector
 =========

 /             1.0000000


 **********************************************************************************************************************************
 DATASETS  * FILE   NREC   LENGTH (MB)   RECORD NAMES
              1      20       32.94       500      610      700      900      950      970     1000      129      960     1100   
                                          VAR    BASINP    GEOM    SYMINP    ZMAT    AOBASIS   BASIS     P2S    ABASIS      S 
                                         1400     1410     1420     1200     1210     1080     1600     1650     1700     1380   
                                           T        V       ECP      H0       H01     AOSYM     SMH    MOLCAS    OPER     JKOP   

              2       6        9.24       200      700     1000      520     4202     5202   
                                        OPTIONS   GEOM     BASIS   MCVARS     RHF     MCSCF   

 PROGRAMS   *        TOTAL     MULTI       POP       RHF       INT
 CPU TIMES  *       151.59      1.17      0.00      1.24    148.68
 REAL TIME  *       156.01 SEC
 DISK USED  *         4.56 GB      
 SF USED    *        51.48 MB      
 GA USED    *         0.00 MB       (max)       0.00 MB       (current)
 **********************************************************************************************************************************


 PROGRAM * RHF-SCF (OPEN SHELL)       Authors: W. Meyer, H.-J. Werner


 NUMBER OF ELECTRONS:      10+    9-    SPACE SYMMETRY=1    SPIN SYMMETRY: Doublet 
 CONVERGENCE THRESHOLDS:    1.00E-05 (Density)    1.00E-07 (Energy)
 MAX. NUMBER OF ITERATIONS:        0
 INTERPOLATION TYPE:            DIIS
 INTERPOLATION STEPS:              2 (START)      1 (STEP)
 LEVEL SHIFTS:                 -0.60 (CLOSED) -0.30 (OPEN) 


 Singly occupied orbitals:      4.1
 Molecular orbitals read from record     5202.2  Type=MCSCF/NATURAL (state 1.1)

 Molecular orbital dump at record        2103.2

 ITERATION    DDIFF          GRAD             ENERGY        2-EL.EN.            DIPOLE MOMENTS         DIIS   ORB.
    1      0.000D+00      0.000D+00      -134.99647542    208.603274    0.00000    0.00000    0.00000    0    start

 Final alpha occupancy:   4   1   1   1   1   1   1   0
 Final beta  occupancy:   3   1   1   1   1   1   1   0

 !RHF STATE 1.1 Energy               -134.996475415952
 Nuclear energy                         0.00000000
 One-electron energy                 -239.29811262
 Two-electron energy                  104.30163720
 Virial quotient                       -2.92937483
 !RHF STATE 1.1 Dipole moment           0.00000000     0.00000000     0.00000000
 Dipole moment /Debye                   0.00000000     0.00000000     0.00000000

 Orbital energies:

         1.1          2.1          3.1          4.1          5.1          6.1
     -4.672421    -0.453559    -0.453559    -0.142980     0.041415     0.226727

         1.2          2.2          3.2
     -2.753951     0.026841     0.086593

         1.3          2.3          3.3
     -2.753951     0.026841     0.086593

         1.4          2.4          3.4
     -0.453559     0.277267     0.932113

         1.5          2.5          3.5
     -2.753951     0.026841     0.086593

         1.6          2.6          3.6
     -0.453559     0.277267     0.932113

         1.7          2.7          3.7
     -0.453559     0.277267     0.932113

         1.8          2.8
      0.662682     1.547401

 HOMO      4.1    -0.142980 =      -3.8907eV
 LUMO      2.5     0.026841 =       0.7304eV
 LUMO-HOMO         0.169821 =       4.6211eV


 **********************************************************************************************************************************
 DATASETS  * FILE   NREC   LENGTH (MB)   RECORD NAMES
              1      20       32.94       500      610      700      900      950      970     1000      129      960     1100   
                                          VAR    BASINP    GEOM    SYMINP    ZMAT    AOBASIS   BASIS     P2S    ABASIS      S 
                                         1400     1410     1420     1200     1210     1080     1600     1650     1700     1380   
                                           T        V       ECP      H0       H01     AOSYM     SMH    MOLCAS    OPER     JKOP   

              2       7       12.43       200      700     1000      520     4202     5202     2103   
                                        OPTIONS   GEOM     BASIS   MCVARS     RHF     MCSCF     RHF  

 PROGRAMS   *        TOTAL       RHF     MULTI       POP       RHF       INT
 CPU TIMES  *       151.73      0.13      1.17      0.00      1.24    148.68
 REAL TIME  *       156.20 SEC
 DISK USED  *         4.56 GB      
 SF USED    *        51.48 MB      
 GA USED    *         0.00 MB       (max)       0.00 MB       (current)
 **********************************************************************************************************************************
 SETTING SCF(1)         =      -134.99647542  AU                              
 SETTING _CC_NORM_MAX   =         2.00000000                                  


 PROGRAM * CCSD (Restricted open-shell coupled cluster)     Authors: C. Hampel, H.-J. Werner, 1991, M. Deegan, P.J. Knowles, 1992


 Convergence thresholds:  THRVAR = 1.00D-08  THRDEN = 1.00D-06

 CCSD(T)     terms to be evaluated (factor= 1.000)


 Number of closed-shell orbitals:   9 (   3   1   1   1   1   1   1   0 )
 Number of active  orbitals:        1 (   1   0   0   0   0   0   0   0 )
 Number of external orbitals:     355 (  82  60  60  26  60  26  26  15 )

 Memory could be reduced to 104.31 Mwords without degradation in triples

 Number of N-1 electron functions:              19
 Number of N-2 electron functions:             171
 Number of singly external CSFs:              1097
 Number of doubly external CSFs:           2120319
 Total number of CSFs:                     2121416

 Molecular orbitals read from record     2103.2  Type=RHF/CANONICAL (state 1.1)

 Integral transformation finished. Total CPU:   2.35 sec, npass=  1  Memory used:  18.50 MW

 Starting RMP2 calculation

 Wavefunction is spin-projected

 ITER.      SQ.NORM     CORR.ENERGY   TOTAL ENERGY   ENERGY CHANGE        DEN1      VAR(S)    VAR(P)  DIIS     TIME
   1      1.13591739    -0.71825098  -135.71472640    -0.71825098    -0.00135584  0.32D-05  0.51D-03  1  1     3.29
   2      1.13712657    -0.71968458  -135.71616000    -0.00143360    -0.00000325  0.23D-07  0.20D-05  2  2     4.30
   3      1.13718917    -0.71972377  -135.71619918    -0.00003918    -0.00000001  0.79D-10  0.64D-08  3  3     5.24
   4      1.13719067    -0.71972410  -135.71619952    -0.00000034    -0.00000000  0.15D-12  0.23D-10  4  4     6.22

 Norm of t1 vector:      0.01615250      S-energy:    -0.00044280      T1 diagnostic:  0.00001098
 Norm of t2 vector:      0.37004022      P-energy:    -0.71928130
                                         Alpha-Beta:  -0.49483110
                                         Alpha-Alpha: -0.12353852
                                         Beta-Beta:   -0.10091169

 Spin contamination <S**2-Sz**2-Sz>     0.00000000
  Reference energy                   -134.996475415953
  RHF-RMP2 correlation energy          -0.719724103708
 !RHF-RMP2 energy                    -135.716199519661
 (NB above energy spin projected)

 Starting RCCSD calculation

 ITER.      SQ.NORM     CORR.ENERGY   TOTAL ENERGY   ENERGY CHANGE        DEN1      VAR(S)    VAR(P)  DIIS     TIME
   1      1.11316248    -0.66707874  -135.66355416    -0.66707874    -0.01380944  0.25D-02  0.22D-02  1  1     8.55
   2      1.12159734    -0.67937478  -135.67585020    -0.01229604    -0.00078621  0.24D-03  0.22D-03  2  2    10.72
   3      1.12462734    -0.68030589  -135.67678131    -0.00093111    -0.00010103  0.89D-04  0.12D-04  3  3    12.83
   4      1.12638245    -0.68085653  -135.67733195    -0.00055064    -0.00001217  0.11D-04  0.18D-05  4  4    14.92
   5      1.12706423    -0.68100865  -135.67748407    -0.00015212    -0.00000092  0.82D-06  0.15D-06  5  5    16.88
   6      1.12721388    -0.68102553  -135.67750095    -0.00001688    -0.00000004  0.34D-07  0.79D-08  6  6    18.80
   7      1.12723861    -0.68102939  -135.67750481    -0.00000386    -0.00000000  0.14D-08  0.68D-09  6  1    21.57
   8      1.12724092    -0.68102962  -135.67750504    -0.00000023    -0.00000000  0.81D-10  0.57D-10  6  2    23.79

 Norm of t1 vector:      0.08535870      S-energy:    -0.00050379      T1 diagnostic:  0.01354925
                                                                       D1 diagnostic:  0.04904251
 Norm of t2 vector:      0.34634493      P-energy:    -0.68052583
                                         Alpha-Beta:  -0.48582189
                                         Alpha-Alpha: -0.10701018
                                         Beta-Beta:   -0.08769376

 Singles amplitudes (print threshold =  0.500E-01):

         I         SYM. A    A   T(IA) [Alpha-Alpha]

         4         1         3     -0.05196189

 Spin contamination <S**2-Sz**2-Sz>     0.00000000

 Memory could be reduced to 106.18 Mwords without degradation in triples
 

  Correlated core orbitals:             1.1       1.2       1.3       1.5
  Orbital energies:                    -4.6782   -2.7576   -2.7576   -2.7576
 
  RCCSD core-core energy               -0.099156298766
  RCCSD core-valence energy            -0.221210237801
  RCCSD valence correlation energy     -0.360663083885
 

 RESULTS
 =======

  Reference energy                   -134.996475415953
  RCCSD singles energy                 -0.000503793297
  RCCSD pair energy                    -0.680525827155
  RCCSD correlation energy             -0.681029620452
  Triples (T) contribution             -0.025678263079
  Total correlation energy             -0.706707883531
 
  RHF-RCCSD energy                   -135.677505036405
  RHF-RCCSD[T] energy                -135.703866631575
  RHF-RCCSD-T energy                 -135.702975778947
 !RHF-RCCSD(T) energy                -135.703183299484

 Program statistics:

 Available memory in ccsd:               511999000
 Min. memory needed in ccsd:               6270096
 Max. memory used in ccsd:                 8856394
 Max. memory used in cckext:               6831890 ( 8 integral passes)
 Max. memory used in cckint:              18500488 ( 1 integral passes)



 **********************************************************************************************************************************
 DATASETS  * FILE   NREC   LENGTH (MB)   RECORD NAMES
              1      20       32.94       500      610      700      900      950      970     1000      129      960     1100   
                                          VAR    BASINP    GEOM    SYMINP    ZMAT    AOBASIS   BASIS     P2S    ABASIS      S 
                                         1400     1410     1420     1200     1210     1080     1600     1650     1700     1380   
                                           T        V       ECP      H0       H01     AOSYM     SMH    MOLCAS    OPER     JKOP   

              2       7       12.43       200      700     1000      520     4202     5202     2103   
                                        OPTIONS   GEOM     BASIS   MCVARS     RHF     MCSCF     RHF  

 PROGRAMS   *        TOTAL  RCCSD(T)       RHF     MULTI       POP       RHF       INT
 CPU TIMES  *       207.44     55.61      0.13      1.17      0.00      1.24    148.68
 REAL TIME  *       229.42 SEC
 DISK USED  *        11.03 GB      
 SF USED    *         1.62 GB      
 GA USED    *         0.00 MB       (max)       0.00 MB       (current)
 **********************************************************************************************************************************
 SETTING CCSD(1)        =      -135.70318330  AU                              

 DO I                   =         2.00000000   

 Running procedure=AS2DTEN


 PROGRAM * RHF-SCF (CLOSED SHELL)       Authors: W. Meyer, H.-J. Werner


 NUMBER OF ELECTRONS:      10+   10-    SPACE SYMMETRY=1    SPIN SYMMETRY: Singlet 
 CONVERGENCE THRESHOLDS:    1.00E-05 (Density)    1.00E-07 (Energy)
 MAX. NUMBER OF ITERATIONS:       60
 INTERPOLATION TYPE:            DIIS
 INTERPOLATION STEPS:              2 (START)      1 (STEP)
 LEVEL SHIFTS:                  0.00 (CLOSED)  0.00 (OPEN) 

 Number of closed-shell orbitals:   10 (   4   1   1   1   1   1   1   0 )


 
 Extra symmetries of mos in symmetry 1:   1   3   2   1
 Orbital guess generated from atomic densities. Full valence occupancy:    4   1   1   1   1   1   1   0


 Molecular orbital dump at record        2114.2

 ITERATION    DDIFF          GRAD             ENERGY        2-EL.EN.            DIPOLE MOMENTS         DIIS   ORB.
    1      0.000D+00      0.000D+00      -134.89936913    227.591797    0.00000    0.00000    0.00000    0    start
    2      0.000D+00      0.146D-01      -134.94291743    211.532368    0.00000    0.00000    0.00000    1    diag
    3      0.104D-01      0.148D-01      -135.01844863    218.008628    0.00000    0.00000    0.00000    2    diag
    4      0.308D-02      0.922D-03      -135.01999293    217.962450    0.00000    0.00000    0.00000    3    diag
    5      0.141D-02      0.262D-03      -135.02029877    217.815918    0.00000    0.00000    0.00000    4    diag
    6      0.993D-03      0.759D-04      -135.02031401    217.750615    0.00000    0.00000    0.00000    5    diag
    7      0.379D-03      0.107D-04      -135.02031469    217.744462    0.00000    0.00000    0.00000    6    diag
    8      0.136D-03      0.266D-05      -135.02031471    217.743277    0.00000    0.00000    0.00000    7    diag
    9      0.260D-04      0.330D-05      -135.02031471    217.743180    0.00000    0.00000    0.00000    8    diag
   10      0.297D-05      0.819D-06      -135.02031471    217.743119    0.00000    0.00000    0.00000    0    orth

 Final occupancy:   4   1   1   1   1   1   1   0

 !RHF STATE 1.1 Energy               -135.020314711652
 Nuclear energy                         0.00000000
 One-electron energy                 -243.89187415
 Two-electron energy                  108.87155944
 Virial quotient                       -2.93534090
 !RHF STATE 1.1 Dipole moment           0.00000000     0.00000000     0.00000000
 Dipole moment /Debye                   0.00000000     0.00000000     0.00000000

 ELECTRON ORBITALS
 =================


   Orb  Occ    Energy  Couls-En    Coefficients

                                   1 1s      1 1s      1 1s      1 1s      1 1s      1 1s      1 1s      1 1s      1 1s      1 1s   
                                   1 1s      1 1s      1 1s      1 1s      1 1s      1 1s      1 1s      1 1s      1 1s      1 1s   
                                   1 1s      1 1s      1 1s      1 1s      1 1s      1 1s      1 1s      1 1s      1 1s      1 1s   
                                   1 1s      1 1s      1 1s      1 1s      1 1s      1 3d0     1 3d2+    1 3d0     1 3d2+    1 3d0  
                                   1 3d2+    1 3d0     1 3d2+    1 3d0     1 3d2+    1 3d0     1 3d2+    1 3d0     1 3d2+    1 3d0  
                                   1 3d2+    1 3d0     1 3d2+    1 3d0     1 3d2+    1 3d0     1 3d2+    1 3d0     1 3d2+    1 3d0  
                                   1 3d2+    1 3d0     1 3d2+    1 3d0     1 3d2+    1 3d0     1 3d2+    1 3d0     1 3d2+    1 3d0  
                                   1 3d2+    1 3d0     1 3d2+    1 3d0     1 3d2+    1 3d0     1 3d2+    1 5g0     1 5g4+    1 5g2+ 
                                   1 5g0     1 5g4+    1 5g2+    1 5g0     1 5g4+    1 5g2+ 

   1.1   2    -4.4343  -21.6594 -0.000000  0.000000 -0.000000  0.000000 -0.000000  0.000000 -0.000000  0.000000 -0.000000  0.000000
                                -0.000001  0.000002 -0.000006  0.000016 -0.000042  0.000107 -0.000269  0.000671 -0.001651  0.003990
                                -0.009474  0.022020 -0.045263  0.021460  0.349157 -0.987221 -0.481792  1.094420  0.585172  0.031288
                                -0.005956  0.002121 -0.000522  0.363622 -0.154604 -0.000000 -0.000000  0.000000  0.000000 -0.000000
                                -0.000000  0.000000 -0.000000 -0.000000 -0.000000  0.000000  0.000000 -0.000000 -0.000000  0.000000
                                 0.000000 -0.000000 -0.000000  0.000000  0.000000 -0.000000  0.000000  0.000000 -0.000000 -0.000000
                                 0.000000 -0.000001  0.000000  0.000000 -0.000000  0.000000 -0.000000  0.000000  0.000000  0.000000
                                -0.000000 -0.000000 -0.000000  0.000001 -0.000000 -0.000000  0.000000 -0.000000  0.000000  0.000000
                                -0.000000 -0.000000  0.000000  0.000000 -0.000000 -0.000000

   2.1   2    -0.2120  -11.0491 -0.000000  0.000000 -0.000000  0.000000 -0.000000  0.000000 -0.000000  0.000000 -0.000000  0.000000
                                -0.000000  0.000000 -0.000000  0.000000 -0.000000  0.000000 -0.000000  0.000000 -0.000000  0.000000
                                -0.000000  0.000000 -0.000001  0.000002 -0.000008  0.000031  0.000106 -0.000138 -0.000091  0.000026
                                -0.000027  0.000106 -0.000087 -0.000087  0.000163  0.000000 -0.000000 -0.000000  0.000000  0.000000
                                -0.000000 -0.000000  0.000000  0.000001 -0.000002 -0.000002  0.000006  0.000005 -0.000017 -0.000014
                                 0.000045  0.000036 -0.000118 -0.000115  0.000378  0.000495 -0.001638 -0.004211  0.013929  0.012704
                                -0.042018 -0.004832  0.016048 -0.063237  0.209183 -0.105057  0.347491 -0.101752  0.336752 -0.058260
                                 0.192777 -0.023510  0.077799  0.012343 -0.040899 -0.007810  0.026008 -0.000001  0.000000  0.000002
                                 0.000001 -0.000000 -0.000002 -0.000001 -0.000001 -0.000000

   3.1   2    -0.2120  -11.0491  0.000000 -0.000000  0.000000 -0.000000  0.000000 -0.000000  0.000000 -0.000000  0.000000 -0.000000
                                 0.000000 -0.000000  0.000000 -0.000000  0.000000 -0.000000  0.000000 -0.000000  0.000000 -0.000000
                                 0.000000 -0.000000  0.000000 -0.000001  0.000002 -0.000008 -0.000030  0.000039  0.000025 -0.000008
                                 0.000011 -0.000033  0.000026  0.000024 -0.000046 -0.000000 -0.000000  0.000000  0.000000 -0.000000
                                -0.000000  0.000000  0.000000 -0.000002 -0.000001  0.000006  0.000002 -0.000017 -0.000005  0.000045
                                 0.000014 -0.000118 -0.000036  0.000379  0.000114 -0.001639 -0.000495  0.013931  0.004210 -0.042026
                                -0.012702  0.016027  0.004838  0.209213  0.063230  0.347557  0.105045  0.336732  0.101756  0.192777
                                 0.058256  0.077802  0.023513 -0.040879 -0.012349  0.025938  0.007824  0.000000 -0.000000 -0.000000
                                -0.000000  0.000000  0.000000  0.000000  0.000000  0.000000

   4.1   2    -0.0421   -6.0321  0.000000 -0.000000  0.000000 -0.000000  0.000000 -0.000000  0.000000 -0.000000  0.000000 -0.000000
                                 0.000000 -0.000001  0.000002 -0.000005  0.000012 -0.000030  0.000075 -0.000186  0.000458 -0.001110
                                 0.002647 -0.006213  0.013123 -0.008327 -0.094338  0.289684  0.105220 -0.362920 -0.261040  0.145082
                                 0.417622  0.332857  0.319050 -0.088080  0.003091 -0.000000 -0.000000  0.000000  0.000000 -0.000000
                                -0.000000  0.000000  0.000000 -0.000000 -0.000000  0.000000  0.000000 -0.000000 -0.000000  0.000000
                                 0.000000 -0.000000 -0.000000  0.000000  0.000000 -0.000000  0.000000  0.000000 -0.000000 -0.000001
                                 0.000000 -0.000001 -0.000001  0.000002 -0.000002  0.000002 -0.000004  0.000002 -0.000004  0.000001
                                -0.000002  0.000000 -0.000002  0.000001  0.000001 -0.000000 -0.000001 -0.000000  0.000000  0.000000
                                 0.000000 -0.000000 -0.000000 -0.000000  0.000000  0.000000

   5.1   0     0.1573   -2.3096  0.000000 -0.000000  0.000000 -0.000000  0.000000 -0.000000  0.000000 -0.000000  0.000000 -0.000000
                                 0.000000 -0.000001  0.000002 -0.000005  0.000014 -0.000035  0.000088 -0.000217  0.000526 -0.001238
                                 0.002794 -0.006020  0.013008 -0.036225  0.134774 -0.530587 -1.738477  2.190977  1.452846 -0.893078
                                 1.508985 -3.132487  2.504438  1.438713 -2.497174 -0.000000 -0.000000  0.000000  0.000000 -0.000000
                                -0.000000  0.000000  0.000000 -0.000000 -0.000000 -0.000000  0.000000  0.000000 -0.000000 -0.000000
                                 0.000000  0.000000 -0.000000 -0.000000  0.000000  0.000000 -0.000000 -0.000001  0.000001  0.000002
                                -0.000001  0.000001  0.000002 -0.000007  0.000006 -0.000013  0.000010 -0.000006  0.000013 -0.000006
                                 0.000005  0.000001  0.000005 -0.000001 -0.000002  0.000005  0.000004  0.000000  0.000000 -0.000000
                                -0.000000 -0.000000  0.000000 -0.000000  0.000000 -0.000000

   6.1   0     0.3929   -3.6796 -0.000000  0.000000 -0.000000  0.000000 -0.000000  0.000000 -0.000000  0.000000 -0.000000  0.000000
                                -0.000001  0.000003 -0.000009  0.000023 -0.000059  0.000149 -0.000375  0.000931 -0.002271  0.005404
                                -0.012469  0.027843 -0.059634  0.112700 -0.181574  0.871731  4.492219 -5.266744 -3.511898  2.377279
                                -5.407514  5.099421 -1.706930 -3.705107  6.848930  0.000000 -0.000000 -0.000000  0.000000  0.000000
                                -0.000000 -0.000000  0.000000  0.000000 -0.000000 -0.000000  0.000000  0.000000 -0.000000 -0.000000
                                 0.000000  0.000000 -0.000000 -0.000000  0.000000  0.000001 -0.000001 -0.000002  0.000002  0.000011
                                -0.000013  0.000031 -0.000032 -0.000041  0.000038 -0.000090  0.000079  0.000031 -0.000024 -0.000045
                                 0.000039  0.000065 -0.000059 -0.000029  0.000031  0.000095 -0.000084  0.000000 -0.000000 -0.000000
                                -0.000000  0.000000 -0.000000 -0.000000 -0.000000  0.000000

                                   1 2px     1 2px     1 2px     1 2px     1 2px     1 2px     1 2px     1 2px     1 2px     1 2px  
                                   1 2px     1 2px     1 2px     1 2px     1 2px     1 2px     1 2px     1 2px     1 2px     1 2px  
                                   1 2px     1 2px     1 2px     1 2px     1 2px     1 2px     1 2px     1 2px     1 2px     1 2px  
                                   1 2px     1 4f1+    1 4f3+    1 4f1+    1 4f3+    1 4f1+    1 4f3+    1 4f1+    1 4f3+    1 4f1+ 
                                   1 4f3+    1 4f1+    1 4f3+    1 4f1+    1 4f3+    1 4f1+    1 4f3+    1 4f1+    1 4f3+    1 4f1+ 
                                   1 4f3+    1 4f1+    1 4f3+    1 4f1+    1 4f3+    1 4f1+    1 4f3+    1 4f1+    1 4f3+    1 4f1+ 
                                   1 4f3+ 

   1.2   2    -2.5126  -17.3611  0.000000 -0.000000  0.000000 -0.000000  0.000000 -0.000000  0.000000 -0.000000  0.000001 -0.000003
                                 0.000010 -0.000028  0.000075 -0.000188  0.000449 -0.001017  0.002172 -0.003628 -0.006890  0.112910
                                -0.343293 -0.144850  0.532893  0.525034  0.168967  0.017144  0.001339  0.000284 -0.000005  0.118196
                                -0.030645  0.000000  0.000000 -0.000000 -0.000000  0.000000  0.000000 -0.000000 -0.000000  0.000000
                                 0.000000 -0.000000 -0.000000  0.000000  0.000000 -0.000000 -0.000000  0.000000  0.000000 -0.000000
                                -0.000000 -0.000000 -0.000000  0.000000 -0.000000  0.000000  0.000000  0.000000  0.000000 -0.000000
                                -0.000000

   2.2   0     0.1242   -1.6593  0.000000 -0.000000  0.000000 -0.000000  0.000000 -0.000000  0.000000 -0.000000  0.000001 -0.000003
                                 0.000009 -0.000025  0.000066 -0.000166  0.000394 -0.000889  0.001935 -0.004169  0.009444 -0.025050
                                 0.090903  1.209154 -0.462994 -1.095069  0.303357 -0.327353  0.642868 -1.266059  1.676663 -1.117010
                                 1.204166  0.000000 -0.000000  0.000000  0.000000 -0.000000 -0.000000 -0.000000  0.000000  0.000000
                                -0.000000 -0.000000  0.000000  0.000000 -0.000000 -0.000000  0.000000  0.000000 -0.000000  0.000000
                                -0.000000  0.000000 -0.000000 -0.000000  0.000000 -0.000000  0.000000 -0.000000  0.000000  0.000000
                                -0.000000

[...]
 CPU TIMES  *       701.66      0.23      0.42      0.01      1.33      7.52      1.03     21.13      0.09      4.30      0.01
 REAL TIME  *       902.58 SEC
 DISK USED  *        11.79 GB      
 SF USED    *         1.62 GB      
 GA USED    *         0.00 MB       (max)       0.00 MB       (current)
 **********************************************************************************************************************************
 SETTING SCF(13)        =       -72.22007895  AU                              
 SETTING _CC_NORM_MAX   =         2.00000000                                  


 PROGRAM * CCSD (Restricted open-shell coupled cluster)     Authors: C. Hampel, H.-J. Werner, 1991, M. Deegan, P.J. Knowles, 1992


 Convergence thresholds:  THRVAR = 1.00D-08  THRDEN = 1.00D-06

 CCSD(T)     terms to be evaluated (factor= 1.000)


 Number of closed-shell orbitals:   1 (   1   0   0   0   0   0   0   0 )
 Number of active  orbitals:        3 (   0   1   1   0   1   0   0   0 )
 Number of external orbitals:     361 (  85  60  60  27  60  27  27  15 )

 Memory could be reduced to 64.80 Mwords without degradation in triples

 Number of N-1 electron functions:               5
 Number of N-2 electron functions:              10
 Number of singly external CSFs:               353
 Number of doubly external CSFs:            123736
 Total number of CSFs:                      124089

 Molecular orbitals read from record     2113.2  Type=RHF/CANONICAL (state 1.8)

 Integral transformation finished. Total CPU:   1.08 sec, npass=  1  Memory used:   7.94 MW

 Starting RMP2 calculation

 Wavefunction is spin-projected

 ITER.      SQ.NORM     CORR.ENERGY   TOTAL ENERGY   ENERGY CHANGE        DEN1      VAR(S)    VAR(P)  DIIS     TIME
   1      1.01330357    -0.11359073   -72.33366968    -0.11359073    -0.00009362  0.13D-08  0.12D-04  1  1     1.09
   2      1.01333185    -0.11368799   -72.33376694    -0.00009726    -0.00000001  0.85D-12  0.65D-09  2  2     1.10
   3      1.01333194    -0.11368816   -72.33376711    -0.00000017    -0.00000000  0.12D-15  0.93D-13  3  3     1.14

 Norm of t1 vector:      0.00355514      S-energy:    -0.00020278      T1 diagnostic:  0.00003774
 Norm of t2 vector:      0.11540928      P-energy:    -0.11348539
                                         Alpha-Beta:  -0.08600452
                                         Alpha-Alpha: -0.02748086
                                         Beta-Beta:    0.00000000

 Spin contamination <S**2-Sz**2-Sz>     0.00000000
  Reference energy                    -72.220078946589
  RHF-RMP2 correlation energy          -0.113688164331
 !RHF-RMP2 energy                     -72.333767110920
 (NB above energy spin projected)

 Starting RCCSD calculation

 ITER.      SQ.NORM     CORR.ENERGY   TOTAL ENERGY   ENERGY CHANGE        DEN1      VAR(S)    VAR(P)  DIIS     TIME
   1      1.01550676    -0.12095900   -72.34103795    -0.12095900    -0.00139369  0.30D-05  0.18D-03  1  1     1.47
   2      1.01602781    -0.12242815   -72.34250709    -0.00146915    -0.00000973  0.16D-07  0.11D-05  2  2     1.70
   3      1.01605878    -0.12248308   -72.34256203    -0.00005493    -0.00000008  0.12D-09  0.94D-08  3  3     1.95
   4      1.01606084    -0.12248694   -72.34256589    -0.00000386    -0.00000000  0.27D-11  0.19D-10  4  4     2.18
   5      1.01606085    -0.12248690   -72.34256585     0.00000004    -0.00000000  0.95D-14  0.56D-13  5  5     2.42

 Norm of t1 vector:      0.00392179      S-energy:    -0.00018896      T1 diagnostic:  0.00061269
                                                                       D1 diagnostic:  0.00098486
 Norm of t2 vector:      0.12667071      P-energy:    -0.12229794
                                         Alpha-Beta:  -0.09428839
                                         Alpha-Alpha: -0.02800955
                                         Beta-Beta:    0.00000000

 Spin contamination <S**2-Sz**2-Sz>     0.00000000

 Memory could be reduced to 65.45 Mwords without degradation in triples
 

  Correlated core orbitals:             1.1       1.2       1.3       1.5
  Orbital energies:                   -14.2745  -11.9575  -11.9575  -11.9575
 
  RCCSD core-core energy               -0.122486899343
 

 RESULTS
 =======

  Reference energy                    -72.220078946589
  RCCSD singles energy                 -0.000188963492
  RCCSD pair energy                    -0.122297935850
  RCCSD correlation energy             -0.122486899343
  Triples (T) contribution             -0.001470530141
  Total correlation energy             -0.123957429484
 
  RHF-RCCSD energy                    -72.342565845931
  RHF-RCCSD[T] energy                 -72.344035718842
  RHF-RCCSD-T energy                  -72.344036238728
 !RHF-RCCSD(T) energy                 -72.344036376073

 Program statistics:

 Available memory in ccsd:               511999732
 Min. memory needed in ccsd:                951563
 Max. memory used in ccsd:                 1059117
 Max. memory used in cckext:               1312717 ( 5 integral passes)
 Max. memory used in cckint:               7942985 ( 1 integral passes)



 **********************************************************************************************************************************
 DATASETS  * FILE   NREC   LENGTH (MB)   RECORD NAMES
              1      20       37.58       500      610      700      900      950      970     1000      129      960     1100   
                                          VAR    BASINP    GEOM    SYMINP    ZMAT    AOBASIS   BASIS     P2S    ABASIS      S 
                                         1400     1410     1420     1200     1210     1080     1600     1650     1700     1380   
                                           T        V       ECP      H0       H01     AOSYM     SMH    MOLCAS    OPER     JKOP   

              2      22       53.43       200      700     1000      520     4202     5202     2103     2114     5202(1)  2105   
                                        OPTIONS   GEOM     BASIS   MCVARS     RHF     MCSCF     RHF      RHF     MCSCF     RHF  
                                         5202(2)  2101     2109     2107     2116     5202(3)  2118     2120     2122     2124   
                                         MCSCF     RHF      RHF      RHF      RHF     MCSCF     RHF      RHF      RHF      RHF  
                                         2110     2113   
                                          RHF      RHF  

 PROGRAMS   *        TOTAL  RCCSD(T)       RHF     MULTI       POP       RHF  RCCSD(T)       RHF  RCCSD(T)       RHF     MULTI
 CPU TIMES  *       706.90      5.24      0.23      0.42      0.01      1.33      7.52      1.03     21.13      0.09      4.30
 REAL TIME  *       910.22 SEC
 DISK USED  *        11.79 GB      
 SF USED    *         1.62 GB      
 GA USED    *         0.00 MB       (max)       0.00 MB       (current)
 **********************************************************************************************************************************
 SETTING CCSD(13)       =       -72.34403638  AU                              

 DO I                   =        14.00000000   

 Running procedure=XVIIIS2


 PROGRAM * RHF-SCF (CLOSED SHELL)       Authors: W. Meyer, H.-J. Werner


 NUMBER OF ELECTRONS:       1+    1-    SPACE SYMMETRY=1    SPIN SYMMETRY: Singlet 
 CONVERGENCE THRESHOLDS:    1.00E-05 (Density)    1.00E-07 (Energy)
 MAX. NUMBER OF ITERATIONS:       60
 INTERPOLATION TYPE:            DIIS
 INTERPOLATION STEPS:              2 (START)      1 (STEP)
 LEVEL SHIFTS:                  0.00 (CLOSED)  0.00 (OPEN) 

 Number of closed-shell orbitals:    1 (   1   0   0   0   0   0   0   0 )


 
 Extra symmetries of mos in symmetry 1:   1   3   2   1
 Orbital guess generated from atomic densities. Full valence occupancy:    4   1   1   1   1   1   1   0


 Molecular orbital dump at record        2111.2

 ITERATION    DDIFF          GRAD             ENERGY        2-EL.EN.            DIPOLE MOMENTS         DIIS   ORB.
    1      0.000D+00      0.000D+00       -33.53466741      1.897823    0.00000    0.00000    0.00000    0    start
    2      0.000D+00      0.131D+00       -33.93712482      2.068065    0.00000    0.00000    0.00000    1    diag
    3      0.266D-01      0.958D-02       -33.93924566      2.080343    0.00000    0.00000    0.00000    2    diag
    4      0.268D-02      0.453D-04       -33.93924570      2.080384    0.00000    0.00000    0.00000    3    diag
    5      0.440D-04      0.443D-05       -33.93924570      2.080384    0.00000    0.00000    0.00000    4    diag
    6      0.233D-05      0.692D-05       -33.93924570      2.080384    0.00000    0.00000    0.00000    0    orth

 Final occupancy:   1   0   0   0   0   0   0   0

 !RHF STATE 1.1 Energy                -33.939245696548
 Nuclear energy                         0.00000000
 One-electron energy                  -34.97943773
 Two-electron energy                    1.04019203
 Virial quotient                       -5.79231948
 !RHF STATE 1.1 Dipole moment           0.00000000     0.00000000     0.00000000
 Dipole moment /Debye                   0.00000000     0.00000000     0.00000000

 Orbital energies:

         1.1          2.1          3.1
    -16.449527   -10.715842   -10.715848

         1.2          2.2
    -13.570219    -7.796378

         1.3          2.3
    -13.570219    -7.796378

         1.4          2.4
    -10.715842    -6.457056

         1.5          2.5
    -13.570219    -7.796378

         1.6          2.6
    -10.715842    -6.457056

         1.7          2.7
    -10.715842    -6.457056

         1.8          2.8
     -7.796378    -5.109414

 HOMO      1.1   -16.449527 =    -447.6144eV
 LUMO      1.2   -13.570219 =    -369.2644eV
 LUMO-HOMO         2.879308 =      78.3500eV


 **********************************************************************************************************************************
 DATASETS  * FILE   NREC   LENGTH (MB)   RECORD NAMES
              1      20       37.58       500      610      700      900      950      970     1000      129      960     1100   
                                          VAR    BASINP    GEOM    SYMINP    ZMAT    AOBASIS   BASIS     P2S    ABASIS      S 
                                         1400     1410     1420     1200     1210     1080     1600     1650     1700     1380   
                                           T        V       ECP      H0       H01     AOSYM     SMH    MOLCAS    OPER     JKOP   

              2      23       56.61       200      700     1000      520     4202     5202     2103     2114     5202(1)  2105   
                                        OPTIONS   GEOM     BASIS   MCVARS     RHF     MCSCF     RHF      RHF     MCSCF     RHF  
                                         5202(2)  2101     2109     2107     2116     5202(3)  2118     2120     2122     2124   
                                         MCSCF     RHF      RHF      RHF      RHF     MCSCF     RHF      RHF      RHF      RHF  
                                         2110     2113     2111   
                                          RHF      RHF      RHF  

 PROGRAMS   *        TOTAL       RHF  RCCSD(T)       RHF     MULTI       POP       RHF  RCCSD(T)       RHF  RCCSD(T)       RHF
 CPU TIMES  *       708.34      1.44      5.24      0.23      0.42      0.01      1.33      7.52      1.03     21.13      0.09
 REAL TIME  *       911.78 SEC
 DISK USED  *        11.79 GB      
 SF USED    *         1.62 GB      
 GA USED    *         0.00 MB       (max)       0.00 MB       (current)
 **********************************************************************************************************************************
 SETTING SCF(14)        =       -33.93924570  AU                              
 SETTING _CC_NORM_MAX   =         2.00000000                                  


 PROGRAM * CCSD (Restricted open-shell coupled cluster)     Authors: C. Hampel, H.-J. Werner, 1991, M. Deegan, P.J. Knowles, 1992


 Convergence thresholds:  THRVAR = 1.00D-08  THRDEN = 1.00D-06

 CCSD(T)     terms to be evaluated (factor= 1.000)


 Number of closed-shell orbitals:   1 (   1   0   0   0   0   0   0   0 )
 Number of external orbitals:     364 (  85  61  61  27  61  27  27  15 )

 Memory could be reduced to 45.90 Mwords without degradation in triples

 Number of N-1 electron functions:               2
 Number of N-2 electron functions:               1
 Number of singly external CSFs:               170
 Number of doubly external CSFs:             20800
 Total number of CSFs:                       20970

 Molecular orbitals read from record     2111.2  Type=RHF/CANONICAL (state 1.1)

 Integral transformation finished. Total CPU:   0.25 sec, npass=  1  Memory used:   3.51 MW

 Starting RMP2 calculation

 Wavefunction is spin-projected

 ITER.      SQ.NORM     CORR.ENERGY   TOTAL ENERGY   ENERGY CHANGE        DEN1      VAR(S)    VAR(P)  DIIS     TIME
   1      1.00640578    -0.04523935   -33.98448505    -0.04523935    -0.00003720  0.58D-15  0.60D-05  1  1     0.27
   2      1.00641862    -0.04527774   -33.98452344    -0.00003838    -0.00000000  0.11D-18  0.92D-10  2  2     0.27
   3      1.00641865    -0.04527780   -33.98452350    -0.00000006    -0.00000000  0.42D-23  0.99D-15  3  3     0.27

 Norm of t1 vector:      0.00000146      S-energy:    -0.00000000      T1 diagnostic:  0.00000073
 Norm of t2 vector:      0.08011650      P-energy:    -0.04527780
                                         Alpha-Beta:  -0.04527780
                                         Alpha-Alpha:  0.00000000
                                         Beta-Beta:    0.00000000

 Spin contamination <S**2-Sz**2-Sz>     0.00000000
  Reference energy                    -33.939245696548
  RHF-RMP2 correlation energy          -0.045277801650
 !RHF-RMP2 energy                     -33.984523498198
 (NB above energy spin projected)

 Starting RCCSD calculation

 ITER.      SQ.NORM     CORR.ENERGY   TOTAL ENERGY   ENERGY CHANGE        DEN1      VAR(S)    VAR(P)  DIIS     TIME
   1      1.00817114    -0.04931300   -33.98855869    -0.04931300    -0.00131231  0.99D-06  0.20D-03  1  1     0.33
   2      1.00892155    -0.05093149   -33.99017719    -0.00161850    -0.00000685  0.64D-08  0.74D-06  2  2     0.38
   3      1.00896319    -0.05100799   -33.99025369    -0.00007650    -0.00000003  0.43D-10  0.24D-08  3  3     0.44
   4      1.00896292    -0.05100683   -33.99025252     0.00000117    -0.00000000  0.26D-13  0.34D-11  4  4     0.49
   5      1.00896296    -0.05100691   -33.99025261    -0.00000009    -0.00000000  0.83D-16  0.29D-14  5  5     0.56

 Norm of t1 vector:      0.00117674      S-energy:     0.00000001      T1 diagnostic:  0.00058837
                                                                       D1 diagnostic:  0.00083208
 Norm of t2 vector:      0.09466560      P-energy:    -0.05100692
                                         Alpha-Beta:  -0.05100692
                                         Alpha-Alpha:  0.00000000
                                         Beta-Beta:    0.00000000

 Doubles amplitudes (print threshold =  0.500E-01):

         I         J         SYM. A    SYM. B    A         B      T(IJ, AB) [Alpha-Beta]

         1         1         2         2         1         1     -0.05224975
         1         1         3         3         1         1     -0.05224975
         1         1         5         5         1         1     -0.05224975

 Spin contamination <S**2-Sz**2-Sz>     0.00000000

 Memory could be reduced to 45.75 Mwords without degradation in triples
 

  Correlated core orbitals:             1.1
  Orbital energies:                   -16.4495
 
  RCCSD core-core energy               -0.051006913284
 

 RESULTS
 =======

  Reference energy                    -33.939245696548
  RCCSD singles energy                  0.000000011593
  RCCSD pair energy                    -0.051006924878
  RCCSD correlation energy             -0.051006913284
  Triples (T) contribution              0.000000000000
  Total correlation energy             -0.051006913284
 
  RHF-RCCSD energy                    -33.990252609833
  RHF-RCCSD[T] energy                 -33.990252609833
  RHF-RCCSD-T energy                  -33.990252609833
 !RHF-RCCSD(T) energy                 -33.990252609833

 Program statistics:

 Available memory in ccsd:               511999882
 Min. memory needed in ccsd:                588317
 Max. memory used in ccsd:                  588317
 Max. memory used in cckext:               1001971 ( 5 integral passes)
 Max. memory used in cckint:               3508682 ( 1 integral passes)



 **********************************************************************************************************************************
 DATASETS  * FILE   NREC   LENGTH (MB)   RECORD NAMES
              1      20       37.58       500      610      700      900      950      970     1000      129      960     1100   
                                          VAR    BASINP    GEOM    SYMINP    ZMAT    AOBASIS   BASIS     P2S    ABASIS      S 
                                         1400     1410     1420     1200     1210     1080     1600     1650     1700     1380   
                                           T        V       ECP      H0       H01     AOSYM     SMH    MOLCAS    OPER     JKOP   

              2      23       56.61       200      700     1000      520     4202     5202     2103     2114     5202(1)  2105   
                                        OPTIONS   GEOM     BASIS   MCVARS     RHF     MCSCF     RHF      RHF     MCSCF     RHF  
                                         5202(2)  2101     2109     2107     2116     5202(3)  2118     2120     2122     2124   
                                         MCSCF     RHF      RHF      RHF      RHF     MCSCF     RHF      RHF      RHF      RHF  
                                         2110     2113     2111   
                                          RHF      RHF      RHF  

 PROGRAMS   *        TOTAL  RCCSD(T)       RHF  RCCSD(T)       RHF     MULTI       POP       RHF  RCCSD(T)       RHF  RCCSD(T)
 CPU TIMES  *       709.60      1.25      1.44      5.24      0.23      0.42      0.01      1.33      7.52      1.03     21.13
 REAL TIME  *       913.65 SEC
 DISK USED  *        11.79 GB      
 SF USED    *         1.62 GB      
 GA USED    *         0.00 MB       (max)       0.00 MB       (current)
 **********************************************************************************************************************************
 SETTING CCSD(14)       =       -33.99025261  AU                              
                                                                                                                                                                                                                                                                

         SCF             CCSD
    -134.99647542   -135.70318330
    -135.02031471   -135.78626972
    -134.84001238   -135.51838681
    -134.92652377   -135.64469124
    -134.71467005   -135.36612937
    -134.63097281   -135.28036687
    -134.00959883   -134.60714680
    -132.87202589   -133.41071735
    -131.22576634   -131.71391893
    -129.03719369   -129.48011884
    -126.32255737   -126.71190281
    -102.35774544   -102.61728762
     -72.22007895    -72.34403638
     -33.93924570    -33.99025261
                                                  

 RCCSD(T)/USERDEF energy=    -33.990252609833

        RCCSD(T)        RHF-SCF         RCCSD(T)        RHF-SCF         MULTI           RHF-SCF         RCCSD(T)        RHF-SCF 
    -33.99025261    -33.93924570    -72.34403638    -72.22007895    -72.22007895    -72.22007895   -102.61728762   -102.35774544
 **********************************************************************************************************************************
 Molpro calculation terminated
 Variable memory released
