/global/cscratch1/sd/bkincaid/cutoffs/W/250-610/runs/scf_350

     Program PWSCF v.6.4.1 starts on 17Jan2022 at 19:50: 2 

     This program is part of the open-source Quantum ESPRESSO suite
     for quantum simulation of materials; please cite
         "P. Giannozzi et al., J. Phys.:Condens. Matter 21 395502 (2009);
         "P. Giannozzi et al., J. Phys.:Condens. Matter 29 465901 (2017);
          URL http://www.quantum-espresso.org", 
     in publications or presentations arising from this work. More details at
     http://www.quantum-espresso.org/quote

     Parallel version (MPI & OpenMP), running on      32 processor cores
     Number of MPI processes:                32
     Threads/MPI process:                     1

     MPI processes distributed on     1 nodes
     R & G space division:  proc/nbgrp/npool/nimage =      32
     Reading input from scf_350.in

     Current dimensions of program PWSCF are:
     Max number of different atomic species (ntypx) = 10
     Max number of k-points (npk) =  40000
     Max angular momentum in pseudopotentials (lmaxx) =  3

     IMPORTANT: XC functional enforced from input :
     Exchange-correlation      = PBE ( 1  4  3  4 0 0)
     Any further DFT definition will be discarded
     Please, verify this is what you really want


     gamma-point specific algorithms are used

     Subspace diagonalization in iterative solution of the eigenvalue problem:
     one sub-group per band group will be used
     scalapack distributed-memory algorithm (size of sub-group:  4*  4 procs)

     Message from routine setup:
     DEPRECATED: symmetry with ibrav=0, use correct ibrav instead
 
     Parallelization info
     --------------------
     sticks:   dense  smooth     PW     G-vecs:    dense   smooth      PW
     Min        1788    1788    446               322336   322336   40298
     Max        1790    1790    448               322346   322346   40308
     Sum       57249   57249  14329             10314863 10314863 1289759
 


     bravais-lattice index     =            0
     lattice parameter (alat)  =      22.6767  a.u.
     unit-cell volume          =   11661.1222 (a.u.)^3
     number of atoms/cell      =            1
     number of atomic types    =            1
     number of electrons       =        14.00 (up:   9.00, down:   5.00)
     number of Kohn-Sham states=           12
     kinetic-energy cutoff     =     350.0000  Ry
     charge density cutoff     =    1400.0000  Ry
     convergence threshold     =      1.0E-06
     mixing beta               =       0.7000
     number of iterations used =            8  plain     mixing
     Exchange-correlation      = PBE ( 1  4  3  4 0 0)

     celldm(1)=  22.676714  celldm(2)=   0.000000  celldm(3)=   0.000000
     celldm(4)=   0.000000  celldm(5)=   0.000000  celldm(6)=   0.000000

     crystal axes: (cart. coord. in units of alat)
               a(1) = (   1.000000   0.000000   0.000000 )  
               a(2) = (   0.000000   1.000000   0.000000 )  
               a(3) = (   0.000000   0.000000   1.000000 )  

     reciprocal axes: (cart. coord. in units 2 pi/alat)
               b(1) = (  1.000000  0.000000  0.000000 )  
               b(2) = (  0.000000  1.000000  0.000000 )  
               b(3) = (  0.000000  0.000000  1.000000 )  


     PseudoPot. # 1 for W  read from file:
     ./W.upf
     MD5 check sum: 4ed05a8c0c5f577ff01fd4795b4ecf91
     Pseudo is Norm-conserving, Zval = 14.0
     Generated by new atomic code, or converted to UPF format
     Using radial grid of 1187 points,  3 beta functions with: 
                l(1) =   0
                l(2) =   2
                l(3) =   3

     atomic species   valence    mass     pseudopotential
        W             14.00   183.85000     W ( 1.00)

     Starting magnetic structure 
     atomic species   magnetization
        W            0.500

     48 Sym. Ops., with inversion, found


                                    s                        frac. trans.

      isym =  1     identity                                     

 cryst.   s( 1) = (     1          0          0      )
                  (     0          1          0      )
                  (     0          0          1      )

 cart.    s( 1) = (  1.0000000  0.0000000  0.0000000 )
                  (  0.0000000  1.0000000  0.0000000 )
                  (  0.0000000  0.0000000  1.0000000 )


      isym =  2     180 deg rotation - cart. axis [0,0,1]        

 cryst.   s( 2) = (    -1          0          0      )
                  (     0         -1          0      )
                  (     0          0          1      )

 cart.    s( 2) = ( -1.0000000  0.0000000  0.0000000 )
                  (  0.0000000 -1.0000000  0.0000000 )
                  (  0.0000000  0.0000000  1.0000000 )


      isym =  3     180 deg rotation - cart. axis [0,1,0]        

 cryst.   s( 3) = (    -1          0          0      )
                  (     0          1          0      )
                  (     0          0         -1      )

 cart.    s( 3) = ( -1.0000000  0.0000000  0.0000000 )
                  (  0.0000000  1.0000000  0.0000000 )
                  (  0.0000000  0.0000000 -1.0000000 )


      isym =  4     180 deg rotation - cart. axis [1,0,0]        

 cryst.   s( 4) = (     1          0          0      )
                  (     0         -1          0      )
                  (     0          0         -1      )

 cart.    s( 4) = (  1.0000000  0.0000000  0.0000000 )
                  (  0.0000000 -1.0000000  0.0000000 )
                  (  0.0000000  0.0000000 -1.0000000 )


      isym =  5     180 deg rotation - cart. axis [1,1,0]        

 cryst.   s( 5) = (     0          1          0      )
                  (     1          0          0      )
                  (     0          0         -1      )

 cart.    s( 5) = (  0.0000000  1.0000000  0.0000000 )
                  (  1.0000000  0.0000000  0.0000000 )
                  (  0.0000000  0.0000000 -1.0000000 )


      isym =  6     180 deg rotation - cart. axis [1,-1,0]       

 cryst.   s( 6) = (     0         -1          0      )
                  (    -1          0          0      )
                  (     0          0         -1      )

 cart.    s( 6) = (  0.0000000 -1.0000000  0.0000000 )
                  ( -1.0000000  0.0000000  0.0000000 )
                  (  0.0000000  0.0000000 -1.0000000 )


      isym =  7      90 deg rotation - cart. axis [0,0,-1]       

 cryst.   s( 7) = (     0         -1          0      )
                  (     1          0          0      )
                  (     0          0          1      )

 cart.    s( 7) = (  0.0000000  1.0000000  0.0000000 )
                  ( -1.0000000  0.0000000  0.0000000 )
                  (  0.0000000  0.0000000  1.0000000 )


      isym =  8      90 deg rotation - cart. axis [0,0,1]        

 cryst.   s( 8) = (     0          1          0      )
                  (    -1          0          0      )
                  (     0          0          1      )

 cart.    s( 8) = (  0.0000000 -1.0000000  0.0000000 )
                  (  1.0000000  0.0000000  0.0000000 )
                  (  0.0000000  0.0000000  1.0000000 )


      isym =  9     180 deg rotation - cart. axis [1,0,1]        

 cryst.   s( 9) = (     0          0          1      )
                  (     0         -1          0      )
                  (     1          0          0      )

 cart.    s( 9) = (  0.0000000  0.0000000  1.0000000 )
                  (  0.0000000 -1.0000000  0.0000000 )
                  (  1.0000000  0.0000000  0.0000000 )


      isym = 10     180 deg rotation - cart. axis [-1,0,1]       

 cryst.   s(10) = (     0          0         -1      )
                  (     0         -1          0      )
                  (    -1          0          0      )

 cart.    s(10) = (  0.0000000  0.0000000 -1.0000000 )
                  (  0.0000000 -1.0000000  0.0000000 )
                  ( -1.0000000  0.0000000  0.0000000 )


      isym = 11      90 deg rotation - cart. axis [0,1,0]        

 cryst.   s(11) = (     0          0         -1      )
                  (     0          1          0      )
                  (     1          0          0      )

 cart.    s(11) = (  0.0000000  0.0000000  1.0000000 )
                  (  0.0000000  1.0000000  0.0000000 )
                  ( -1.0000000  0.0000000  0.0000000 )


      isym = 12      90 deg rotation - cart. axis [0,-1,0]       

 cryst.   s(12) = (     0          0          1      )
                  (     0          1          0      )
                  (    -1          0          0      )

 cart.    s(12) = (  0.0000000  0.0000000 -1.0000000 )
                  (  0.0000000  1.0000000  0.0000000 )
                  (  1.0000000  0.0000000  0.0000000 )


      isym = 13     180 deg rotation - cart. axis [0,1,1]        

 cryst.   s(13) = (    -1          0          0      )
                  (     0          0          1      )
                  (     0          1          0      )

 cart.    s(13) = ( -1.0000000  0.0000000  0.0000000 )
                  (  0.0000000  0.0000000  1.0000000 )
                  (  0.0000000  1.0000000  0.0000000 )


      isym = 14     180 deg rotation - cart. axis [0,1,-1]       

 cryst.   s(14) = (    -1          0          0      )
                  (     0          0         -1      )
                  (     0         -1          0      )

 cart.    s(14) = ( -1.0000000  0.0000000  0.0000000 )
                  (  0.0000000  0.0000000 -1.0000000 )
                  (  0.0000000 -1.0000000  0.0000000 )


      isym = 15      90 deg rotation - cart. axis [-1,0,0]       

 cryst.   s(15) = (     1          0          0      )
                  (     0          0         -1      )
                  (     0          1          0      )

 cart.    s(15) = (  1.0000000  0.0000000  0.0000000 )
                  (  0.0000000  0.0000000  1.0000000 )
                  (  0.0000000 -1.0000000  0.0000000 )


      isym = 16      90 deg rotation - cart. axis [1,0,0]        

 cryst.   s(16) = (     1          0          0      )
                  (     0          0          1      )
                  (     0         -1          0      )

 cart.    s(16) = (  1.0000000  0.0000000  0.0000000 )
                  (  0.0000000  0.0000000 -1.0000000 )
                  (  0.0000000  1.0000000  0.0000000 )


      isym = 17     120 deg rotation - cart. axis [-1,-1,-1]     

 cryst.   s(17) = (     0          0          1      )
                  (     1          0          0      )
                  (     0          1          0      )

 cart.    s(17) = (  0.0000000  1.0000000  0.0000000 )
                  (  0.0000000  0.0000000  1.0000000 )
                  (  1.0000000  0.0000000  0.0000000 )


      isym = 18     120 deg rotation - cart. axis [-1,1,1]       

 cryst.   s(18) = (     0          0         -1      )
                  (    -1          0          0      )
                  (     0          1          0      )

 cart.    s(18) = (  0.0000000 -1.0000000  0.0000000 )
                  (  0.0000000  0.0000000  1.0000000 )
                  ( -1.0000000  0.0000000  0.0000000 )


      isym = 19     120 deg rotation - cart. axis [1,1,-1]       

 cryst.   s(19) = (     0          0         -1      )
                  (     1          0          0      )
                  (     0         -1          0      )

 cart.    s(19) = (  0.0000000  1.0000000  0.0000000 )
                  (  0.0000000  0.0000000 -1.0000000 )
                  ( -1.0000000  0.0000000  0.0000000 )


      isym = 20     120 deg rotation - cart. axis [1,-1,1]       

 cryst.   s(20) = (     0          0          1      )
                  (    -1          0          0      )
                  (     0         -1          0      )

 cart.    s(20) = (  0.0000000 -1.0000000  0.0000000 )
                  (  0.0000000  0.0000000 -1.0000000 )
                  (  1.0000000  0.0000000  0.0000000 )


      isym = 21     120 deg rotation - cart. axis [1,1,1]        

 cryst.   s(21) = (     0          1          0      )
                  (     0          0          1      )
                  (     1          0          0      )

 cart.    s(21) = (  0.0000000  0.0000000  1.0000000 )
                  (  1.0000000  0.0000000  0.0000000 )
                  (  0.0000000  1.0000000  0.0000000 )


      isym = 22     120 deg rotation - cart. axis [-1,1,-1]      

 cryst.   s(22) = (     0         -1          0      )
                  (     0          0         -1      )
                  (     1          0          0      )

 cart.    s(22) = (  0.0000000  0.0000000  1.0000000 )
                  ( -1.0000000  0.0000000  0.0000000 )
                  (  0.0000000 -1.0000000  0.0000000 )


      isym = 23     120 deg rotation - cart. axis [1,-1,-1]      

 cryst.   s(23) = (     0         -1          0      )
                  (     0          0          1      )
                  (    -1          0          0      )

 cart.    s(23) = (  0.0000000  0.0000000 -1.0000000 )
                  ( -1.0000000  0.0000000  0.0000000 )
                  (  0.0000000  1.0000000  0.0000000 )


      isym = 24     120 deg rotation - cart. axis [-1,-1,1]      

 cryst.   s(24) = (     0          1          0      )
                  (     0          0         -1      )
                  (    -1          0          0      )

 cart.    s(24) = (  0.0000000  0.0000000 -1.0000000 )
                  (  1.0000000  0.0000000  0.0000000 )
                  (  0.0000000 -1.0000000  0.0000000 )


      isym = 25     inversion                                    

 cryst.   s(25) = (    -1          0          0      )
                  (     0         -1          0      )
                  (     0          0         -1      )

 cart.    s(25) = ( -1.0000000  0.0000000  0.0000000 )
                  (  0.0000000 -1.0000000  0.0000000 )
                  (  0.0000000  0.0000000 -1.0000000 )


      isym = 26     inv. 180 deg rotation - cart. axis [0,0,1]   

 cryst.   s(26) = (     1          0          0      )
                  (     0          1          0      )
                  (     0          0         -1      )

 cart.    s(26) = (  1.0000000  0.0000000  0.0000000 )
                  (  0.0000000  1.0000000  0.0000000 )
                  (  0.0000000  0.0000000 -1.0000000 )


      isym = 27     inv. 180 deg rotation - cart. axis [0,1,0]   

 cryst.   s(27) = (     1          0          0      )
                  (     0         -1          0      )
                  (     0          0          1      )

 cart.    s(27) = (  1.0000000  0.0000000  0.0000000 )
                  (  0.0000000 -1.0000000  0.0000000 )
                  (  0.0000000  0.0000000  1.0000000 )


      isym = 28     inv. 180 deg rotation - cart. axis [1,0,0]   

 cryst.   s(28) = (    -1          0          0      )
                  (     0          1          0      )
                  (     0          0          1      )

 cart.    s(28) = ( -1.0000000  0.0000000  0.0000000 )
                  (  0.0000000  1.0000000  0.0000000 )
                  (  0.0000000  0.0000000  1.0000000 )


      isym = 29     inv. 180 deg rotation - cart. axis [1,1,0]   

 cryst.   s(29) = (     0         -1          0      )
                  (    -1          0          0      )
                  (     0          0          1      )

 cart.    s(29) = (  0.0000000 -1.0000000  0.0000000 )
                  ( -1.0000000  0.0000000  0.0000000 )
                  (  0.0000000  0.0000000  1.0000000 )


      isym = 30     inv. 180 deg rotation - cart. axis [1,-1,0]  

 cryst.   s(30) = (     0          1          0      )
                  (     1          0          0      )
                  (     0          0          1      )

 cart.    s(30) = (  0.0000000  1.0000000  0.0000000 )
                  (  1.0000000  0.0000000  0.0000000 )
                  (  0.0000000  0.0000000  1.0000000 )


      isym = 31     inv.  90 deg rotation - cart. axis [0,0,-1]  

 cryst.   s(31) = (     0          1          0      )
                  (    -1          0          0      )
                  (     0          0         -1      )

 cart.    s(31) = (  0.0000000 -1.0000000  0.0000000 )
                  (  1.0000000  0.0000000  0.0000000 )
                  (  0.0000000  0.0000000 -1.0000000 )


      isym = 32     inv.  90 deg rotation - cart. axis [0,0,1]   

 cryst.   s(32) = (     0         -1          0      )
                  (     1          0          0      )
                  (     0          0         -1      )

 cart.    s(32) = (  0.0000000  1.0000000  0.0000000 )
                  ( -1.0000000  0.0000000  0.0000000 )
                  (  0.0000000  0.0000000 -1.0000000 )


      isym = 33     inv. 180 deg rotation - cart. axis [1,0,1]   

 cryst.   s(33) = (     0          0         -1      )
                  (     0          1          0      )
                  (    -1          0          0      )

 cart.    s(33) = (  0.0000000  0.0000000 -1.0000000 )
                  (  0.0000000  1.0000000  0.0000000 )
                  ( -1.0000000  0.0000000  0.0000000 )


      isym = 34     inv. 180 deg rotation - cart. axis [-1,0,1]  

 cryst.   s(34) = (     0          0          1      )
                  (     0          1          0      )
                  (     1          0          0      )

 cart.    s(34) = (  0.0000000  0.0000000  1.0000000 )
                  (  0.0000000  1.0000000  0.0000000 )
                  (  1.0000000  0.0000000  0.0000000 )


      isym = 35     inv.  90 deg rotation - cart. axis [0,1,0]   

 cryst.   s(35) = (     0          0          1      )
                  (     0         -1          0      )
                  (    -1          0          0      )

 cart.    s(35) = (  0.0000000  0.0000000 -1.0000000 )
                  (  0.0000000 -1.0000000  0.0000000 )
                  (  1.0000000  0.0000000  0.0000000 )


      isym = 36     inv.  90 deg rotation - cart. axis [0,-1,0]  

 cryst.   s(36) = (     0          0         -1      )
                  (     0         -1          0      )
                  (     1          0          0      )

 cart.    s(36) = (  0.0000000  0.0000000  1.0000000 )
                  (  0.0000000 -1.0000000  0.0000000 )
                  ( -1.0000000  0.0000000  0.0000000 )


      isym = 37     inv. 180 deg rotation - cart. axis [0,1,1]   

 cryst.   s(37) = (     1          0          0      )
                  (     0          0         -1      )
                  (     0         -1          0      )

 cart.    s(37) = (  1.0000000  0.0000000  0.0000000 )
                  (  0.0000000  0.0000000 -1.0000000 )
                  (  0.0000000 -1.0000000  0.0000000 )


      isym = 38     inv. 180 deg rotation - cart. axis [0,1,-1]  

 cryst.   s(38) = (     1          0          0      )
                  (     0          0          1      )
                  (     0          1          0      )

 cart.    s(38) = (  1.0000000  0.0000000  0.0000000 )
                  (  0.0000000  0.0000000  1.0000000 )
                  (  0.0000000  1.0000000  0.0000000 )


      isym = 39     inv.  90 deg rotation - cart. axis [-1,0,0]  

 cryst.   s(39) = (    -1          0          0      )
                  (     0          0          1      )
                  (     0         -1          0      )

 cart.    s(39) = ( -1.0000000  0.0000000  0.0000000 )
                  (  0.0000000  0.0000000 -1.0000000 )
                  (  0.0000000  1.0000000  0.0000000 )


      isym = 40     inv.  90 deg rotation - cart. axis [1,0,0]   

 cryst.   s(40) = (    -1          0          0      )
                  (     0          0         -1      )
                  (     0          1          0      )

 cart.    s(40) = ( -1.0000000  0.0000000  0.0000000 )
                  (  0.0000000  0.0000000  1.0000000 )
                  (  0.0000000 -1.0000000  0.0000000 )


      isym = 41     inv. 120 deg rotation - cart. axis [-1,-1,-1]

 cryst.   s(41) = (     0          0         -1      )
                  (    -1          0          0      )
                  (     0         -1          0      )

 cart.    s(41) = (  0.0000000 -1.0000000  0.0000000 )
                  (  0.0000000  0.0000000 -1.0000000 )
                  ( -1.0000000  0.0000000  0.0000000 )


      isym = 42     inv. 120 deg rotation - cart. axis [-1,1,1]  

 cryst.   s(42) = (     0          0          1      )
                  (     1          0          0      )
                  (     0         -1          0      )

 cart.    s(42) = (  0.0000000  1.0000000  0.0000000 )
                  (  0.0000000  0.0000000 -1.0000000 )
                  (  1.0000000  0.0000000  0.0000000 )


      isym = 43     inv. 120 deg rotation - cart. axis [1,1,-1]  

 cryst.   s(43) = (     0          0          1      )
                  (    -1          0          0      )
                  (     0          1          0      )

 cart.    s(43) = (  0.0000000 -1.0000000  0.0000000 )
                  (  0.0000000  0.0000000  1.0000000 )
                  (  1.0000000  0.0000000  0.0000000 )


      isym = 44     inv. 120 deg rotation - cart. axis [1,-1,1]  

 cryst.   s(44) = (     0          0         -1      )
                  (     1          0          0      )
                  (     0          1          0      )

 cart.    s(44) = (  0.0000000  1.0000000  0.0000000 )
                  (  0.0000000  0.0000000  1.0000000 )
                  ( -1.0000000  0.0000000  0.0000000 )


      isym = 45     inv. 120 deg rotation - cart. axis [1,1,1]   

 cryst.   s(45) = (     0         -1          0      )
                  (     0          0         -1      )
                  (    -1          0          0      )

 cart.    s(45) = (  0.0000000  0.0000000 -1.0000000 )
                  ( -1.0000000  0.0000000  0.0000000 )
                  (  0.0000000 -1.0000000  0.0000000 )


      isym = 46     inv. 120 deg rotation - cart. axis [-1,1,-1] 

 cryst.   s(46) = (     0          1          0      )
                  (     0          0          1      )
                  (    -1          0          0      )

 cart.    s(46) = (  0.0000000  0.0000000 -1.0000000 )
                  (  1.0000000  0.0000000  0.0000000 )
                  (  0.0000000  1.0000000  0.0000000 )


      isym = 47     inv. 120 deg rotation - cart. axis [1,-1,-1] 

 cryst.   s(47) = (     0          1          0      )
                  (     0          0         -1      )
                  (     1          0          0      )

 cart.    s(47) = (  0.0000000  0.0000000  1.0000000 )
                  (  1.0000000  0.0000000  0.0000000 )
                  (  0.0000000 -1.0000000  0.0000000 )


      isym = 48     inv. 120 deg rotation - cart. axis [-1,-1,1] 

 cryst.   s(48) = (     0         -1          0      )
                  (     0          0          1      )
                  (     1          0          0      )

 cart.    s(48) = (  0.0000000  0.0000000  1.0000000 )
                  ( -1.0000000  0.0000000  0.0000000 )
                  (  0.0000000  1.0000000  0.0000000 )


   Cartesian axes

     site n.     atom                  positions (alat units)
         1           W   tau(   1) = (   0.5000000   0.5000000   0.5000000  )

   Crystallographic axes

     site n.     atom                  positions (cryst. coord.)
         1           W   tau(   1) = (  0.5000000  0.5000000  0.5000000  )

     number of k points=     1
                       cart. coord. in units 2pi/alat
        k(    1) = (   0.0000000   0.0000000   0.0000000), wk =   1.0000000

                       cryst. coord.
        k(    1) = (   0.0000000   0.0000000   0.0000000), wk =   1.0000000

     Dense  grid:  5157432 G-vectors     FFT dimensions: ( 288, 288, 288)

     Dynamical RAM for                 wfc:       3.69 MB

     Dynamical RAM for     wfc (w. buffer):      11.07 MB

     Dynamical RAM for           str. fact:       2.46 MB

     Dynamical RAM for           local pot:       0.00 MB

     Dynamical RAM for          nlocal pot:       4.00 MB

     Dynamical RAM for                qrad:       4.33 MB

     Dynamical RAM for          rho,v,vnew:      48.93 MB

     Dynamical RAM for               rhoin:      16.31 MB

     Dynamical RAM for            rho*nmix:      78.70 MB

     Dynamical RAM for           G-vectors:      10.45 MB

     Dynamical RAM for          h,s,v(r/c):       0.00 MB

     Dynamical RAM for          <psi|beta>:       0.00 MB

     Dynamical RAM for                 psi:      14.76 MB

     Dynamical RAM for                hpsi:      14.76 MB

     Dynamical RAM for      wfcinit/wfcrot:       9.84 MB

     Estimated static dynamical RAM per process >     215.33 MB

     Estimated max dynamical RAM per process >     244.84 MB

     Estimated total dynamical RAM >       7.65 GB
     Generating pointlists ...
     new r_m :   0.4125 (alat units)  9.3541 (a.u.) for type    1

     Initial potential from superposition of free atoms

     starting charge   11.30112, renormalised to   14.00000

     negative rho (up, down):  5.607E-03 0.000E+00
     Starting wfcs are   16 randomized atomic wfcs

     total cpu time spent up to now is        7.1 secs

     Self-consistent Calculation

     iteration #  1     ecut=   350.00 Ry     beta= 0.70
     Davidson diagonalization with overlap
     ethr =  1.00E-02,  avg # of iterations = 10.0

     negative rho (up, down):  1.451E-07 1.038E-02

     total cpu time spent up to now is       19.1 secs

     total energy              =    -125.83615088 Ry
     Harris-Foulkes estimate   =    -137.00394006 Ry
     estimated scf accuracy    <      14.27583536 Ry

     total magnetization       =     4.00 Bohr mag/cell
     absolute magnetization    =     4.17 Bohr mag/cell

     iteration #  2     ecut=   350.00 Ry     beta= 0.70
     Davidson diagonalization with overlap
     ethr =  1.00E-02,  avg # of iterations =  7.5

     negative rho (up, down):  7.778E-08 1.016E-02

     total cpu time spent up to now is       29.1 secs

     total energy              =    -134.96785449 Ry
     Harris-Foulkes estimate   =    -139.78506306 Ry
     estimated scf accuracy    <       8.26432777 Ry

     total magnetization       =     4.00 Bohr mag/cell
     absolute magnetization    =     4.00 Bohr mag/cell

     iteration #  3     ecut=   350.00 Ry     beta= 0.70
     Davidson diagonalization with overlap
     ethr =  1.00E-02,  avg # of iterations =  3.0

     negative rho (up, down):  6.932E-08 1.018E-02

     total cpu time spent up to now is       35.7 secs

     total energy              =    -135.16294762 Ry
     Harris-Foulkes estimate   =    -135.40508721 Ry
     estimated scf accuracy    <       1.76975457 Ry

     total magnetization       =     4.00 Bohr mag/cell
     absolute magnetization    =     4.00 Bohr mag/cell

     iteration #  4     ecut=   350.00 Ry     beta= 0.70
     Davidson diagonalization with overlap
     ethr =  1.00E-02,  avg # of iterations =  1.0

     negative rho (up, down):  5.917E-07 1.128E-02

     total cpu time spent up to now is       41.3 secs

     total energy              =    -134.11707731 Ry
     Harris-Foulkes estimate   =    -135.16876409 Ry
     estimated scf accuracy    <       1.42303281 Ry

     total magnetization       =     4.00 Bohr mag/cell
     absolute magnetization    =     4.00 Bohr mag/cell

     iteration #  5     ecut=   350.00 Ry     beta= 0.70
     Davidson diagonalization with overlap
     ethr =  1.00E-02,  avg # of iterations =  3.5

     negative rho (up, down):  4.435E-07 1.079E-02

     total cpu time spent up to now is       48.0 secs

     total energy              =    -134.78069160 Ry
     Harris-Foulkes estimate   =    -134.85995739 Ry
     estimated scf accuracy    <       0.57400416 Ry

     total magnetization       =     4.00 Bohr mag/cell
     absolute magnetization    =     4.02 Bohr mag/cell

     iteration #  6     ecut=   350.00 Ry     beta= 0.70
     Davidson diagonalization with overlap
     ethr =  4.10E-03,  avg # of iterations =  1.0

     negative rho (up, down):  5.957E-07 6.627E-03

     total cpu time spent up to now is       53.7 secs

     total energy              =    -134.59176982 Ry
     Harris-Foulkes estimate   =    -134.79157745 Ry
     estimated scf accuracy    <       0.43407996 Ry

     total magnetization       =     4.00 Bohr mag/cell
     absolute magnetization    =     4.01 Bohr mag/cell

     iteration #  7     ecut=   350.00 Ry     beta= 0.70
     Davidson diagonalization with overlap
     ethr =  3.10E-03,  avg # of iterations =  3.0

     negative rho (up, down):  3.656E-07 4.840E-03

     total cpu time spent up to now is       60.2 secs

     total energy              =    -134.70997937 Ry
     Harris-Foulkes estimate   =    -134.69195022 Ry
     estimated scf accuracy    <       0.05514332 Ry

     total magnetization       =     4.00 Bohr mag/cell
     absolute magnetization    =     4.03 Bohr mag/cell

     iteration #  8     ecut=   350.00 Ry     beta= 0.70
     Davidson diagonalization with overlap
     ethr =  3.94E-04,  avg # of iterations =  4.0

     negative rho (up, down):  2.629E-07 1.623E-03

     total cpu time spent up to now is       68.6 secs

     total energy              =    -134.67483600 Ry
     Harris-Foulkes estimate   =    -134.77860140 Ry
     estimated scf accuracy    <       0.29166268 Ry

     total magnetization       =     4.00 Bohr mag/cell
     absolute magnetization    =     4.02 Bohr mag/cell

     iteration #  9     ecut=   350.00 Ry     beta= 0.70
     Davidson diagonalization with overlap
     ethr =  3.94E-04,  avg # of iterations =  3.0

     negative rho (up, down):  3.750E-07 2.654E-03

     total cpu time spent up to now is       75.3 secs

     total energy              =    -134.71443736 Ry
     Harris-Foulkes estimate   =    -134.69583213 Ry
     estimated scf accuracy    <       0.04640783 Ry

     total magnetization       =     4.00 Bohr mag/cell
     absolute magnetization    =     4.04 Bohr mag/cell

     iteration # 10     ecut=   350.00 Ry     beta= 0.70
     Davidson diagonalization with overlap
     ethr =  3.31E-04,  avg # of iterations =  1.0

     negative rho (up, down):  4.492E-07 2.174E-02

     total cpu time spent up to now is       81.0 secs

     total energy              =    -134.69509480 Ry
     Harris-Foulkes estimate   =    -134.71657733 Ry
     estimated scf accuracy    <       0.09219830 Ry

     total magnetization       =     4.00 Bohr mag/cell
     absolute magnetization    =     4.03 Bohr mag/cell

     iteration # 11     ecut=   350.00 Ry     beta= 0.70
     Davidson diagonalization with overlap
     ethr =  3.31E-04,  avg # of iterations =  1.0

     negative rho (up, down):  1.674E-07 4.198E-03

     total cpu time spent up to now is       86.7 secs

     total energy              =    -134.67810436 Ry
     Harris-Foulkes estimate   =    -134.69805438 Ry
     estimated scf accuracy    <       0.04867607 Ry

     total magnetization       =     4.00 Bohr mag/cell
     absolute magnetization    =     4.09 Bohr mag/cell

     iteration # 12     ecut=   350.00 Ry     beta= 0.70
     Davidson diagonalization with overlap
     ethr =  3.31E-04,  avg # of iterations =  2.5

     negative rho (up, down):  6.914E-08 1.711E-03

     total cpu time spent up to now is       93.1 secs

     total energy              =    -134.70488984 Ry
     Harris-Foulkes estimate   =    -134.69193156 Ry
     estimated scf accuracy    <       0.00262750 Ry

     total magnetization       =     4.00 Bohr mag/cell
     absolute magnetization    =     4.23 Bohr mag/cell

     iteration # 13     ecut=   350.00 Ry     beta= 0.70
     Davidson diagonalization with overlap
     ethr =  1.88E-05,  avg # of iterations = 12.0

     negative rho (up, down):  3.738E-08 4.912E-03

     total cpu time spent up to now is      103.5 secs

     total energy              =    -134.70803640 Ry
     Harris-Foulkes estimate   =    -134.72087872 Ry
     estimated scf accuracy    <       0.08957621 Ry

     total magnetization       =     4.00 Bohr mag/cell
     absolute magnetization    =     4.42 Bohr mag/cell

     iteration # 14     ecut=   350.00 Ry     beta= 0.70
     Davidson diagonalization with overlap
     ethr =  1.88E-05,  avg # of iterations =  2.5

     negative rho (up, down):  3.750E-04 2.451E-01

     total cpu time spent up to now is      110.2 secs

     total energy              =    -134.70380323 Ry
     Harris-Foulkes estimate   =    -134.70971914 Ry
     estimated scf accuracy    <       0.04365512 Ry

     total magnetization       =     4.00 Bohr mag/cell
     absolute magnetization    =     4.41 Bohr mag/cell

     iteration # 15     ecut=   350.00 Ry     beta= 0.70
     Davidson diagonalization with overlap
     ethr =  1.88E-05,  avg # of iterations =  2.5

     negative rho (up, down):  4.841E-04 2.528E-01

     total cpu time spent up to now is      116.3 secs

     total energy              =    -134.70128751 Ry
     Harris-Foulkes estimate   =    -134.70475522 Ry
     estimated scf accuracy    <       0.03926058 Ry

     total magnetization       =     4.00 Bohr mag/cell
     absolute magnetization    =     4.34 Bohr mag/cell

     iteration # 16     ecut=   350.00 Ry     beta= 0.70
     Davidson diagonalization with overlap
     ethr =  1.88E-05,  avg # of iterations =  1.0

     negative rho (up, down):  3.085E-04 2.399E-01

     total cpu time spent up to now is      122.0 secs

     total energy              =    -134.70646696 Ry
     Harris-Foulkes estimate   =    -134.70172021 Ry
     estimated scf accuracy    <       0.03867170 Ry

     total magnetization       =     4.00 Bohr mag/cell
     absolute magnetization    =     4.29 Bohr mag/cell

     iteration # 17     ecut=   350.00 Ry     beta= 0.70
     Davidson diagonalization with overlap
     ethr =  1.88E-05,  avg # of iterations =  2.0

     negative rho (up, down):  3.111E-08 6.238E-03

     total cpu time spent up to now is      128.2 secs

     total energy              =    -134.70583318 Ry
     Harris-Foulkes estimate   =    -134.70703141 Ry
     estimated scf accuracy    <       0.06100256 Ry

     total magnetization       =     4.00 Bohr mag/cell
     absolute magnetization    =     4.30 Bohr mag/cell

     iteration # 18     ecut=   350.00 Ry     beta= 0.70
     Davidson diagonalization with overlap
     ethr =  1.88E-05,  avg # of iterations =  2.5

     negative rho (up, down):  2.730E-04 2.536E-01

     total cpu time spent up to now is      134.6 secs

     total energy              =    -134.68809867 Ry
     Harris-Foulkes estimate   =    -134.70924623 Ry
     estimated scf accuracy    <       0.04282086 Ry

     total magnetization       =     4.00 Bohr mag/cell
     absolute magnetization    =     4.41 Bohr mag/cell

     iteration # 19     ecut=   350.00 Ry     beta= 0.70
     Davidson diagonalization with overlap
     ethr =  1.88E-05,  avg # of iterations = 10.5

     negative rho (up, down):  5.129E-05 1.935E-01

     total cpu time spent up to now is      144.2 secs

     total energy              =    -134.69799983 Ry
     Harris-Foulkes estimate   =    -134.69789529 Ry
     estimated scf accuracy    <       0.00146128 Ry

     total magnetization       =     4.00 Bohr mag/cell
     absolute magnetization    =     4.37 Bohr mag/cell

     iteration # 20     ecut=   350.00 Ry     beta= 0.70
     Davidson diagonalization with overlap
     ethr =  1.04E-05,  avg # of iterations =  1.0

     negative rho (up, down):  2.523E-12 1.726E-04

     total cpu time spent up to now is      149.8 secs

     total energy              =    -134.69755204 Ry
     Harris-Foulkes estimate   =    -134.69803430 Ry
     estimated scf accuracy    <       0.00125409 Ry

     total magnetization       =     4.00 Bohr mag/cell
     absolute magnetization    =     4.37 Bohr mag/cell

     iteration # 21     ecut=   350.00 Ry     beta= 0.70
     Davidson diagonalization with overlap
     ethr =  8.96E-06,  avg # of iterations =  2.5

     negative rho (up, down):  0.000E+00 3.265E-05

     total cpu time spent up to now is      156.2 secs

     total energy              =    -134.69817564 Ry
     Harris-Foulkes estimate   =    -134.69822509 Ry
     estimated scf accuracy    <       0.00022797 Ry

     total magnetization       =     4.00 Bohr mag/cell
     absolute magnetization    =     4.35 Bohr mag/cell

     iteration # 22     ecut=   350.00 Ry     beta= 0.70
     Davidson diagonalization with overlap
     ethr =  1.63E-06,  avg # of iterations =  3.5

     negative rho (up, down):  5.272E-06 1.745E-01

     total cpu time spent up to now is      162.7 secs

     total energy              =    -134.69818555 Ry
     Harris-Foulkes estimate   =    -134.69821004 Ry
     estimated scf accuracy    <       0.00004818 Ry

     total magnetization       =     4.00 Bohr mag/cell
     absolute magnetization    =     4.36 Bohr mag/cell

     iteration # 23     ecut=   350.00 Ry     beta= 0.70
     Davidson diagonalization with overlap
     ethr =  3.44E-07,  avg # of iterations =  2.5

     negative rho (up, down):  2.186E-08 4.352E-02

     total cpu time spent up to now is      169.0 secs

     total energy              =    -134.69820793 Ry
     Harris-Foulkes estimate   =    -134.69821110 Ry
     estimated scf accuracy    <       0.00000639 Ry

     total magnetization       =     4.00 Bohr mag/cell
     absolute magnetization    =     4.36 Bohr mag/cell

     iteration # 24     ecut=   350.00 Ry     beta= 0.70
     Davidson diagonalization with overlap
     ethr =  4.57E-08,  avg # of iterations =  3.5
 
     Magnetic moment per site:
     atom:    1    charge:   13.9994    magn:    4.0001    constr:    0.0000

     total cpu time spent up to now is      175.0 secs

     End of self-consistent calculation

 ------ SPIN UP ------------


          k = 0.0000 0.0000 0.0000 (644880 PWs)   bands (ev):

   -77.8100 -42.8955 -42.8699 -42.8689  -5.7612  -4.7870  -4.7868  -4.7710
    -4.7706  -3.9170  -1.2469  -1.2468

     occupation numbers 
     1.0000   1.0000   1.0000   1.0000   1.0000   1.0000   1.0000   1.0000
     1.0000   0.0000   0.0000   0.0000

 ------ SPIN DOWN ----------


          k = 0.0000 0.0000 0.0000 (644880 PWs)   bands (ev):

   -76.2646 -41.3535 -40.5108 -40.5107  -4.4823  -2.8856  -2.2421  -2.2417
    -1.7608  -1.7597  -0.8687  -0.2203

     occupation numbers 
     1.0000   1.0000   1.0000   1.0000   1.0000   0.0000   0.0000   0.0000
     0.0000   0.0000   0.0000   0.0000

     highest occupied, lowest unoccupied level (ev):    -4.4823   -3.9170

!    total energy              =    -134.69820979 Ry
     Harris-Foulkes estimate   =    -134.69820992 Ry
     estimated scf accuracy    <       0.00000020 Ry

     The total energy is the sum of the following terms:

     one-electron contribution =    -177.77587487 Ry
     hartree contribution      =      82.76161755 Ry
     xc contribution           =     -15.16054419 Ry
     ewald contribution        =     -24.52340829 Ry

     total magnetization       =     4.00 Bohr mag/cell
     absolute magnetization    =     4.36 Bohr mag/cell

     convergence has been achieved in  24 iterations

     Writing output data file pwscf.save/
 
     init_run     :      6.56s CPU      6.90s WALL (       1 calls)
     electrons    :    165.79s CPU    168.56s WALL (       1 calls)

     Called by init_run:
     wfcinit      :      1.49s CPU      1.54s WALL (       1 calls)
     wfcinit:atom :      0.02s CPU      0.03s WALL (       2 calls)
     wfcinit:wfcr :      1.42s CPU      1.46s WALL (       2 calls)
     potinit      :      1.79s CPU      1.92s WALL (       1 calls)
     hinit0       :      0.17s CPU      0.29s WALL (       1 calls)

     Called by electrons:
     c_bands      :     86.09s CPU     87.14s WALL (      24 calls)
     sum_band     :     24.72s CPU     24.81s WALL (      24 calls)
     v_of_rho     :     41.75s CPU     42.89s WALL (      25 calls)
     v_h          :      2.99s CPU      3.02s WALL (      25 calls)
     v_xc         :     38.76s CPU     39.87s WALL (      25 calls)
     mix_rho      :     13.29s CPU     13.46s WALL (      24 calls)

     Called by c_bands:
     init_us_2    :      0.76s CPU      0.77s WALL (      98 calls)
     regterg      :     84.75s CPU     85.79s WALL (      48 calls)

     Called by sum_band:

     Called by *egterg:
     h_psi        :     78.61s CPU     78.85s WALL (     223 calls)
     g_psi        :      0.25s CPU      0.26s WALL (     173 calls)
     rdiaghg      :      0.23s CPU      0.24s WALL (     221 calls)
     regterg:over :      1.71s CPU      1.71s WALL (     173 calls)
     regterg:upda :      3.08s CPU      3.12s WALL (     173 calls)
     regterg:last :      1.10s CPU      1.10s WALL (      60 calls)
     rdiaghg:chol :      0.04s CPU      0.04s WALL (     221 calls)
     rdiaghg:inve :      0.01s CPU      0.01s WALL (     221 calls)
     rdiaghg:para :      0.03s CPU      0.03s WALL (     442 calls)

     Called by h_psi:
     h_psi:pot    :     78.11s CPU     78.35s WALL (     223 calls)
     h_psi:calbec :      0.48s CPU      0.49s WALL (     223 calls)
     vloc_psi     :     76.99s CPU     77.22s WALL (     223 calls)
     add_vuspsi   :      0.64s CPU      0.64s WALL (     223 calls)

     General routines
     calbec       :      0.48s CPU      0.49s WALL (     223 calls)
     fft          :     33.82s CPU     34.17s WALL (     371 calls)
     ffts         :      3.54s CPU      3.55s WALL (      48 calls)
     fftw         :     72.60s CPU     72.83s WALL (    2140 calls)
 
     Parallel routines
     fft_scatt_xy :     20.86s CPU     20.90s WALL (    2559 calls)
     fft_scatt_yz :     35.98s CPU     36.30s WALL (    2559 calls)
 
     PWSCF        :   2m52.75s CPU   2m56.87s WALL

 
   This run was terminated on:  19:52:59  17Jan2022            

=------------------------------------------------------------------------------=
   JOB DONE.
=------------------------------------------------------------------------------=
