
 Primary working directories    : /global/cscratch1/sd/bkincaid
 Secondary working directories  : /global/cscratch1/sd/bkincaid
 Wavefunction directory         : /global/homes/b/bkincaid/wfu/
 Main file repository           : /global/cscratch1/sd/bkincaid/

 SHA1      : 19cd028119e0e09f93f0674bd8af7968d9b3eff6
 NAME      : 2015.1.36
 ARCHNAME  : linux/x86_64
 FC        : /opt/cray/pe/craype/2.5.14/bin/ftn
 BLASLIB   : -L/opt/intel/compilers_and_libraries_2018.1.163/linux/mkl/lib/intel64 -Wl,-_start-group -lmkl_intel_ilp64 -lmkl_intel_thread -lmkl_core -Wl,-_end-group -liomp5
 id        : lbl

 Nodes     nprocs
 nid02028    11
 Number of processes for MPI-2 version of Molpro:   nprocs(total)=   12   nprocs(compute)=   11   nprocs(helper)=    1

 Using customized tuning parameters: mindgm=7; mindgv=16; mindgc=1; mindgr=1; noblas=0; minvec=7
 default implementation of scratch files=sf  

 ***,Calculation for IrO groundstate
 memory,1024,m
 gthresh,twoint=1.0E-15
 gthresh,throvl=1.0E-15
 
 set,dkroll=1,dkho=10,dkhp=4
 
 basis={
 Including file /global/u1/b/bkincaid/molpro/Ir/molecules/tz/IrO/ae/2.187/tz.basis
 Including file /global/u1/b/bkincaid/molpro/Ir/molecules/tz/IrO/ae/2.187/O-aug-cc-CVTZ.basis
 }
 
 ne = 85
 
 A1=21
 B1=10
 B2=10
 A2=4
 
 do i=1,1
 z(i) = 2.187 - 0.1*(i-1)
 geometry={
 2
 IrO
 Ir 0.0 0.0 0.0
 O 0.0 0.0 z(i)
 }
 {rks,pbe0
 wf,nele=ne,spin=5,sym=4
         occ,A1,B1,B2,A2
         closed,A1-3,B1-1,B2-1,A2
 }
 pbe(i)=energy
 {rhf
 wf,nelec=ne,spin=5,sym=4
         occ,A1,B1,B2,A2
         closed,A1-3,B1-1,B2-1,A2
 }
 scf(i)=energy
 _CC_NORM_MAX=2.0
 {rccsd(t);maxit,100;core}
 ccsd(i)=energy
 enddo
 
 table,z,pbe,scf,ccsd
 save
 type,csv
 

 Variables initialized (889), CPU time= 0.00 sec
 Commands  initialized (702), CPU time= 0.01 sec, 572 directives.
 Default parameters read. Elapsed time= 0.29 sec

 Checking input...
 Passed
1


                                         ***  PROGRAM SYSTEM MOLPRO  ***
                                       Copyright, TTI GmbH Stuttgart, 2015
                                    Version 2015.1 linked Dec 29 2018 15:55:43


 **********************************************************************************************************************************
 LABEL *   Calculation for IrO groundstate                                               
  64 bit mpp version                                                                     DATE: 15-Feb-21          TIME: 17:54:18  
 **********************************************************************************************************************************

 SHA1:             19cd028119e0e09f93f0674bd8af7968d9b3eff6
 **********************************************************************************************************************************

 THRESHOLDS:

 ZERO    =  1.00D-12  ONEINT  =  1.00D-12  TWOINT  =  1.00D-15  PREFAC  =  1.00D-14  LOCALI  =  1.00D-09  EORDER  =  1.00D-04
 ENERGY  =  0.00D+00  ETEST   =  0.00D+00  EDENS   =  0.00D+00  THRDEDEF=  1.00D-06  GRADIENT=  1.00D-02  STEP    =  1.00D-03
 ORBITAL =  1.00D-05  CIVEC   =  1.00D-05  COEFF   =  1.00D-04  PRINTCI =  5.00D-02  PUNCHCI =  9.90D+01  OPTGRAD =  3.00D-04
 OPTENERG=  1.00D-06  OPTSTEP =  3.00D-04  THRGRAD =  1.00D-10  COMPRESS=  1.00D-11  VARMIN  =  1.00D-07  VARMAX  =  1.00D-03
 THRDOUB =  0.00D+00  THRDIV  =  1.00D-05  THRRED  =  1.00D-07  THRPSP  =  1.00D+00  THRDC   =  1.00D-10  THRCS   =  1.00D-10
 THRNRM  =  1.00D-08  THREQ   =  0.00D+00  THRDE   =  1.00D+00  THRREF  =  1.00D-05  SPARFAC =  1.00D+00  THRDLP  =  1.00D-07
 THRDIA  =  1.00D-10  THRDLS  =  1.00D-07  THRGPS  =  0.00D+00  THRKEX  =  0.00D+00  THRDIS  =  2.00D-01  THRVAR  =  1.00D-10
 THRLOC  =  1.00D-06  THRGAP  =  1.00D-06  THRLOCT = -1.00D+00  THRGAPT = -1.00D+00  THRORB  =  1.00D-06  THRMLTP =  0.00D+00
 THRCPQCI=  1.00D-10  KEXTA   =  0.00D+00  THRCOARS=  0.00D+00  SYMTOL  =  1.00D-06  GRADTOL =  1.00D-06  THROVL  =  1.00D-08
 THRORTH =  1.00D-08  GRID    =  1.00D-06  GRIDMAX =  1.00D-03  DTMAX   =  0.00D+00  THROCCDE=  1.00D-01  THROCCDE=  1.00D-01



 THRESHOLDS:

 ZERO    =  1.00D-12  ONEINT  =  1.00D-12  TWOINT  =  1.00D-15  PREFAC  =  1.00D-14  LOCALI  =  1.00D-09  EORDER  =  1.00D-04
 ENERGY  =  0.00D+00  ETEST   =  0.00D+00  EDENS   =  0.00D+00  THRDEDEF=  1.00D-06  GRADIENT=  1.00D-02  STEP    =  1.00D-03
 ORBITAL =  1.00D-05  CIVEC   =  1.00D-05  COEFF   =  1.00D-04  PRINTCI =  5.00D-02  PUNCHCI =  9.90D+01  OPTGRAD =  3.00D-04
 OPTENERG=  1.00D-06  OPTSTEP =  3.00D-04  THRGRAD =  1.00D-10  COMPRESS=  1.00D-11  VARMIN  =  1.00D-07  VARMAX  =  1.00D-03
 THRDOUB =  0.00D+00  THRDIV  =  1.00D-05  THRRED  =  1.00D-07  THRPSP  =  1.00D+00  THRDC   =  1.00D-10  THRCS   =  1.00D-10
 THRNRM  =  1.00D-08  THREQ   =  0.00D+00  THRDE   =  1.00D+00  THRREF  =  1.00D-05  SPARFAC =  1.00D+00  THRDLP  =  1.00D-07
 THRDIA  =  1.00D-10  THRDLS  =  1.00D-07  THRGPS  =  0.00D+00  THRKEX  =  0.00D+00  THRDIS  =  2.00D-01  THRVAR  =  1.00D-10
 THRLOC  =  1.00D-06  THRGAP  =  1.00D-06  THRLOCT = -1.00D+00  THRGAPT = -1.00D+00  THRORB  =  1.00D-06  THRMLTP =  0.00D+00
 THRCPQCI=  1.00D-10  KEXTA   =  0.00D+00  THRCOARS=  0.00D+00  SYMTOL  =  1.00D-06  GRADTOL =  1.00D-06  THROVL  =  1.00D-15
 THRORTH =  1.00D-08  GRID    =  1.00D-06  GRIDMAX =  1.00D-03  DTMAX   =  0.00D+00  THROCCDE=  1.00D-01  THROCCDE=  1.00D-01


 SETTING DKROLL         =         1.00000000                                  
 SETTING DKHO           =        10.00000000                                  
 SETTING DKHP           =         4.00000000                                  

 Variable memory set to 1024000000 words,  buffer space   230000 words

 SETTING BASIS          =    USERDEF
 SETTING NE             =        85.00000000                                  
 SETTING A1             =        21.00000000                                  
 SETTING B1             =        10.00000000                                  
 SETTING B2             =        10.00000000                                  
 SETTING A2             =         4.00000000                                  

 DO I                   =         1.00000000   
 SETTING Z(1)           =         2.18700000                                  

Geometry recognized as XYZ



 Recomputing integrals since basis changed


 Using spherical harmonics



 PROGRAM * SEWARD (Integral evaluation for generally contracted gaussian basis sets)     Author: Roland Lindh, 1990

 Geometry written to block  1 of record 700


 Point group  C2v 



 ATOMIC COORDINATES

 NR  ATOM    CHARGE       X              Y              Z

   1  IR     77.00    0.000000000    0.000000000    0.000000000
   2  O       8.00    0.000000000    0.000000000    4.132831034

 Bond lengths in Bohr (Angstrom)

 1-2  4.132831034
     ( 2.187000000)

 NUCLEAR CHARGE:                   85
 NUMBER OF PRIMITIVE AOS:         545
 NUMBER OF SYMMETRY AOS:          450
 NUMBER OF CONTRACTIONS:          450   ( 187A1  + 107B1  + 107B2  +  49A2  )
 NUMBER OF CORE ORBITALS:          35   (  16A1  +   8B1  +   8B2  +   3A2  )
 NUMBER OF VALENCE ORBITALS:       10   (   5A1  +   2B1  +   2B2  +   1A2  )


 NUCLEAR REPULSION ENERGY  149.05037125

 One-electron integrals computed with SEWARD

 10nd-order Douglas-Kroll-Hess method activated. McWeeny DKH parametrization is used.

 Computing Douglas-Kroll / X2C integrals

 AO integral compression algorithm  1   Integral accuracy      1.0D-15

     4313.842 MB (compressed) written to integral file ( 35.3%)

     Node minimum: 179.044 MB, node maximum: 838.337 MB


 NUMBER OF SORTED TWO-ELECTRON INTEGRALS:  119965188.     BUFFER LENGTH:  32768
 NUMBER OF SEGMENTS:   4  SEGMENT LENGTH:   31977891      RECORD LENGTH: 524288

 Memory used in sort:      32.53 MW

 SORT1 READ  1526668903. AND WROTE    42683243. INTEGRALS IN    124 RECORDS. CPU TIME:    41.08 SEC, REAL TIME:    49.73 SEC
 SORT2 READ   465816188. AND WROTE  1319982785. INTEGRALS IN   9625 RECORDS. CPU TIME:     3.17 SEC, REAL TIME:     9.29 SEC

 Node minimum:   119894125.  Node maximum:   120166100. integrals

 OPERATOR DM      FOR CENTER  0  COORDINATES:    0.000000    0.000000    0.000000

 EXTRA SYMMETRY OF AOS IN SYMMETRY 1:   1 1 1 1 1 1 1 1 1 1   1 1 1 1 1 1 1 1 1 1   1 1 1 1 1 1 1 1 1 1   1 1 1 1 1 1 1 1 1 1
                                        1 1 1 1 1 1 1 1 1 1   1 1 1 1 1 1 1 1 1 1   1 1 1 1 1 1 1 1 1 1   1 1 1 1 1 1 1 1 1 1
                                        1 1 1 1 1 1 1 1 1 1   1 1 1 1 1 1 1 1 1 1   1 1 1 1 1 1 1 1 1 1   1 1 1 1 1 1 1 1 1 1
                                        1 1 1 1 1 1 1 1 1 1   1 1 1 1 1 1 1 1 1 1   1 1 1 1 2 1 1 2 1 1   2 1 1 1 1 1 1 1 1 1
                                        1 1 1 1 1 1 1 1 1 1   1 1 1 1 1 1 1 1 1 1   1 1 1 1 1 1 1
 EXTRA SYMMETRY OF AOS IN SYMMETRY 2:   1 1 1 1 1 1 1 1 1 1   1 1 1 1 1 1 1 1 1 1   1 1 1 1 1 1 1 1 1 1   1 1 1 1 1 1 1 1 1 1
                                        1 1 1 1 1 1 1 1 1 1   1 1 1 1 1 2 1 2 1 2   1 2 1 2 1 2 1 2 1 2   1 2 1 2 1 2 1 2 1 2
                                        1 2 1 2 1 2 1 2 1 2   1 1 1 1 1 1 1 1 1 1   1 1 1 1 2 1 2
 EXTRA SYMMETRY OF AOS IN SYMMETRY 3:   1 1 1 1 1 1 1 1 1 1   1 1 1 1 1 1 1 1 1 1   1 1 1 1 1 1 1 1 1 1   1 1 1 1 1 1 1 1 1 1
                                        1 1 1 1 1 1 1 1 1 1   1 1 1 1 1 2 1 2 1 2   1 2 1 2 1 2 1 2 1 2   1 2 1 2 1 2 1 2 1 2
                                        1 2 1 2 1 2 1 2 1 2   1 1 1 1 1 1 1 1 1 1   1 1 1 1 2 1 2
 EXTRA SYMMETRY OF AOS IN SYMMETRY 4:   1 1 1 1 1 1 1 1 1 1   1 1 1 1 1 1 1 1 1 1   1 1 1 1 1 1 1 1 1 1   1 1 1 1 1 1 1 1 2 1
                                        2 1 2 1 1 1 1 1 1

 Eigenvalues of metric

         1 0.167E-06 0.359E-06 0.790E-06 0.805E-06 0.918E-06 0.146E-05 0.488E-05 0.509E-05
         2 0.172E-06 0.801E-06 0.957E-06 0.513E-05 0.116E-04 0.264E-04 0.528E-04 0.547E-04
         3 0.172E-06 0.801E-06 0.957E-06 0.513E-05 0.116E-04 0.264E-04 0.528E-04 0.547E-04
         4 0.805E-06 0.268E-04 0.543E-04 0.166E-03 0.628E-03 0.982E-03 0.214E-02 0.556E-02


 **********************************************************************************************************************************
 DATASETS  * FILE   NREC   LENGTH (MB)   RECORD NAMES
              1      22       24.01       500      610      700      900      950      970     1000      129      960     1700   
                                          VAR    BASINP    GEOM    SYMINP    ZMAT    AOBASIS   BASIS     P2S    ABASIS    OPER   
                                         1101     1401     1411     1412     1650     1100     1400     1410     1200     1210   
                                          SR      EKINR    POTR     PVPR    MOLCAS      S      EKIN      POT      H0       H01  
                                         1080     1600   
                                         AOSYM     SMH  

 PROGRAMS   *        TOTAL       INT
 CPU TIMES  *       204.55    204.10
 REAL TIME  *       221.68 SEC
 DISK USED  *        10.10 GB      
 GA USED    *         0.00 MB       (max)       0.00 MB       (current)
 **********************************************************************************************************************************

 Density functional group PBE0=PBEX+PBEC
 Functional: PBEX(Automatically generated (new) PBEX)                          Gradient terms: 1
 Functional: PBEC(Automatically generated (new) PBEC)                          Gradient terms: 1
 Use grid at  1800.2
 

 Exact exchange will be calculated, factor:  0.2500

 Functional: PBEX                      Factor:  0.7500
 Functional: PBEC                      Factor:  1.0000
 
 Generated new metagrid on record  1800.2 with target accuracy 1.0D-06 and 5243 points in CPU time    0.1
 Computed new grid on record 1800.1 in CPU time    0.1
  358428 words reserved for DFT integration

 PROGRAM * RKS-SCF (Restricted open shell Kohn-Sham)     Authors: W. Meyer, H.-J. Werner, P.J. Knowles, 1993

 NUMBER OF ELECTRONS:      45+   40-    SPACE SYMMETRY=4    SPIN SYMMETRY: Sextet  
 CONVERGENCE THRESHOLDS:    1.00E-05 (Density)    1.70E-06 (Energy)
 MAX. NUMBER OF ITERATIONS:       60
 INTERPOLATION TYPE:            DIIS
 INTERPOLATION STEPS:              2 (START)      1 (STEP)
 LEVEL SHIFTS:                 -0.60 (CLOSED) -0.30 (OPEN) 

 Number of closed-shell orbitals:   40 (  18   9   9   4 )
 Number of open-shell orbitals:      5 (   3   1   1   0 )


 Use fine grid record 1800.2 for energy threshold  1.0D-06
 Orbital guess generated from atomic densities. Full valence occupancy:   21  10  10   4

 Molecular orbital dump at record        2100.2

 ITERATION    DDIFF          GRAD             ENERGY        2-EL.EN.            DIPOLE MOMENTS         DIIS   ORB.
    1      0.000D+00      0.000D+00    -17893.18658266  13406.726036    0.00000    0.00000   -7.18508    0    start
    2      0.000D+00      0.328D-01    -17883.40234290  15002.627795    0.00000    0.00000   20.94149    1    diag,B
    3      0.128D+01      0.861D-01    -17903.72454795  14508.787664    0.00000    0.00000    4.60541    2    diag,B
    4      0.182D+00      0.333D-01    -17905.55762521  14377.063540    0.00000    0.00000    5.12998    3    diag,B
    5      0.993D-01      0.199D-01    -17907.22863128  14202.322555    0.00000    0.00000   -1.75337    4    diag,B
    6      0.150D-01      0.800D-02    -17907.38035890  14186.728400    0.00000    0.00000    0.48078    5    diag,B
    7      0.510D-02      0.408D-02    -17907.48252120  14144.470726    0.00000    0.00000   -0.81005    6    fixocc
    8      0.224D-02      0.738D-03    -17907.49191518  14133.381904    0.00000    0.00000   -0.96371    7    diag,B
    9      0.141D-02      0.388D-03    -17907.49429509  14131.271121    0.00000    0.00000   -1.07053    8    diag,B
   10      0.583D-03      0.389D-03    -17907.49765135  14132.710056    0.00000    0.00000   -0.99626    9    orth
   11      0.462D-03      0.196D-03    -17907.50062447  14133.050020    0.00000    0.00000   -0.95789    9    diag,B
   12      0.360D-03      0.124D-03    -17907.50303540  14134.260773    0.00000    0.00000   -0.89427    9    diag,B
   13      0.303D-03      0.126D-03    -17907.50483079  14134.154043    0.00000    0.00000   -0.87308    9    diag,B
   14      0.267D-03      0.736D-04    -17907.50605565  14135.575939    0.00000    0.00000   -0.74294    9    diag,B
   15      0.373D-03      0.116D-03    -17907.50611403  14134.810492    0.00000    0.00000   -0.79524    9    diag,B
   16      0.961D-04      0.249D-04    -17907.50617813  14134.926469    0.00000    0.00000   -0.77212    9    diag,B
   17      0.866D-04      0.143D-04    -17907.50619691  14135.211724    0.00000    0.00000   -0.74444    9    diag,B
   18      0.714D-04      0.180D-04    -17907.50620161  14135.104472    0.00000    0.00000   -0.74965    9    diag,B
   19      0.258D-04      0.253D-05    -17907.50620207  14135.139870    0.00000    0.00000   -0.74607    9    diag,B
   20      0.130D-04      0.180D-05    -17907.50620214  14135.111890    0.00000    0.00000   -0.74830    9    orth
   21      0.650D-05      0.200D-05    -17907.50620205  14135.167271    0.00000    0.00000   -0.74527    0    orth

 Final alpha occupancy:  21  10  10   4
 Final beta  occupancy:  18   9   9   4

 !RKS STATE 1.4 Energy               -17907.5062020486    
 Nuclear energy                       149.05037125
 One-electron energy               -24851.42828544
 Two-electron energy                 7067.58363528
 Density functional                  -272.71192315     PBEX=-357.10340269 PBEC=  -4.88437113
 Virial quotient                       -0.67958713
 !RKS STATE 1.4 Dipole moment           0.00000000     0.00000000    -0.74527224
 Dipole moment /Debye                   0.00000000     0.00000000    -1.89416902

 Orbital energies:

         1.1          2.1          3.1          4.1          5.1          6.1          7.1          8.1          9.1         10.1
  -2794.624400  -490.171923  -427.347025  -115.272612   -96.735908   -75.566144   -75.564540   -24.914400   -19.278785   -18.778384

        11.1         12.1         13.1         14.1         15.1         16.1         17.1         18.1         19.1         20.1
    -11.021665   -11.019683    -3.751319    -2.470176    -2.468557    -2.132314    -0.926888    -0.383855    -0.369842    -0.333927

        21.1         22.1         23.1
     -0.238378     0.009337     0.009861

         1.2          2.2          3.2          4.2          5.2          6.2          7.2          8.2          9.2         10.2
   -427.346233   -96.733721   -75.565538   -18.774985   -11.019582    -2.469691    -2.465740    -2.133651    -0.336914    -0.341503

        11.2         12.2
     -0.036461     0.092541

         1.3          2.3          3.3          4.3          5.3          6.3          7.3          8.3          9.3         10.3
   -427.346233   -96.733721   -75.565538   -18.774985   -11.019582    -2.469691    -2.465740    -2.133651    -0.336914    -0.341503

        11.3         12.3
     -0.036461     0.092541

         1.4          2.4          3.4          4.4          5.4          6.4
    -75.564155   -11.016485    -2.464620    -0.315329     0.125804     0.423115

 HOMO     21.1    -0.238378 =      -6.4866eV
 LUMO     11.2    -0.036461 =      -0.9922eV
 LUMO-HOMO         0.201917 =       5.4944eV


 **********************************************************************************************************************************
 DATASETS  * FILE   NREC   LENGTH (MB)   RECORD NAMES
              1      23       24.01       500      610      700      900      950      970     1000      129      960     1700   
                                          VAR    BASINP    GEOM    SYMINP    ZMAT    AOBASIS   BASIS     P2S    ABASIS    OPER   
                                         1101     1401     1411     1412     1650     1100     1400     1410     1200     1210   
                                          SR      EKINR    POTR     PVPR    MOLCAS      S      EKIN      POT      H0       H01  
                                         1080     1600     1800   
                                         AOSYM     SMH     GRID   

              2       5        4.53       700     1000      520     1800     2100   
                                         GEOM     BASIS   MCVARS    GRID      RKS  

 PROGRAMS   *        TOTAL       RKS       INT
 CPU TIMES  *       222.67     18.12    204.10
 REAL TIME  *       240.90 SEC
 DISK USED  *        10.51 GB      
 SF USED    *         0.24 MB      
 GA USED    *         0.23 MB       (max)       0.23 MB       (current)
 **********************************************************************************************************************************
 SETTING PBE(1)         =    -17907.50620205  AU                              


 PROGRAM * RHF-SCF (OPEN SHELL)       Authors: W. Meyer, H.-J. Werner


 NUMBER OF ELECTRONS:      45+   40-    SPACE SYMMETRY=4    SPIN SYMMETRY: Sextet  
 CONVERGENCE THRESHOLDS:    1.00E-05 (Density)    1.70E-07 (Energy)
 MAX. NUMBER OF ITERATIONS:       60
 INTERPOLATION TYPE:            DIIS
 INTERPOLATION STEPS:              2 (START)      1 (STEP)
 LEVEL SHIFTS:                 -0.60 (CLOSED) -0.30 (OPEN) 

 Number of closed-shell orbitals:   40 (  18   9   9   4 )
 Number of open-shell orbitals:      5 (   3   1   1   0 )


 Molecular orbitals read from record     2100.2  Type=RKS/CANONICAL (state 1.4)

 Molecular orbital dump at record        2101.2

 ITERATION    DDIFF          GRAD             ENERGY        2-EL.EN.            DIPOLE MOMENTS         DIIS   ORB.
    1      0.000D+00      0.000D+00    -17901.69354422  13601.368740    0.00000    0.00000   -0.74527    0    start
    2      0.000D+00      0.114D+00    -17901.74393013  13611.000572    0.00000    0.00000   -0.61447    1    diag,B
    3      0.265D-02      0.140D-02    -17901.75350847  13602.614260    0.00000    0.00000   -0.60602    2    diag,B
    4      0.769D-03      0.959D-03    -17901.75870753  13609.321600    0.00000    0.00000   -0.45044    3    diag,B
    5      0.300D-03      0.498D-03    -17901.76557471  13610.011485    0.00000    0.00000   -0.29819    4    diag,B
    6      0.380D-03      0.399D-03    -17901.77456267  13611.542503    0.00000    0.00000   -0.05716    5    diag,B
    7      0.518D-03      0.325D-03    -17901.78543923  13614.640366    0.00000    0.00000    0.33946    6    diag,B
    8      0.869D-03      0.206D-03    -17901.78836798  13616.228120    0.00000    0.00000    0.52587    7    orth
    9      0.456D-03      0.131D-03    -17901.78910888  13615.829012    0.00000    0.00000    0.64205    8    diag,B
   10      0.492D-03      0.148D-03    -17901.78931660  13616.559861    0.00000    0.00000    0.64000    9    diag,B
   11      0.110D-03      0.334D-04    -17901.78934302  13616.858451    0.00000    0.00000    0.63803    9    diag,B
   12      0.683D-04      0.259D-04    -17901.78935568  13616.734662    0.00000    0.00000    0.64087    9    diag,B
   13      0.451D-04      0.903D-05    -17901.78935900  13616.766246    0.00000    0.00000    0.63731    9    diag,B
   14      0.197D-04      0.419D-05    -17901.78935974  13616.789223    0.00000    0.00000    0.63586    9    diag,B
   15      0.134D-04      0.369D-05    -17901.78936003  13616.777675    0.00000    0.00000    0.63609    9    diag,B
   16      0.776D-05      0.934D-06    -17901.78936006  13616.781728    0.00000    0.00000    0.63595    9    diag,B
   17      0.307D-05      0.323D-06    -17901.78934845  13616.508907    0.00000    0.00000    0.61789    0    orth

 Final alpha occupancy:  21  10  10   4
 Final beta  occupancy:  18   9   9   4

 !RHF STATE 1.4 Energy               -17901.7893484491    
 Nuclear energy                       149.05037125
 One-electron energy               -24859.09417296
 Two-electron energy                 6808.25445326
 Virial quotient                       -0.67998862
 !RHF STATE 1.4 Dipole moment           0.00000000     0.00000000     0.61788941
 Dipole moment /Debye                   0.00000000     0.00000000     1.57041537

 Orbital energies:

         1.1          2.1          3.1          4.1          5.1          6.1          7.1          8.1          9.1         10.1
  -2813.112372  -497.404799  -433.446492  -118.693519   -99.604145   -77.783940   -77.783911   -26.536609   -20.728878   -20.143662

        11.1         12.1         13.1         14.1         15.1         16.1         17.1         18.1         19.1         20.1
    -11.993562   -11.993345    -4.149946    -2.937392    -2.935954    -2.395529    -1.297494    -0.631294    -0.440232    -0.412330

        21.1         22.1         23.1
     -0.273281     0.034561     0.060824

         1.2          2.2          3.2          4.2          5.2          6.2          7.2          8.2          9.2         10.2
   -433.446466   -99.603972   -77.787189   -20.143468   -11.999519    -2.937712    -2.935694    -2.395971    -0.394856    -0.695913

        11.2         12.2
      0.038328     0.167410

         1.3          2.3          3.3          4.3          5.3          6.3          7.3          8.3          9.3         10.3
   -433.446466   -99.603972   -77.787189   -20.143468   -11.999519    -2.937712    -2.935694    -2.395971    -0.394856    -0.695913

        11.3         12.3
      0.038328     0.167410

         1.4          2.4          3.4          4.4          5.4          6.4
    -77.787656   -12.000432    -2.933619    -0.381351     0.198969     0.539797

 HOMO     21.1    -0.273281 =      -7.4363eV
 LUMO     22.1     0.034561 =       0.9405eV
 LUMO-HOMO         0.307842 =       8.3768eV


 **********************************************************************************************************************************
 DATASETS  * FILE   NREC   LENGTH (MB)   RECORD NAMES
              1      23       24.01       500      610      700      900      950      970     1000      129      960     1700   
                                          VAR    BASINP    GEOM    SYMINP    ZMAT    AOBASIS   BASIS     P2S    ABASIS    OPER   
                                         1101     1401     1411     1412     1650     1100     1400     1410     1200     1210   
                                          SR      EKINR    POTR     PVPR    MOLCAS      S      EKIN      POT      H0       H01  
                                         1080     1600     1800   
                                         AOSYM     SMH     GRID   

              2       6        9.46       700     1000      520     1800     2100     2101   
                                         GEOM     BASIS   MCVARS    GRID      RKS      RHF  

 PROGRAMS   *        TOTAL       RHF       RKS       INT
 CPU TIMES  *       235.75     13.07     18.12    204.10
 REAL TIME  *       254.80 SEC
 DISK USED  *        10.57 GB      
 SF USED    *         0.24 MB      
 GA USED    *         0.23 MB       (max)       0.23 MB       (current)
 **********************************************************************************************************************************
 SETTING SCF(1)         =    -17901.78934845  AU                              
 SETTING _CC_NORM_MAX   =         2.00000000                                  


 PROGRAM * CCSD (Restricted open-shell coupled cluster)     Authors: C. Hampel, H.-J. Werner, 1991, M. Deegan, P.J. Knowles, 1992


 Convergence thresholds:  THRVAR = 1.00D-08  THRDEN = 1.70D-06

 CCSD(T)     terms to be evaluated (factor= 1.000)


 Number of closed-shell orbitals:  40 (  18   9   9   4 )
 Number of active  orbitals:        5 (   3   1   1   0 )
 Number of external orbitals:     405 ( 166  97  97  45 )

 For full I/O caching in triples, increase memory by 311.10 Mwords to 1335.38 Mwords.

 Number of N-1 electron functions:              85
 Number of N-2 electron functions:            3570
 Number of singly external CSFs:             10675
 Number of doubly external CSFs:         115326313
 Total number of CSFs:                   115336988

 Molecular orbitals read from record     2101.2  Type=RHF/CANONICAL (state 1.4)

 Integral transformation finished. Total CPU:  60.24 sec, npass=  1  Memory used: 147.97 MW

 Starting RMP2 calculation

 Wavefunction is spin-projected

 ITER.      SQ.NORM     CORR.ENERGY   TOTAL ENERGY   ENERGY CHANGE        DEN1      VAR(S)    VAR(P)  DIIS     TIME
   1      1.22578241    -3.58656564-17905.37591409    -3.58656564    -0.00252899  0.14D-03  0.11D-02  1  1   125.11
   2      1.22900381    -3.58930190-17905.37865034    -0.00273625    -0.00004374  0.81D-05  0.25D-04  2  2   190.64
   3      1.22952378    -3.58954424-17905.37889269    -0.00024235    -0.00000110  0.61D-06  0.46D-06  3  3   238.03
   4      1.22956808    -3.58955380-17905.37890225    -0.00000956    -0.00000004  0.19D-07  0.11D-07  4  4   312.00
   5      1.22956895    -3.58955267-17905.37890111     0.00000114    -0.00000000  0.14D-08  0.20D-09  5  5   390.30

 Norm of t1 vector:      0.07539838      S-energy:    -0.01167215      T1 diagnostic:  0.00100089
 Norm of t2 vector:      0.47316386      P-energy:    -3.57788051
                                         Alpha-Beta:  -2.31070785
                                         Alpha-Alpha: -0.68063548
                                         Beta-Beta:   -0.58653718

 Spin contamination <S**2-Sz**2-Sz>     0.00000000
  Reference energy                   -17901.7893484492    
  RHF-RMP2 correlation energy          -3.589552665154
 !RHF-RMP2 energy                    -17905.3789011143    
 (NB above energy spin projected)

 Starting RCCSD calculation

 ITER.      SQ.NORM     CORR.ENERGY   TOTAL ENERGY   ENERGY CHANGE        DEN1      VAR(S)    VAR(P)  DIIS     TIME
   1      1.19370544    -3.22520750-17905.01455595    -3.22520750    -0.12900845  0.16D-01  0.81D-02  0  0   763.14
   2      1.22943838    -3.34264444-17905.13199289    -0.11743694    -0.01720186  0.18D-02  0.28D-02  0  0  1138.90
   3      1.25630510    -3.31217654-17905.10152499     0.03046790    -0.00542034  0.51D-02  0.40D-03  1  1  1547.33
   4      1.27410952    -3.32323644-17905.11258489    -0.01105990    -0.00230562  0.21D-02  0.44D-03  2  2  1931.03
   5      1.34199466    -3.32928158-17905.11863003    -0.00604514    -0.00172207  0.22D-02  0.16D-03  3  3  2326.37
   6      1.52421908    -3.34049947-17905.12984792    -0.01121788    -0.00051771  0.51D-03  0.96D-04  4  4  2709.62
   7      1.59716400    -3.34265886-17905.13200731    -0.00215939    -0.00019224  0.16D-03  0.52D-04  5  5  3102.21
   8      1.66531353    -3.34513513-17905.13448358    -0.00247627    -0.00002276  0.98D-05  0.88D-05  6  6  3487.20
   9      1.66930672    -3.34528038-17905.13462883    -0.00014525    -0.00000547  0.39D-05  0.16D-05  6  5  3878.95
  10      1.68043019    -3.34567409-17905.13502254    -0.00039371    -0.00000124  0.62D-06  0.47D-06  6  1  4269.06
  11      1.68063007    -3.34569507-17905.13504352    -0.00002097    -0.00000039  0.20D-06  0.14D-06  6  2  4653.76
  12      1.67945525    -3.34564924-17905.13499769     0.00004583    -0.00000016  0.67D-07  0.68D-07  6  3  5026.83
  13      1.67974090    -3.34565717-17905.13500562    -0.00000794    -0.00000007  0.41D-07  0.24D-07  6  4  5397.24
  14      1.68064753    -3.34568712-17905.13503557    -0.00002995    -0.00000001  0.70D-08  0.45D-08  6  6  5801.32
  15      1.68092333    -3.34570121-17905.13504966    -0.00001409    -0.00000000  0.17D-08  0.13D-08  6  3  6218.05
  16      1.68093962    -3.34570132-17905.13504976    -0.00000011    -0.00000000  0.76D-09  0.54D-09  6  2  6686.62

 Norm of t1 vector:      0.59767007      S-energy:    -0.01477211      T1 diagnostic:  0.04444186
                                                                       D1 diagnostic:  0.27031132
 Norm of t2 vector:      0.56897285      P-energy:    -3.33092921
                                         Alpha-Beta:  -2.20689647
                                         Alpha-Alpha: -0.59531004
                                         Beta-Beta:   -0.52872269

 Singles amplitudes (print threshold =  0.500E-01):

         I         SYM. A    A   T(IA) [Alpha-Alpha]

        21         1         7     -0.05463354
 
         I         SYM. A    A   T(IA) [Beta-Beta]

        18         1         2     -0.09026407
        18         1         3     -0.10200204
        30         2         1     -0.38227696
        30         2         2      0.05115356
        30         2         4      0.06066429
        40         3         1     -0.38227696
        40         3         2      0.05115356
        40         3         4      0.06066429

 Doubles amplitudes (print threshold =  0.500E-01):

         I         J         SYM. A    SYM. B    A         B      T(IJ, AB) [Beta-Beta]

        30        18         1         2         2         1     -0.07413645
        30        18         1         2         3         1     -0.07257611
        30        18         2         1         1         2      0.07413645
        30        18         2         1         1         3      0.07257611
        40        18         1         3         2         1     -0.07413645
        40        18         1         3         3         1     -0.07257611
        40        18         3         1         1         2      0.07413645
        40        18         3         1         1         3      0.07257611
        40        30         2         3         1         1      0.11574259
        40        30         3         2         1         1     -0.11574259
 
         I         J         SYM. A    SYM. B    A         B      T(IJ, AB) [Alpha-Beta]

        31        30         2         2         4         1      0.05069215
        41        40         3         3         4         1      0.05069215

 Spin contamination <S**2-Sz**2-Sz>     0.00000000

 For full I/O caching in triples, increase memory by 507.21 Mwords to 1531.49 Mwords.
 

  Correlated core orbitals:             1.1       2.1       3.1       4.1       5.1       6.1       7.1       8.1       9.1      10.1
                                       11.1      12.1      13.1      14.1      15.1      16.1       1.2       2.2       3.2       4.2
                                        5.2       6.2       7.2       8.2       1.3       2.3       3.3       4.3       5.3       6.3
                                        7.3       8.3       1.4       2.4       3.4
  Orbital energies:                 -2813.1157 -497.4122 -433.4538 -118.6989  -99.6095  -77.7950  -77.7950  -26.5475  -20.7621  -20.1542
                                      -12.0147  -12.0144   -4.2056   -2.9507   -2.9459   -2.4703 -433.4536  -99.6090  -77.7919  -20.1532
                                      -12.0068   -2.9508   -2.9452   -2.4696 -433.4536  -99.6090  -77.7919  -20.1532  -12.0068   -2.9508
                                       -2.9452   -2.4696  -77.7917  -12.0062   -2.9387
 
  RCCSD core-core energy               -2.549128998203
  RCCSD core-valence energy            -0.342087929936
  RCCSD valence correlation energy     -0.454484387348
 

 RESULTS
 =======

  Reference energy                   -17901.7893484492    
  RCCSD singles energy                 -0.014772109753
  RCCSD pair energy                    -3.330929205734
  RCCSD correlation energy             -3.345701315488
  Triples (T) contribution             -0.065121436236
  Total correlation energy             -3.410822751723
 
  RHF-RCCSD energy                   -17905.1350497647    
  RHF-RCCSD[T] energy                -17905.2171451270    
  RHF-RCCSD-T energy                 -17905.1922916696    
 !RHF-RCCSD(T) energy                -17905.2001712009    

 Program statistics:

 Available memory in ccsd:              1023983250
 Min. memory needed in ccsd:             315919289
 Max. memory used in ccsd:               466886495
 Max. memory used in cckext:             380502912 (16 integral passes)
 Max. memory used in cckint:             147968239 ( 1 integral passes)



 **********************************************************************************************************************************
 DATASETS  * FILE   NREC   LENGTH (MB)   RECORD NAMES
              1      23       24.01       500      610      700      900      950      970     1000      129      960     1700   
                                          VAR    BASINP    GEOM    SYMINP    ZMAT    AOBASIS   BASIS     P2S    ABASIS    OPER   
                                         1101     1401     1411     1412     1650     1100     1400     1410     1200     1210   
                                          SR      EKINR    POTR     PVPR    MOLCAS      S      EKIN      POT      H0       H01  
                                         1080     1600     1800   
                                         AOSYM     SMH     GRID   

              2       6        9.46       700     1000      520     1800     2100     2101   
                                         GEOM     BASIS   MCVARS    GRID      RKS      RHF  

 PROGRAMS   *        TOTAL  RCCSD(T)       RHF       RKS       INT
 CPU TIMES  *     16402.22  16166.45     13.07     18.12    204.10
 REAL TIME  *     19830.23 SEC
 DISK USED  *       172.47 GB      
 SF USED    *        31.63 GB      
 GA USED    *         0.23 MB       (max)       0.23 MB       (current)
 **********************************************************************************************************************************
 SETTING CCSD(1)        =    -17905.20017120  AU                              
 Output type csv         
                                                                                                                                                                                                                                                                

     Z,PBE  ,SCF  ,CCSD
   2.187,   -17907.50620,   -17901.78935,   -17905.20017
                                                  

 RCCSD(T)/USERDEF energy= -17905.200171200893

        RCCSD(T)        RHF-SCF         RKS-SCF 
 -17905.20017120 -17901.78934845 -17907.50620205
 **********************************************************************************************************************************
 Molpro calculation terminated
 Variable memory released
