
 Primary working directories    : /global/cscratch1/sd/bkincaid
 Secondary working directories  : /global/cscratch1/sd/bkincaid
 Wavefunction directory         : /global/homes/b/bkincaid/wfu/
 Main file repository           : /global/cscratch1/sd/bkincaid/

 SHA1      : 19cd028119e0e09f93f0674bd8af7968d9b3eff6
 NAME      : 2015.1.36
 ARCHNAME  : linux/x86_64
 FC        : /opt/cray/pe/craype/2.5.14/bin/ftn
 BLASLIB   : -L/opt/intel/compilers_and_libraries_2018.1.163/linux/mkl/lib/intel64 -Wl,-_start-group -lmkl_intel_ilp64 -lmkl_intel_thread -lmkl_core -Wl,-_end-group -liomp5
 id        : lbl

 Nodes     nprocs
 nid02160    11
 Number of processes for MPI-2 version of Molpro:   nprocs(total)=   12   nprocs(compute)=   11   nprocs(helper)=    1

 Using customized tuning parameters: mindgm=7; mindgv=16; mindgc=1; mindgr=1; noblas=0; minvec=7
 default implementation of scratch files=sf  

 ***,Calculation for IrO groundstate
 memory,1024,m
 gthresh,twoint=1.0E-15
 gthresh,throvl=1.0E-15
 
 set,dkroll=1,dkho=10,dkhp=4
 
 basis={
 Including file /global/u1/b/bkincaid/molpro/Ir/molecules/tz/IrO/ae/2.187/tz.basis
 Including file /global/u1/b/bkincaid/molpro/Ir/molecules/tz/IrO/ae/2.187/O-aug-cc-CVTZ.basis
 }
 
 ne = 85
 
 A1=21
 B1=10
 B2=10
 A2=4
 
 do i=1,1
 z(i) = 2.187 - 0.1*(i-1)
 geometry={
 2
 IrO
 Ir 0.0 0.0 0.0
 O 0.0 0.0 z(i)
 }
 {rks,pbe0
 wf,nele=ne,spin=5,sym=4
         occ,A1,B1,B2,A2
         closed,A1-3,B1-1,B2-1,A2
 }
 pbe(i)=energy
 {rhf
 wf,nelec=ne,spin=5,sym=4
         occ,A1,B1,B2,A2
         closed,A1-3,B1-1,B2-1,A2
 }
 scf(i)=energy
 _CC_NORM_MAX=2.0
 {rccsd(t);maxit,100;core}
 ccsd(i)=energy
 enddo
 
 table,z,pbe,scf,ccsd
 save
 type,csv
 

 Variables initialized (889), CPU time= 0.00 sec
 Commands  initialized (702), CPU time= 0.01 sec, 572 directives.
 Default parameters read. Elapsed time= 0.71 sec

 Checking input...
 Passed
1


                                         ***  PROGRAM SYSTEM MOLPRO  ***
                                       Copyright, TTI GmbH Stuttgart, 2015
                                    Version 2015.1 linked Dec 29 2018 15:55:43


 **********************************************************************************************************************************
 LABEL *   Calculation for IrO groundstate                                               
  64 bit mpp version                                                                     DATE: 20-Feb-21          TIME: 20:00:57  
 **********************************************************************************************************************************

 SHA1:             19cd028119e0e09f93f0674bd8af7968d9b3eff6
 **********************************************************************************************************************************

 THRESHOLDS:

 ZERO    =  1.00D-12  ONEINT  =  1.00D-12  TWOINT  =  1.00D-15  PREFAC  =  1.00D-14  LOCALI  =  1.00D-09  EORDER  =  1.00D-04
 ENERGY  =  0.00D+00  ETEST   =  0.00D+00  EDENS   =  0.00D+00  THRDEDEF=  1.00D-06  GRADIENT=  1.00D-02  STEP    =  1.00D-03
 ORBITAL =  1.00D-05  CIVEC   =  1.00D-05  COEFF   =  1.00D-04  PRINTCI =  5.00D-02  PUNCHCI =  9.90D+01  OPTGRAD =  3.00D-04
 OPTENERG=  1.00D-06  OPTSTEP =  3.00D-04  THRGRAD =  1.00D-10  COMPRESS=  1.00D-11  VARMIN  =  1.00D-07  VARMAX  =  1.00D-03
 THRDOUB =  0.00D+00  THRDIV  =  1.00D-05  THRRED  =  1.00D-07  THRPSP  =  1.00D+00  THRDC   =  1.00D-10  THRCS   =  1.00D-10
 THRNRM  =  1.00D-08  THREQ   =  0.00D+00  THRDE   =  1.00D+00  THRREF  =  1.00D-05  SPARFAC =  1.00D+00  THRDLP  =  1.00D-07
 THRDIA  =  1.00D-10  THRDLS  =  1.00D-07  THRGPS  =  0.00D+00  THRKEX  =  0.00D+00  THRDIS  =  2.00D-01  THRVAR  =  1.00D-10
 THRLOC  =  1.00D-06  THRGAP  =  1.00D-06  THRLOCT = -1.00D+00  THRGAPT = -1.00D+00  THRORB  =  1.00D-06  THRMLTP =  0.00D+00
 THRCPQCI=  1.00D-10  KEXTA   =  0.00D+00  THRCOARS=  0.00D+00  SYMTOL  =  1.00D-06  GRADTOL =  1.00D-06  THROVL  =  1.00D-08
 THRORTH =  1.00D-08  GRID    =  1.00D-06  GRIDMAX =  1.00D-03  DTMAX   =  0.00D+00  THROCCDE=  1.00D-01  THROCCDE=  1.00D-01



 THRESHOLDS:

 ZERO    =  1.00D-12  ONEINT  =  1.00D-12  TWOINT  =  1.00D-15  PREFAC  =  1.00D-14  LOCALI  =  1.00D-09  EORDER  =  1.00D-04
 ENERGY  =  0.00D+00  ETEST   =  0.00D+00  EDENS   =  0.00D+00  THRDEDEF=  1.00D-06  GRADIENT=  1.00D-02  STEP    =  1.00D-03
 ORBITAL =  1.00D-05  CIVEC   =  1.00D-05  COEFF   =  1.00D-04  PRINTCI =  5.00D-02  PUNCHCI =  9.90D+01  OPTGRAD =  3.00D-04
 OPTENERG=  1.00D-06  OPTSTEP =  3.00D-04  THRGRAD =  1.00D-10  COMPRESS=  1.00D-11  VARMIN  =  1.00D-07  VARMAX  =  1.00D-03
 THRDOUB =  0.00D+00  THRDIV  =  1.00D-05  THRRED  =  1.00D-07  THRPSP  =  1.00D+00  THRDC   =  1.00D-10  THRCS   =  1.00D-10
 THRNRM  =  1.00D-08  THREQ   =  0.00D+00  THRDE   =  1.00D+00  THRREF  =  1.00D-05  SPARFAC =  1.00D+00  THRDLP  =  1.00D-07
 THRDIA  =  1.00D-10  THRDLS  =  1.00D-07  THRGPS  =  0.00D+00  THRKEX  =  0.00D+00  THRDIS  =  2.00D-01  THRVAR  =  1.00D-10
 THRLOC  =  1.00D-06  THRGAP  =  1.00D-06  THRLOCT = -1.00D+00  THRGAPT = -1.00D+00  THRORB  =  1.00D-06  THRMLTP =  0.00D+00
 THRCPQCI=  1.00D-10  KEXTA   =  0.00D+00  THRCOARS=  0.00D+00  SYMTOL  =  1.00D-06  GRADTOL =  1.00D-06  THROVL  =  1.00D-15
 THRORTH =  1.00D-08  GRID    =  1.00D-06  GRIDMAX =  1.00D-03  DTMAX   =  0.00D+00  THROCCDE=  1.00D-01  THROCCDE=  1.00D-01


 SETTING DKROLL         =         1.00000000                                  
 SETTING DKHO           =        10.00000000                                  
 SETTING DKHP           =         4.00000000                                  

 Variable memory set to 1024000000 words,  buffer space   230000 words

 SETTING BASIS          =    USERDEF
 SETTING NE             =        85.00000000                                  
 SETTING A1             =        21.00000000                                  
 SETTING B1             =        10.00000000                                  
 SETTING B2             =        10.00000000                                  
 SETTING A2             =         4.00000000                                  

 DO I                   =         1.00000000   
 SETTING Z(1)           =         2.18700000                                  

Geometry recognized as XYZ



 Recomputing integrals since basis changed


 Using spherical harmonics



 PROGRAM * SEWARD (Integral evaluation for generally contracted gaussian basis sets)     Author: Roland Lindh, 1990

 Geometry written to block  1 of record 700


 Point group  C2v 



 ATOMIC COORDINATES

 NR  ATOM    CHARGE       X              Y              Z

   1  IR     77.00    0.000000000    0.000000000    0.000000000
   2  O       8.00    0.000000000    0.000000000    4.132831034

 Bond lengths in Bohr (Angstrom)

 1-2  4.132831034
     ( 2.187000000)

 NUCLEAR CHARGE:                   85
 NUMBER OF PRIMITIVE AOS:         541
 NUMBER OF SYMMETRY AOS:          446
 NUMBER OF CONTRACTIONS:          446   ( 185A1  + 106B1  + 106B2  +  49A2  )
 NUMBER OF CORE ORBITALS:          35   (  16A1  +   8B1  +   8B2  +   3A2  )
 NUMBER OF VALENCE ORBITALS:       10   (   5A1  +   2B1  +   2B2  +   1A2  )


 NUCLEAR REPULSION ENERGY  149.05037125

 One-electron integrals computed with SEWARD

 10nd-order Douglas-Kroll-Hess method activated. McWeeny DKH parametrization is used.

 Computing Douglas-Kroll / X2C integrals

 AO integral compression algorithm  1   Integral accuracy      1.0D-15

     4198.498 MB (compressed) written to integral file ( 35.8%)

     Node minimum: 195.297 MB, node maximum: 838.337 MB


 NUMBER OF SORTED TWO-ELECTRON INTEGRALS:  115711532.     BUFFER LENGTH:  32768
 NUMBER OF SEGMENTS:   4  SEGMENT LENGTH:   31989761      RECORD LENGTH: 524288

 Memory used in sort:      32.55 MW

 SORT1 READ  1465035727. AND WROTE    41130793. INTEGRALS IN    120 RECORDS. CPU TIME:    22.28 SEC, REAL TIME:    30.13 SEC
 SORT2 READ   449619047. AND WROTE  1273302750. INTEGRALS IN  12221 RECORDS. CPU TIME:     1.57 SEC, REAL TIME:     4.17 SEC

 Node minimum:   115641882.  Node maximum:   115920125. integrals

 OPERATOR DM      FOR CENTER  0  COORDINATES:    0.000000    0.000000    0.000000

 EXTRA SYMMETRY OF AOS IN SYMMETRY 1:   1 1 1 1 1 1 1 1 1 1   1 1 1 1 1 1 1 1 1 1   1 1 1 1 1 1 1 1 1 1   1 1 1 1 1 1 1 1 1 1
                                        1 1 1 1 1 1 1 1 1 1   1 1 1 1 1 1 1 1 1 1   1 1 1 1 1 1 1 1 1 1   1 1 1 1 1 1 1 1 1 1
                                        1 1 1 1 1 1 1 1 1 1   1 1 1 1 1 1 1 1 1 1   1 1 1 1 1 1 1 1 1 1   1 1 1 1 1 1 1 1 1 1
                                        1 1 1 1 1 1 1 1 1 1   1 1 1 1 1 1 1 1 1 1   1 1 1 1 2 1 1 2 1 1   2 1 1 1 1 1 1 1 1 1
                                        1 1 1 1 1 1 1 1 1 1   1 1 1 1 1 1 1 1 1 1   1 1 1 1 1
 EXTRA SYMMETRY OF AOS IN SYMMETRY 2:   1 1 1 1 1 1 1 1 1 1   1 1 1 1 1 1 1 1 1 1   1 1 1 1 1 1 1 1 1 1   1 1 1 1 1 1 1 1 1 1
                                        1 1 1 1 1 1 1 1 1 1   1 1 1 1 1 2 1 2 1 2   1 2 1 2 1 2 1 2 1 2   1 2 1 2 1 2 1 2 1 2
                                        1 2 1 2 1 2 1 2 1 2   1 1 1 1 1 1 1 1 1 1   1 1 1 2 1 2
 EXTRA SYMMETRY OF AOS IN SYMMETRY 3:   1 1 1 1 1 1 1 1 1 1   1 1 1 1 1 1 1 1 1 1   1 1 1 1 1 1 1 1 1 1   1 1 1 1 1 1 1 1 1 1
                                        1 1 1 1 1 1 1 1 1 1   1 1 1 1 1 2 1 2 1 2   1 2 1 2 1 2 1 2 1 2   1 2 1 2 1 2 1 2 1 2
                                        1 2 1 2 1 2 1 2 1 2   1 1 1 1 1 1 1 1 1 1   1 1 1 2 1 2
 EXTRA SYMMETRY OF AOS IN SYMMETRY 4:   1 1 1 1 1 1 1 1 1 1   1 1 1 1 1 1 1 1 1 1   1 1 1 1 1 1 1 1 1 1   1 1 1 1 1 1 1 1 2 1
                                        2 1 2 1 1 1 1 1 1

 Eigenvalues of metric

         1 0.167E-06 0.359E-06 0.790E-06 0.805E-06 0.146E-05 0.490E-05 0.509E-05 0.116E-04
         2 0.172E-06 0.801E-06 0.513E-05 0.116E-04 0.264E-04 0.528E-04 0.547E-04 0.562E-04
         3 0.172E-06 0.801E-06 0.513E-05 0.116E-04 0.264E-04 0.528E-04 0.547E-04 0.562E-04
         4 0.805E-06 0.268E-04 0.543E-04 0.166E-03 0.628E-03 0.982E-03 0.214E-02 0.556E-02


 **********************************************************************************************************************************
 DATASETS  * FILE   NREC   LENGTH (MB)   RECORD NAMES
              1      22       23.93       500      610      700      900      950      970     1000      129      960     1700   
                                          VAR    BASINP    GEOM    SYMINP    ZMAT    AOBASIS   BASIS     P2S    ABASIS    OPER   
                                         1101     1401     1411     1412     1650     1100     1400     1410     1200     1210   
                                          SR      EKINR    POTR     PVPR    MOLCAS      S      EKIN      POT      H0       H01  
                                         1080     1600   
                                         AOSYM     SMH  

 PROGRAMS   *        TOTAL       INT
 CPU TIMES  *       174.04    173.70
 REAL TIME  *       187.09 SEC
 DISK USED  *         9.75 GB      
 GA USED    *         0.00 MB       (max)       0.00 MB       (current)
 **********************************************************************************************************************************

 Density functional group PBE0=PBEX+PBEC
 Functional: PBEX(Automatically generated (new) PBEX)                          Gradient terms: 1
 Functional: PBEC(Automatically generated (new) PBEC)                          Gradient terms: 1
 Use grid at  1800.2
 

 Exact exchange will be calculated, factor:  0.2500

 Functional: PBEX                      Factor:  0.7500
 Functional: PBEC                      Factor:  1.0000
 
 Generated new metagrid on record  1800.2 with target accuracy 1.0D-06 and 5243 points in CPU time    0.0
 Computed new grid on record 1800.1 in CPU time    0.1
  355296 words reserved for DFT integration

 PROGRAM * RKS-SCF (Restricted open shell Kohn-Sham)     Authors: W. Meyer, H.-J. Werner, P.J. Knowles, 1993

 NUMBER OF ELECTRONS:      45+   40-    SPACE SYMMETRY=4    SPIN SYMMETRY: Sextet  
 CONVERGENCE THRESHOLDS:    1.00E-05 (Density)    1.70E-06 (Energy)
 MAX. NUMBER OF ITERATIONS:       60
 INTERPOLATION TYPE:            DIIS
 INTERPOLATION STEPS:              2 (START)      1 (STEP)
 LEVEL SHIFTS:                 -0.60 (CLOSED) -0.30 (OPEN) 

 Number of closed-shell orbitals:   40 (  18   9   9   4 )
 Number of open-shell orbitals:      5 (   3   1   1   0 )


 Use fine grid record 1800.2 for energy threshold  1.0D-06
 Orbital guess generated from atomic densities. Full valence occupancy:   21  10  10   4

 Molecular orbital dump at record        2100.2

 ITERATION    DDIFF          GRAD             ENERGY        2-EL.EN.            DIPOLE MOMENTS         DIIS   ORB.
    1      0.000D+00      0.000D+00    -17893.19350749  13406.883048    0.00000    0.00000   -7.16498    0    start
    2      0.000D+00      0.330D-01    -17883.40311699  15002.612280    0.00000    0.00000   20.94000    1    diag,B
    3      0.130D+01      0.866D-01    -17903.72523560  14508.775664    0.00000    0.00000    4.60505    2    diag,B
    4      0.185D+00      0.335D-01    -17905.55801139  14377.056233    0.00000    0.00000    5.13036    3    diag,B
    5      0.101D+00      0.200D-01    -17907.22892444  14202.340993    0.00000    0.00000   -1.75191    4    diag,B
    6      0.149D-01      0.804D-02    -17907.38060905  14186.729756    0.00000    0.00000    0.48327    5    diag,B
    7      0.371D-02      0.410D-02    -17907.48284751  14144.465251    0.00000    0.00000   -0.80950    6    fixocc
    8      0.211D-02      0.742D-03    -17907.49223507  14133.363316    0.00000    0.00000   -0.96416    7    diag,B
    9      0.127D-02      0.390D-03    -17907.49460891  14131.259001    0.00000    0.00000   -1.07110    8    diag,B
   10      0.496D-03      0.391D-03    -17907.49796702  14132.702462    0.00000    0.00000   -0.99695    9    orth
   11      0.434D-03      0.197D-03    -17907.50094151  14133.046851    0.00000    0.00000   -0.95856    9    diag,B
   12      0.338D-03      0.125D-03    -17907.50334470  14134.253713    0.00000    0.00000   -0.89531    9    diag,B
   13      0.287D-03      0.127D-03    -17907.50514396  14134.147888    0.00000    0.00000   -0.87397    9    diag,B
   14      0.262D-03      0.739D-04    -17907.50636643  14135.566371    0.00000    0.00000   -0.74410    9    diag,B
   15      0.352D-03      0.116D-03    -17907.50642423  14134.802339    0.00000    0.00000   -0.79629    9    diag,B
   16      0.949D-04      0.251D-04    -17907.50648875  14134.919694    0.00000    0.00000   -0.77301    9    diag,B
   17      0.755D-04      0.144D-04    -17907.50650746  14135.204391    0.00000    0.00000   -0.74545    9    diag,B
   18      0.615D-04      0.181D-04    -17907.50651216  14135.097145    0.00000    0.00000   -0.75067    9    diag,B
   19      0.253D-04      0.255D-05    -17907.50651263  14135.132805    0.00000    0.00000   -0.74708    9    diag,B
   20      0.128D-04      0.180D-05    -17907.50651270  14135.104892    0.00000    0.00000   -0.74930    9    orth
   21      0.596D-05      0.202D-05    -17907.50651260  14135.160625    0.00000    0.00000   -0.74625    0    orth

 Final alpha occupancy:  21  10  10   4
 Final beta  occupancy:  18   9   9   4

 !RKS STATE 1.4 Energy               -17907.5065126021    
 Nuclear energy                       149.05037125
 One-electron energy               -24851.42503446
 Two-electron energy                 7067.58031234
 Density functional                  -272.71216172     PBEX=-357.10378522 PBEC=  -4.88432281
 Virial quotient                       -0.67958707
 !RKS STATE 1.4 Dipole moment           0.00000000     0.00000000    -0.74625376
 Dipole moment /Debye                   0.00000000     0.00000000    -1.89666362

 Orbital energies:

         1.1          2.1          3.1          4.1          5.1          6.1          7.1          8.1          9.1         10.1
  -2794.624448  -490.171972  -427.347074  -115.272661   -96.735958   -75.566194   -75.564588   -24.914449   -19.278931   -18.778434

        11.1         12.1         13.1         14.1         15.1         16.1         17.1         18.1         19.1         20.1
    -11.021715   -11.019731    -3.751368    -2.470226    -2.468606    -2.132365    -0.926767    -0.383867    -0.369885    -0.333965

        21.1         22.1         23.1
     -0.238407     0.009360     0.009879

         1.2          2.2          3.2          4.2          5.2          6.2          7.2          8.2          9.2         10.2
   -427.346282   -96.733770   -75.565588   -18.775033   -11.019632    -2.469740    -2.465788    -2.133697    -0.336950    -0.341507

        11.2         12.2
     -0.036470     0.092547

         1.3          2.3          3.3          4.3          5.3          6.3          7.3          8.3          9.3         10.3
   -427.346282   -96.733770   -75.565588   -18.775033   -11.019632    -2.469740    -2.465788    -2.133697    -0.336950    -0.341507

        11.3         12.3
     -0.036470     0.092547

         1.4          2.4          3.4          4.4          5.4          6.4
    -75.564203   -11.016533    -2.464670    -0.315369     0.125800     0.423060

 HOMO     21.1    -0.238407 =      -6.4874eV
 LUMO     11.2    -0.036470 =      -0.9924eV
 LUMO-HOMO         0.201937 =       5.4950eV


 **********************************************************************************************************************************
 DATASETS  * FILE   NREC   LENGTH (MB)   RECORD NAMES
              1      23       23.93       500      610      700      900      950      970     1000      129      960     1700   
                                          VAR    BASINP    GEOM    SYMINP    ZMAT    AOBASIS   BASIS     P2S    ABASIS    OPER   
                                         1101     1401     1411     1412     1650     1100     1400     1410     1200     1210   
                                          SR      EKINR    POTR     PVPR    MOLCAS      S      EKIN      POT      H0       H01  
                                         1080     1600     1800   
                                         AOSYM     SMH     GRID   

              2       5        4.50       700     1000      520     1800     2100   
                                         GEOM     BASIS   MCVARS    GRID      RKS  

 PROGRAMS   *        TOTAL       RKS       INT
 CPU TIMES  *       189.55     15.50    173.70
 REAL TIME  *       206.30 SEC
 DISK USED  *        10.16 GB      
 SF USED    *         0.24 MB      
 GA USED    *         0.23 MB       (max)       0.23 MB       (current)
 **********************************************************************************************************************************
 SETTING PBE(1)         =    -17907.50651260  AU                              


 PROGRAM * RHF-SCF (OPEN SHELL)       Authors: W. Meyer, H.-J. Werner


 NUMBER OF ELECTRONS:      45+   40-    SPACE SYMMETRY=4    SPIN SYMMETRY: Sextet  
 CONVERGENCE THRESHOLDS:    1.00E-05 (Density)    1.70E-07 (Energy)
 MAX. NUMBER OF ITERATIONS:       60
 INTERPOLATION TYPE:            DIIS
 INTERPOLATION STEPS:              2 (START)      1 (STEP)
 LEVEL SHIFTS:                 -0.60 (CLOSED) -0.30 (OPEN) 

 Number of closed-shell orbitals:   40 (  18   9   9   4 )
 Number of open-shell orbitals:      5 (   3   1   1   0 )


 Molecular orbitals read from record     2100.2  Type=RKS/CANONICAL (state 1.4)

 Molecular orbital dump at record        2101.2

 ITERATION    DDIFF          GRAD             ENERGY        2-EL.EN.            DIPOLE MOMENTS         DIIS   ORB.
    1      0.000D+00      0.000D+00    -17901.69380694  13601.361713    0.00000    0.00000   -0.74625    0    start
    2      0.000D+00      0.115D+00    -17901.74419606  13610.988858    0.00000    0.00000   -0.61590    1    diag,B
    3      0.257D-02      0.140D-02    -17901.75377413  13602.609970    0.00000    0.00000   -0.60720    2    diag,B
    4      0.746D-03      0.964D-03    -17901.75897381  13609.313923    0.00000    0.00000   -0.45170    3    diag,B
    5      0.283D-03      0.500D-03    -17901.76584142  13610.003084    0.00000    0.00000   -0.29952    4    diag,B
    6      0.362D-03      0.401D-03    -17901.77484293  13611.537787    0.00000    0.00000   -0.05816    5    diag,B
    7      0.486D-03      0.327D-03    -17901.78573252  13614.638100    0.00000    0.00000    0.33871    6    diag,B
    8      0.788D-03      0.207D-03    -17901.78866427  13616.227377    0.00000    0.00000    0.52523    7    orth
    9      0.406D-03      0.131D-03    -17901.78940676  13615.827541    0.00000    0.00000    0.64132    8    diag,B
   10      0.444D-03      0.149D-03    -17901.78961431  13616.558919    0.00000    0.00000    0.63941    9    diag,B
   11      0.975D-04      0.336D-04    -17901.78964071  13616.858256    0.00000    0.00000    0.63741    9    diag,B
   12      0.672D-04      0.261D-04    -17901.78965341  13616.733068    0.00000    0.00000    0.64028    9    diag,B
   13      0.418D-04      0.917D-05    -17901.78965674  13616.765660    0.00000    0.00000    0.63669    9    diag,B
   14      0.190D-04      0.421D-05    -17901.78965748  13616.788579    0.00000    0.00000    0.63524    9    diag,B
   15      0.126D-04      0.373D-05    -17901.78965778  13616.776973    0.00000    0.00000    0.63548    9    diag,B
   16      0.776D-05      0.941D-06    -17901.78965781  13616.781025    0.00000    0.00000    0.63533    9    diag,B
   17      0.294D-05      0.329D-06    -17901.78964698  13616.517653    0.00000    0.00000    0.61791    0    orth

 Final alpha occupancy:  21  10  10   4
 Final beta  occupancy:  18   9   9   4

 !RHF STATE 1.4 Energy               -17901.7896469825    
 Nuclear energy                       149.05037125
 One-electron energy               -24859.09884455
 Two-electron energy                 6808.25882632
 Virial quotient                       -0.67998851
 !RHF STATE 1.4 Dipole moment           0.00000000     0.00000000     0.61790521
 Dipole moment /Debye                   0.00000000     0.00000000     1.57045551

 Orbital energies:

         1.1          2.1          3.1          4.1          5.1          6.1          7.1          8.1          9.1         10.1
  -2813.112381  -497.404808  -433.446501  -118.693529   -99.604154   -77.783949   -77.783920   -26.536619   -20.728805   -20.143673

        11.1         12.1         13.1         14.1         15.1         16.1         17.1         18.1         19.1         20.1
    -11.993571   -11.993356    -4.149957    -2.937402    -2.935963    -2.395547    -1.297402    -0.631302    -0.440242    -0.412355

        21.1         22.1         23.1
     -0.273294     0.034564     0.060949

         1.2          2.2          3.2          4.2          5.2          6.2          7.2          8.2          9.2         10.2
   -433.446475   -99.603981   -77.787198   -20.143478   -11.999529    -2.937721    -2.935704    -2.395982    -0.394870    -0.695997

        11.2         12.2
      0.038325     0.167458

         1.3          2.3          3.3          4.3          5.3          6.3          7.3          8.3          9.3         10.3
   -433.446475   -99.603981   -77.787198   -20.143478   -11.999529    -2.937721    -2.935704    -2.395982    -0.394870    -0.695997

        11.3         12.3
      0.038325     0.167458

         1.4          2.4          3.4          4.4          5.4          6.4
    -77.787665   -12.000442    -2.933629    -0.381362     0.198965     0.539759

 HOMO     21.1    -0.273294 =      -7.4367eV
 LUMO     22.1     0.034564 =       0.9405eV
 LUMO-HOMO         0.307858 =       8.3772eV


 **********************************************************************************************************************************
 DATASETS  * FILE   NREC   LENGTH (MB)   RECORD NAMES
              1      23       23.93       500      610      700      900      950      970     1000      129      960     1700   
                                          VAR    BASINP    GEOM    SYMINP    ZMAT    AOBASIS   BASIS     P2S    ABASIS    OPER   
                                         1101     1401     1411     1412     1650     1100     1400     1410     1200     1210   
                                          SR      EKINR    POTR     PVPR    MOLCAS      S      EKIN      POT      H0       H01  
                                         1080     1600     1800   
                                         AOSYM     SMH     GRID   

              2       6        9.38       700     1000      520     1800     2100     2101   
                                         GEOM     BASIS   MCVARS    GRID      RKS      RHF  

 PROGRAMS   *        TOTAL       RHF       RKS       INT
 CPU TIMES  *       199.08      9.52     15.50    173.70
 REAL TIME  *       216.87 SEC
 DISK USED  *        10.21 GB      
 SF USED    *         0.24 MB      
 GA USED    *         0.23 MB       (max)       0.23 MB       (current)
 **********************************************************************************************************************************
 SETTING SCF(1)         =    -17901.78964698  AU                              
 SETTING _CC_NORM_MAX   =         2.00000000                                  


 PROGRAM * CCSD (Restricted open-shell coupled cluster)     Authors: C. Hampel, H.-J. Werner, 1991, M. Deegan, P.J. Knowles, 1992


 Convergence thresholds:  THRVAR = 1.00D-08  THRDEN = 1.70D-06

 CCSD(T)     terms to be evaluated (factor= 1.000)


 Number of closed-shell orbitals:  40 (  18   9   9   4 )
 Number of active  orbitals:        5 (   3   1   1   0 )
 Number of external orbitals:     401 ( 164  96  96  45 )

 For full I/O caching in triples, increase memory by 281.71 Mwords to 1305.99 Mwords.

 Number of N-1 electron functions:              85
 Number of N-2 electron functions:            3570
 Number of singly external CSFs:             10559
 Number of doubly external CSFs:         113053279
 Total number of CSFs:                   113063838

 Molecular orbitals read from record     2101.2  Type=RHF/CANONICAL (state 1.4)

 Integral transformation finished. Total CPU:  61.19 sec, npass=  1  Memory used: 144.58 MW

 Starting RMP2 calculation

 Wavefunction is spin-projected

 ITER.      SQ.NORM     CORR.ENERGY   TOTAL ENERGY   ENERGY CHANGE        DEN1      VAR(S)    VAR(P)  DIIS     TIME
   1      1.22575621    -3.58731757-17905.37696455    -3.58731757    -0.00252816  0.14D-03  0.11D-02  1  1    82.86
   2      1.22897739    -3.59005323-17905.37970021    -0.00273566    -0.00004370  0.82D-05  0.25D-04  2  2   105.66
   3      1.22949794    -3.59029570-17905.37994268    -0.00024247    -0.00000110  0.61D-06  0.46D-06  3  3   132.53
   4      1.22954208    -3.59030511-17905.37995210    -0.00000942    -0.00000004  0.19D-07  0.10D-07  4  4   161.17
   5      1.22954295    -3.59030399-17905.37995098     0.00000112    -0.00000000  0.14D-08  0.20D-09  5  5   195.65

 Norm of t1 vector:      0.07543212      S-energy:    -0.01167977      T1 diagnostic:  0.00100908
 Norm of t2 vector:      0.47313101      P-energy:    -3.57862422
                                         Alpha-Beta:  -2.31150654
                                         Alpha-Alpha: -0.68060254
                                         Beta-Beta:   -0.58651514

 Spin contamination <S**2-Sz**2-Sz>     0.00000000
  Reference energy                   -17901.7896469825    
  RHF-RMP2 correlation energy          -3.590303994232
 !RHF-RMP2 energy                    -17905.3799509767    
 (NB above energy spin projected)

 Starting RCCSD calculation

 ITER.      SQ.NORM     CORR.ENERGY   TOTAL ENERGY   ENERGY CHANGE        DEN1      VAR(S)    VAR(P)  DIIS     TIME
   1      1.19370785    -3.22600087-17905.01564786    -3.22600087    -0.12898838  0.16D-01  0.81D-02  0  0   565.22
   2      1.22946173    -3.34341903-17905.13306601    -0.11741816    -0.01718753  0.18D-02  0.28D-02  0  0   920.78
   3      1.25633126    -3.31297967-17905.10262665     0.03043936    -0.00541101  0.51D-02  0.40D-03  1  1  1289.17
   4      1.27416598    -3.32403578-17905.11368277    -0.01105611    -0.00230656  0.21D-02  0.44D-03  2  2  1654.14
   5      1.34235405    -3.33010586-17905.11975285    -0.00607008    -0.00171957  0.22D-02  0.16D-03  3  3  2023.67
   6      1.52473156    -3.34132472-17905.13097170    -0.01121885    -0.00051772  0.51D-03  0.96D-04  4  4  2393.85
   7      1.59745935    -3.34346738-17905.13311437    -0.00214266    -0.00019230  0.16D-03  0.52D-04  5  5  2775.11
   8      1.66588125    -3.34595589-17905.13560287    -0.00248850    -0.00002280  0.98D-05  0.89D-05  6  6  3150.60
   9      1.66982901    -3.34609856-17905.13574554    -0.00014267    -0.00000547  0.39D-05  0.16D-05  6  5  3557.58
  10      1.68100541    -3.34649468-17905.13614166    -0.00039612    -0.00000124  0.62D-06  0.47D-06  6  1  3927.32
  11      1.68120480    -3.34651565-17905.13616264    -0.00002098    -0.00000039  0.20D-06  0.14D-06  6  2  4330.36
  12      1.68002709    -3.34646976-17905.13611674     0.00004590    -0.00000016  0.67D-07  0.68D-07  6  3  4725.66
  13      1.68031803    -3.34647783-17905.13612481    -0.00000807    -0.00000007  0.41D-07  0.24D-07  6  4  5191.81
  14      1.68122178    -3.34650771-17905.13615470    -0.00002989    -0.00000001  0.70D-08  0.46D-08  6  6  5598.02
  15      1.68149719    -3.34652169-17905.13616867    -0.00001397    -0.00000000  0.18D-08  0.13D-08  6  3  6007.75
  16      1.68151384    -3.34652188-17905.13616886    -0.00000019    -0.00000000  0.76D-09  0.54D-09  6  2  6407.35

 Norm of t1 vector:      0.59798771      S-energy:    -0.01481185      T1 diagnostic:  0.04446519
                                                                       D1 diagnostic:  0.27046254
 Norm of t2 vector:      0.56914369      P-energy:    -3.33171003
                                         Alpha-Beta:  -2.20772010
                                         Alpha-Alpha: -0.59528002
                                         Beta-Beta:   -0.52870990

 Singles amplitudes (print threshold =  0.500E-01):

         I         SYM. A    A   T(IA) [Alpha-Alpha]

        21         1         7      0.05454455
 
         I         SYM. A    A   T(IA) [Beta-Beta]

        18         1         2     -0.09029477
        18         1         3     -0.10207921
        30         2         1     -0.38249083
        30         2         2      0.05118003
        30         2         4      0.06081968
        40         3         1     -0.38249083
        40         3         2      0.05118003
        40         3         4      0.06081969

 Doubles amplitudes (print threshold =  0.500E-01):

         I         J         SYM. A    SYM. B    A         B      T(IJ, AB) [Beta-Beta]

        30        18         1         2         2         1     -0.07418142
        30        18         1         2         3         1     -0.07261190
        30        18         2         1         1         2      0.07418142
        30        18         2         1         1         3      0.07261190
        40        18         1         3         2         1     -0.07418142
        40        18         1         3         3         1     -0.07261190
        40        18         3         1         1         2      0.07418142
        40        18         3         1         1         3      0.07261190
        40        30         2         3         1         1      0.11570626
        40        30         3         2         1         1     -0.11570626
 
         I         J         SYM. A    SYM. B    A         B      T(IJ, AB) [Alpha-Beta]

        31        30         2         2         4         1      0.05071365
        41        40         3         3         4         1      0.05071365

 Spin contamination <S**2-Sz**2-Sz>     0.00000000

 For full I/O caching in triples, increase memory by 468.77 Mwords to 1493.05 Mwords.
 

  Correlated core orbitals:             1.1       2.1       3.1       4.1       5.1       6.1       7.1       8.1       9.1      10.1
                                       11.1      12.1      13.1      14.1      15.1      16.1       1.2       2.2       3.2       4.2
                                        5.2       6.2       7.2       8.2       1.3       2.3       3.3       4.3       5.3       6.3
                                        7.3       8.3       1.4       2.4       3.4
  Orbital energies:                 -2813.1157 -497.4122 -433.4538 -118.6988  -99.6094  -77.7949  -77.7949  -26.5475  -20.7622  -20.1542
                                      -12.0146  -12.0143   -4.2055   -2.9506   -2.9458   -2.4703 -433.4536  -99.6089  -77.7918  -20.1532
                                      -12.0067   -2.9507   -2.9451   -2.4696 -433.4536  -99.6089  -77.7918  -20.1532  -12.0067   -2.9507
                                       -2.9451   -2.4696  -77.7916  -12.0062   -2.9386
 
  RCCSD core-core energy               -2.550204039923
  RCCSD core-valence energy            -0.342196007679
  RCCSD valence correlation energy     -0.454121829136
 

 RESULTS
 =======

  Reference energy                   -17901.7896469825    
  RCCSD singles energy                 -0.014811850989
  RCCSD pair energy                    -3.331710025749
  RCCSD correlation energy             -3.346521876738
  Triples (T) contribution             -0.065103241828
  Total correlation energy             -3.411625118566
 
  RHF-RCCSD energy                   -17905.1361688592    
  RHF-RCCSD[T] energy                -17905.2182485305    
  RHF-RCCSD-T energy                 -17905.1933803017    
 !RHF-RCCSD(T) energy                -17905.2012721010    

 Program statistics:

 Available memory in ccsd:              1023983250
 Min. memory needed in ccsd:             309767037
 Max. memory used in ccsd:               457748249
 Max. memory used in cckext:             375266105 (16 integral passes)
 Max. memory used in cckint:             144583568 ( 1 integral passes)



 **********************************************************************************************************************************
 DATASETS  * FILE   NREC   LENGTH (MB)   RECORD NAMES
              1      23       23.93       500      610      700      900      950      970     1000      129      960     1700   
                                          VAR    BASINP    GEOM    SYMINP    ZMAT    AOBASIS   BASIS     P2S    ABASIS    OPER   
                                         1101     1401     1411     1412     1650     1100     1400     1410     1200     1210   
                                          SR      EKINR    POTR     PVPR    MOLCAS      S      EKIN      POT      H0       H01  
                                         1080     1600     1800   
                                         AOSYM     SMH     GRID   

              2       6        9.38       700     1000      520     1800     2100     2101   
                                         GEOM     BASIS   MCVARS    GRID      RKS      RHF  

 PROGRAMS   *        TOTAL  RCCSD(T)       RHF       RKS       INT
 CPU TIMES  *     15793.13  15594.04      9.52     15.50    173.70
 REAL TIME  *     17625.08 SEC
 DISK USED  *       168.93 GB      
 SF USED    *        30.87 GB      
 GA USED    *         0.23 MB       (max)       0.23 MB       (current)
 **********************************************************************************************************************************
 SETTING CCSD(1)        =    -17905.20127210  AU                              
 Output type csv         
                                                                                                                                                                                                                                                                

     Z,PBE  ,SCF  ,CCSD
   2.187,   -17907.50651,   -17901.78965,   -17905.20127
                                                  

 RCCSD(T)/USERDEF energy= -17905.201272101021

        RCCSD(T)        RHF-SCF         RKS-SCF 
 -17905.20127210 -17901.78964698 -17907.50651260
 **********************************************************************************************************************************
 Molpro calculation terminated
 Variable memory released
