
 Primary working directories    : /global/cscratch1/sd/mcbennet
 Secondary working directories  : /global/cscratch1/sd/mcbennet
 Wavefunction directory         : /global/homes/m/mcbennet/wfu/
 Main file repository           : /global/cscratch1/sd/mcbennet/

 SHA1      : 19cd028119e0e09f93f0674bd8af7968d9b3eff6
 NAME      : 2015.1.36
 ARCHNAME  : linux/x86_64
 FC        : /opt/cray/pe/craype/2.5.14/bin/ftn
 BLASLIB   : -L/opt/intel/compilers_and_libraries_2018.1.163/linux/mkl/lib/intel64 -Wl,-_start-group -lmkl_intel_ilp64 -lmkl_intel_thread -lmkl_core -Wl,-_end-group -liomp5
 id        : lbl

 Nodes     nprocs
 nid00918    11
 Number of processes for MPI-2 version of Molpro:   nprocs(total)=   12   nprocs(compute)=   11   nprocs(helper)=    1

 Using customized tuning parameters: mindgm=7; mindgv=16; mindgc=1; mindgr=1; noblas=0; minvec=7
 default implementation of scratch files=sf  

 ***,Calculation for all-electron AgO molecule, SCF and CCSD(T)
 memory,1,g
 gthresh,twoint=1.0E-12
 
 set,dkroll=1,dkho=10,dkhp=4
 
                                                                                 !These are the wf cards parameters
 ne = 53
 symm = 2
 ss= 1
 
                                                                                 !There are irrep cards paramters
 A1=13
 B1=6
 B2=6
 A2=2
 
 basis={
 Including file /global/cscratch1/sd/mcbennet/Repos/Heavy_PPs/Te/01_SRL/01_All_Electron/01_DKH/molpro/molecules/teh/aug-cc-pwcvqz-dk3_unc_mod/r_1.40/Te.aug-cc-pwcvqz-dk3.1.unc.mod.mpro
 Including file /global/cscratch1/sd/mcbennet/Repos/Heavy_PPs/Te/01_SRL/01_All_Electron/01_DKH/molpro/molecules/teh/aug-cc-pwcvqz-dk3_unc_mod/r_1.40/H.aug-cc-pVQZ-DK.mpro
 }
 
 geometry={
     2
     TeH molecule
     Te 0.0 0.0 0.0
     H 0.0 0.0 1.40
 }
 {rhf
  wf,ne,symm,ss
  start,5202.2
  occ,A1,B1,B2,A2
  closed,A1,B1-1,B2,A2
  print,orbitals=2
 }
 scf=energy
 _CC_NORM_MAX=2.0
 {rccsd(t);maxit,100;core}
 ccsd=energy
 
 
                                                                                 !table,1.80,scf,ccsd
                                                                                 !save
                                                                                 !type,csv
 

 Variables initialized (889), CPU time= 0.01 sec
 Commands  initialized (702), CPU time= 0.01 sec, 572 directives.
 Default parameters read. Elapsed time= 0.17 sec

 Checking input...
 Passed
1


                                         ***  PROGRAM SYSTEM MOLPRO  ***
                                       Copyright, TTI GmbH Stuttgart, 2015
                                    Version 2015.1 linked Dec 29 2018 15:55:43


 **********************************************************************************************************************************
 LABEL *   Calculation for all-electron AgO molecule, SCF and CCSD(T)                    
  64 bit mpp version                                                                     DATE: 27-Sep-21          TIME: 16:31:10  
 **********************************************************************************************************************************

 SHA1:             19cd028119e0e09f93f0674bd8af7968d9b3eff6
 **********************************************************************************************************************************

 THRESHOLDS:

 ZERO    =  1.00D-12  ONEINT  =  1.00D-12  TWOINT  =  1.00D-12  PREFAC  =  1.00D-14  LOCALI  =  1.00D-09  EORDER  =  1.00D-04
 ENERGY  =  0.00D+00  ETEST   =  0.00D+00  EDENS   =  0.00D+00  THRDEDEF=  1.00D-06  GRADIENT=  1.00D-02  STEP    =  1.00D-03
 ORBITAL =  1.00D-05  CIVEC   =  1.00D-05  COEFF   =  1.00D-04  PRINTCI =  5.00D-02  PUNCHCI =  9.90D+01  OPTGRAD =  3.00D-04
 OPTENERG=  1.00D-06  OPTSTEP =  3.00D-04  THRGRAD =  1.00D-10  COMPRESS=  1.00D-11  VARMIN  =  1.00D-07  VARMAX  =  1.00D-03
 THRDOUB =  0.00D+00  THRDIV  =  1.00D-05  THRRED  =  1.00D-07  THRPSP  =  1.00D+00  THRDC   =  1.00D-10  THRCS   =  1.00D-10
 THRNRM  =  1.00D-08  THREQ   =  0.00D+00  THRDE   =  1.00D+00  THRREF  =  1.00D-05  SPARFAC =  1.00D+00  THRDLP  =  1.00D-07
 THRDIA  =  1.00D-10  THRDLS  =  1.00D-07  THRGPS  =  0.00D+00  THRKEX  =  0.00D+00  THRDIS  =  2.00D-01  THRVAR  =  1.00D-10
 THRLOC  =  1.00D-06  THRGAP  =  1.00D-06  THRLOCT = -1.00D+00  THRGAPT = -1.00D+00  THRORB  =  1.00D-06  THRMLTP =  0.00D+00
 THRCPQCI=  1.00D-10  KEXTA   =  0.00D+00  THRCOARS=  0.00D+00  SYMTOL  =  1.00D-06  GRADTOL =  1.00D-06  THROVL  =  1.00D-08
 THRORTH =  1.00D-08  GRID    =  1.00D-06  GRIDMAX =  1.00D-03  DTMAX   =  0.00D+00  THROCCDE=  1.00D-01  THROCCDE=  1.00D-01


 SETTING DKROLL         =         1.00000000                                  
 SETTING DKHO           =        10.00000000                                  
 SETTING DKHP           =         4.00000000                                  
 SETTING NE             =        53.00000000                                  
 SETTING SYMM           =         2.00000000                                  
 SETTING SS             =         1.00000000                                  
 SETTING A1             =        13.00000000                                  
 SETTING B1             =         6.00000000                                  
 SETTING B2             =         6.00000000                                  
 SETTING A2             =         2.00000000                                  

 Variable memory set to 1000000000 words,  buffer space   230000 words

 SETTING BASIS          =    USERDEF

Geometry recognized as XYZ



 Recomputing integrals since basis changed


 Using spherical harmonics



 PROGRAM * SEWARD (Integral evaluation for generally contracted gaussian basis sets)     Author: Roland Lindh, 1990

 Geometry written to block  1 of record 700


 Point group  C2v 



 ATOMIC COORDINATES

 NR  ATOM    CHARGE       X              Y              Z

   1  TE     52.00    0.000000000    0.000000000    0.000000000
   2  H       1.00    0.000000000    0.000000000    2.645616574

 Bond lengths in Bohr (Angstrom)

 1-2  2.645616574
     ( 1.400000000)

 NUCLEAR CHARGE:                   53
 NUMBER OF PRIMITIVE AOS:         419
 NUMBER OF SYMMETRY AOS:          339
 NUMBER OF CONTRACTIONS:          337   ( 141A1  +  78B1  +  78B2  +  40A2  )
 NUMBER OF CORE ORBITALS:          23   (  11A1  +   5B1  +   5B2  +   2A2  )
 NUMBER OF VALENCE ORBITALS:        5   (   3A1  +   1B1  +   1B2  +   0A2  )


 NUCLEAR REPULSION ENERGY   19.65515355

 One-electron integrals computed with SEWARD

 10nd-order Douglas-Kroll-Hess method activated. McWeeny DKH parametrization is used.

 Computing Douglas-Kroll / X2C integrals

 AO integral compression algorithm  1   Integral accuracy      1.0D-12

     1095.762 MB (compressed) written to integral file ( 31.1%)

     Node minimum: 67.633 MB, node maximum: 161.481 MB


 NUMBER OF SORTED TWO-ELECTRON INTEGRALS:   37822782.     BUFFER LENGTH:  32768
 NUMBER OF SEGMENTS:   2  SEGMENT LENGTH:   31982844      RECORD LENGTH: 524288

 Memory used in sort:      32.54 MW

 SORT1 READ   439627737. AND WROTE    15374024. INTEGRALS IN     45 RECORDS. CPU TIME:     6.89 SEC, REAL TIME:     8.46 SEC
 SORT2 READ   167311100. AND WROTE   416215207. INTEGRALS IN   4015 RECORDS. CPU TIME:     0.45 SEC, REAL TIME:     1.96 SEC

 Node minimum:    37783612.  Node maximum:    37942158. integrals

 OPERATOR DM      FOR CENTER  0  COORDINATES:    0.000000    0.000000    0.000000

 EXTRA SYMMETRY OF AOS IN SYMMETRY 1:   1 1 1 1 1 1 1 1 1 1   1 1 1 1 1 1 1 1 1 1   1 1 1 1 1 1 1 1 1 1   1 1 1 1 1 1 1 1 1 1
                                        1 1 1 1 1 1 1 1 1 1   1 1 1 1 1 1 1 1 1 1   1 1 1 1 1 1 1 1 1 1   1 1 1 1 1 1 1 1 1 1
                                        1 1 1 1 1 1 1 1 1 1   1 1 1 1 1 1 1 1 1 1   1 1 1 1 1 1 1 1 2 1   1 2 1 1 2 1 1 2 1 1
                                        2 1 1 1 1 1 1 1 1 1   1 1 1 1 1 1 1 1 1 1   1
 EXTRA SYMMETRY OF AOS IN SYMMETRY 2:   1 1 1 1 1 1 1 1 1 1   1 1 1 1 1 1 1 1 1 1   1 1 1 1 1 1 1 1 1 1   1 1 1 1 1 1 1 1 1 1
                                        1 1 1 1 1 2 1 2 1 2   1 2 1 2 1 2 1 2 1 2   1 2 1 2 1 2 3 1 1 1   1 1 1 1 1 2 1 2
 EXTRA SYMMETRY OF AOS IN SYMMETRY 3:   1 1 1 1 1 1 1 1 1 1   1 1 1 1 1 1 1 1 1 1   1 1 1 1 1 1 1 1 1 1   1 1 1 1 1 1 1 1 1 1
                                        1 1 1 1 1 2 1 2 1 2   1 2 1 2 1 2 1 2 1 2   1 2 1 2 1 2 3 1 1 1   1 1 1 1 1 2 1 2
 EXTRA SYMMETRY OF AOS IN SYMMETRY 4:   1 1 1 1 1 1 1 1 1 1   1 1 1 1 1 1 1 1 1 1   1 1 1 1 1 1 2 1 2 1   2 1 2 2 1 1 1 1 1 1

 Eigenvalues of metric

         1 0.113E-04 0.201E-04 0.572E-04 0.123E-03 0.129E-03 0.192E-03 0.201E-03 0.313E-03
         2 0.196E-03 0.593E-03 0.764E-03 0.179E-02 0.198E-02 0.215E-02 0.405E-02 0.462E-02
         3 0.196E-03 0.593E-03 0.764E-03 0.179E-02 0.198E-02 0.215E-02 0.405E-02 0.462E-02
         4 0.601E-03 0.214E-02 0.470E-02 0.906E-02 0.184E-01 0.224E-01 0.380E-01 0.599E-01


 **********************************************************************************************************************************
 DATASETS  * FILE   NREC   LENGTH (MB)   RECORD NAMES
              1      22       22.24       500      610      700      900      950      970     1000      129      960     1700   
                                          VAR    BASINP    GEOM    SYMINP    ZMAT    AOBASIS   BASIS     P2S    ABASIS    OPER   
                                         1101     1401     1411     1412     1650     1100     1400     1410     1200     1210   
                                          SR      EKINR    POTR     PVPR    MOLCAS      S      EKIN      POT      H0       H01  
                                         1080     1600   
                                         AOSYM     SMH  

 PROGRAMS   *        TOTAL       INT
 CPU TIMES  *        50.10     49.73
 REAL TIME  *        54.67 SEC
 DISK USED  *         3.08 GB      
 GA USED    *         0.00 MB       (max)       0.00 MB       (current)
 **********************************************************************************************************************************


 PROGRAM * RHF-SCF (OPEN SHELL)       Authors: W. Meyer, H.-J. Werner


 NUMBER OF ELECTRONS:      27+   26-    SPACE SYMMETRY=2    SPIN SYMMETRY: Doublet 
 CONVERGENCE THRESHOLDS:    1.00E-05 (Density)    1.06E-07 (Energy)
 MAX. NUMBER OF ITERATIONS:       60
 INTERPOLATION TYPE:            DIIS
 INTERPOLATION STEPS:              2 (START)      1 (STEP)
 LEVEL SHIFTS:                 -0.60 (CLOSED) -0.30 (OPEN) 

 Number of closed-shell orbitals:   26 (  13   5   6   2 )
 Number of open-shell orbitals:      1 (   0   1   0   0 )


 Orbital guess generated from atomic densities. Full valence occupancy:   14   6   6   2

 Molecular orbital dump at record        2100.2

 ITERATION    DDIFF          GRAD             ENERGY        2-EL.EN.            DIPOLE MOMENTS         DIIS   ORB.
    1      0.000D+00      0.000D+00     -6538.25994660   7223.378425    0.00000    0.00000    2.64229    0    start
    2      0.000D+00      0.107D+01     -6447.11898036   2761.141685    0.00000    0.00000  -14.39549    1    diag,B
    3      0.127D+02      0.727D+00     -6739.70061270   5999.788183    0.00000    0.00000    2.65665    2    diag,B
    4      0.127D+02      0.291D+00     -6786.52150571   4835.110681    0.00000    0.00000   -4.07941    3    diag,B
    5      0.488D-01      0.746D-01     -6791.42996188   5084.925576    0.00000    0.00000   -0.73298    4    diag,B
    6      0.285D-01      0.135D-01     -6791.55513135   5108.325286    0.00000    0.00000   -0.10418    5    diag,B
    7      0.784D-02      0.584D-02     -6791.58329793   5097.213022    0.00000    0.00000    0.07833    6    fixocc
    8      0.270D-02      0.112D-02     -6791.58732785   5096.235096    0.00000    0.00000    0.11515    7    diag,B
    9      0.137D-02      0.509D-03     -6791.58907530   5097.286846    0.00000    0.00000    0.16697    8    diag,B
   10      0.891D-03      0.250D-03     -6791.58985293   5097.974135    0.00000    0.00000    0.19769    9    orth
   11      0.661D-03      0.913D-04     -6791.58997398   5098.055239    0.00000    0.00000    0.19751    9    diag,B
   12      0.325D-03      0.339D-04     -6791.58999008   5098.058027    0.00000    0.00000    0.19524    9    diag,B
   13      0.149D-03      0.119D-04     -6791.58999195   5098.068549    0.00000    0.00000    0.19546    9    diag,B
   14      0.348D-04      0.454D-05     -6791.58999221   5098.069172    0.00000    0.00000    0.19608    9    diag,B
   15      0.311D-04      0.143D-05     -6791.58999223   5098.069353    0.00000    0.00000    0.19637    9    diag,B
   16      0.805D-05      0.457D-06     -6791.58999223   5098.069367    0.00000    0.00000    0.19643    0    orth

 Final alpha occupancy:  13   6   6   2
 Final beta  occupancy:  13   5   6   2

 !RHF STATE 1.2 Energy              -6791.589992234027
 Nuclear energy                        19.65515355
 One-electron energy                -9360.27982918
 Two-electron energy                 2549.03468339
 Virial quotient                       -0.85506316
 !RHF STATE 1.2 Dipole moment           0.00000000     0.00000000     0.19643048
 Dipole moment /Debye                   0.00000000     0.00000000     0.49924377

 ELECTRON ORBITALS
 =================


   Orb  Occ    Energy  Couls-En    Coefficients

                                   1 1s      1 1s      1 1s      1 1s      1 1s      1 1s      1 1s      1 1s      1 1s      1 1s   
                                   1 1s      1 1s      1 1s      1 1s      1 1s      1 1s      1 1s      1 1s      1 1s      1 1s   
                                   1 1s      1 1s      1 1s      1 1s      1 1s      1 1s      1 1s      1 1s      1 1s      1 1s   
                                   1 1s      1 1s      1 2pz     1 2pz     1 2pz     1 2pz     1 2pz     1 2pz     1 2pz     1 2pz  
                                   1 2pz     1 2pz     1 2pz     1 2pz     1 2pz     1 2pz     1 2pz     1 2pz     1 2pz     1 2pz  
                                   1 2pz     1 2pz     1 2pz     1 2pz     1 2pz     1 2pz     1 2pz     1 3d0     1 3d2+    1 3d0  
                                   1 3d2+    1 3d0     1 3d2+    1 3d0     1 3d2+    1 3d0     1 3d2+    1 3d0     1 3d2+    1 3d0  
                                   1 3d2+    1 3d0     1 3d2+    1 3d0     1 3d2+    1 3d0     1 3d2+    1 3d0     1 3d2+    1 3d0  
                                   1 3d2+    1 3d0     1 3d2+    1 3d0     1 3d2+    1 3d0     1 3d2+    1 3d0     1 3d2+    1 3d0  
                                   1 3d2+    1 3d0     1 3d2+    1 3d0     1 3d2+    1 4f0     1 4f2+    1 4f0     1 4f2+    1 4f0  
                                   1 4f2+    1 4f0     1 4f2+    1 4f0     1 4f2+    1 4f0     1 4f2+    1 5g0     1 5g4+    1 5g2+ 
                                   1 5g0     1 5g4+    1 5g2+    1 5g0     1 5g4+    1 5g2+    1 5g0     1 5g4+    1 5g2+    1 6h2+ 
                                   1 6h4+    1 6h0     2 1s      2 1s      2 1s      2 1s      2 1s      2 2pz     2 2pz     2 2pz  
                                   2 2pz     2 3d0     2 3d2+    2 3d0     2 3d2+    2 3d0     2 3d2+    2 4f0     2 4f2+    2 4f0  
                                   2 4f2+ 

   1.1   2 -1174.9457-2579.6282  0.000038  0.000101  0.000255  0.000513  0.000948  0.001629  0.002768  0.004698  0.008178  0.014624
                                 0.027015  0.051026  0.096349  0.172240  0.264453  0.295895  0.189249  0.048777  0.003735 -0.000135
                                 0.000312 -0.000322  0.000158 -0.000094  0.000054 -0.000027  0.000020 -0.000015  0.000006  0.000000
                                 0.000002  0.000000  0.000000  0.000000  0.000000  0.000000  0.000000  0.000000  0.000000  0.000000
                                 0.000000  0.000001 -0.000000 -0.000000 -0.000000  0.000000 -0.000000  0.000000 -0.000000  0.000000
                                -0.000001  0.000001 -0.000001  0.000003  0.000000  0.000001  0.000000  0.000000  0.000000  0.000000
                                 0.000000  0.000000  0.000000  0.000000  0.000000  0.000000 -0.000000  0.000000  0.000000 -0.000000
                                 0.000000  0.000000  0.000000 -0.000000  0.000000  0.000000 -0.000000 -0.000000 -0.000000  0.000000
                                -0.000000 -0.000001  0.000000  0.000001  0.000000 -0.000000  0.000000  0.000000  0.000000  0.000001
                                 0.000000 -0.000000  0.000000  0.000000 -0.000000  0.000000 -0.000000 -0.000000 -0.000000  0.000000
                                 0.000000 -0.000000 -0.000000  0.000000  0.000000  0.000000 -0.000000 -0.000000 -0.000000  0.000000
                                 0.000000 -0.000000  0.000000 -0.000000 -0.000000  0.000000  0.000000  0.000000  0.000000  0.000000
                                -0.000000  0.000000  0.000000  0.000000 -0.000002 -0.000002 -0.000002 -0.000000  0.000000  0.000000
                                 0.000000 -0.000000  0.000000 -0.000000  0.000000  0.000000  0.000000  0.000000 -0.000000  0.000000
                                -0.000000

   2.1   2  -183.7448 -535.9216 -0.000013 -0.000035 -0.000088 -0.000178 -0.000328 -0.000566 -0.000964 -0.001643 -0.002878 -0.005194
                                -0.009735 -0.018823 -0.037012 -0.071093 -0.124484 -0.173117 -0.132618  0.093712  0.406805  0.440608
                                 0.199628  0.034348  0.002080  0.000178 -0.000245 -0.000006 -0.000033  0.000025 -0.000009 -0.000000
                                -0.000003 -0.000001  0.000000  0.000000  0.000000  0.000000  0.000000  0.000000  0.000000  0.000000
                                -0.000000  0.000000  0.000002  0.000002  0.000003  0.000003  0.000000 -0.000000  0.000000 -0.000001
                                 0.000001 -0.000001  0.000001 -0.000004 -0.000001 -0.000001 -0.000000 -0.000000 -0.000000 -0.000000
                                -0.000000 -0.000000 -0.000000 -0.000000  0.000000 -0.000000  0.000000 -0.000000  0.000002 -0.000001
                                 0.000006 -0.000000  0.000002  0.000000 -0.000000 -0.000000  0.000001  0.000000  0.000001 -0.000001
                                 0.000001  0.000001 -0.000000 -0.000001 -0.000000  0.000000 -0.000000 -0.000001 -0.000000 -0.000002
                                -0.000000  0.000000 -0.000000 -0.000000  0.000000 -0.000001  0.000000 -0.000000  0.000000 -0.000000
                                -0.000000  0.000000 -0.000000 -0.000001 -0.000000 -0.000000  0.000000  0.000000  0.000000 -0.000000
                                -0.000000  0.000000 -0.000000  0.000000  0.000000 -0.000000 -0.000000 -0.000000  0.000000 -0.000000
                                 0.000000 -0.000000  0.000001 -0.000000  0.000004  0.000003  0.000003  0.000000 -0.000000 -0.000001
                                -0.000000  0.000000 -0.000000  0.000000 -0.000000 -0.000000 -0.000000 -0.000000  0.000000 -0.000000
                                -0.000000

   3.1   2  -164.7872 -507.1148  0.000000  0.000000  0.000000  0.000000  0.000000  0.000000  0.000000  0.000000  0.000000  0.000000
                                 0.000000  0.000000  0.000000  0.000001  0.000001  0.000002  0.000001 -0.000001 -0.000010 -0.000006
                                 0.000002  0.000006 -0.000001 -0.000000 -0.000003  0.000001  0.000003 -0.000018  0.000041  0.000015
                                 0.000000 -0.000000  0.000007  0.000025  0.000082  0.000250  0.000751  0.002256  0.006793  0.019897
                                 0.054256  0.128815  0.244438  0.333600  0.273263  0.109672  0.016980  0.000815  0.000062 -0.000147
                                 0.000007 -0.000031  0.000024  0.000024  0.000003 -0.000000  0.000000 -0.000000  0.000000 -0.000000
                                 0.000000 -0.000000  0.000000  0.000000  0.000000  0.000000  0.000000 -0.000001  0.000000 -0.000003
                                 0.000000  0.000001 -0.000000  0.000001 -0.000000 -0.000001  0.000000 -0.000001  0.000000 -0.000001
                                 0.000000 -0.000000 -0.000000  0.000001 -0.000000 -0.000002 -0.000000  0.000017 -0.000000  0.000004
                                 0.000000  0.000001 -0.000000 -0.000000  0.000000 -0.000000  0.000001  0.000000 -0.000001 -0.000000
                                 0.000000  0.000001 -0.000000  0.000007  0.000000  0.000000 -0.000000 -0.000000  0.000000  0.000000
                                 0.000000  0.000000  0.000000  0.000000  0.000000 -0.000000  0.000002 -0.000000  0.000000 -0.000000
                                 0.000000 -0.000000 -0.000002  0.000002 -0.000041 -0.000017 -0.000000 -0.000000  0.000000  0.000013
                                 0.000003  0.000000 -0.000000  0.000000  0.000000  0.000001 -0.000000  0.000000 -0.000000 -0.000001
                                -0.000000

   4.1   2   -38.0930 -185.6703  0.000006  0.000016  0.000039  0.000079  0.000146  0.000252  0.000430  0.000733  0.001286  0.002324
                                 0.004363  0.008470  0.016745  0.032544  0.058123  0.083999  0.067232 -0.060142 -0.315077 -0.449719
                                -0.199303  0.378030  0.694627  0.292613  0.023240  0.002139 -0.000346  0.000328 -0.000191 -0.000027
                                -0.000058 -0.000014  0.000000  0.000000  0.000000  0.000000  0.000000  0.000000  0.000001  0.000002
                                 0.000004  0.000011  0.000021  0.000030  0.000025 -0.000040 -0.000070 -0.000071  0.000006  0.000011
                                 0.000038 -0.000050  0.000041 -0.000085 -0.000017 -0.000019 -0.000000  0.000000  0.000000  0.000000
                                 0.000000  0.000000  0.000000  0.000000  0.000001  0.000000  0.000002  0.000001  0.000006  0.000005
                                 0.000011  0.000003  0.000026  0.000008  0.000034 -0.000011  0.000097  0.000012  0.000047 -0.000014
                                -0.000006  0.000023  0.000006 -0.000028  0.000007  0.000009  0.000006 -0.000002  0.000002 -0.000043
                                 0.000001  0.000010  0.000000 -0.000010  0.000000 -0.000032  0.000001  0.000031 -0.000001 -0.000023
                                 0.000001  0.000009 -0.000000 -0.000016  0.000000 -0.000005 -0.000000  0.000000 -0.000000  0.000000
                                -0.000005 -0.000000  0.000000  0.000003 -0.000000  0.000000 -0.000007 -0.000000  0.000000  0.000000
                                -0.000000 -0.000001 -0.000034 -0.000012  0.000088  0.000088  0.000058  0.000005 -0.000004 -0.000009
                                -0.000012  0.000001  0.000000  0.000010  0.000000 -0.000006  0.000000 -0.000005 -0.000000 -0.000003
                                -0.000000

   5.1   2   -31.7660 -174.4867  0.000000  0.000000  0.000000  0.000000  0.000000  0.000000  0.000000  0.000000  0.000000  0.000000
                                 0.000000  0.000001  0.000002  0.000003  0.000005  0.000007  0.000006 -0.000007 -0.000022 -0.000026
                                -0.000029 -0.000021  0.000080  0.000003  0.000113  0.000003 -0.000031  0.000140 -0.000241 -0.000076
                                 0.000002  0.000002 -0.000003 -0.000012 -0.000038 -0.000117 -0.000352 -0.001063 -0.003214 -0.009529
                                -0.026455 -0.065081 -0.129143 -0.186302 -0.121372  0.129718  0.426323  0.427913  0.146437  0.014273
                                 0.000660  0.000271 -0.000153 -0.000138 -0.000013  0.000003 -0.000000  0.000000  0.000000  0.000000
                                 0.000000  0.000000  0.000000  0.000000  0.000000  0.000002  0.000000  0.000007  0.000000  0.000019
                                 0.000000  0.000024  0.000000  0.000031  0.000000 -0.000024  0.000002 -0.000039  0.000001  0.000031
                                -0.000001  0.000001 -0.000000 -0.000003  0.000001  0.000022  0.000000 -0.000107 -0.000001 -0.000020
                                 0.000001 -0.000006 -0.000000  0.000002  0.000000  0.000004  0.000067  0.000003 -0.000025  0.000002
                                 0.000022  0.000002 -0.000009 -0.000046  0.000005 -0.000000 -0.000001 -0.000008 -0.000000  0.000000
                                 0.000004 -0.000000  0.000000 -0.000005 -0.000000 -0.000001 -0.000009 -0.000000  0.000000  0.000000
                                -0.000000 -0.000000  0.000014 -0.000016  0.000221  0.000089 -0.000004 -0.000001  0.000010 -0.000060
                                -0.000017 -0.000001 -0.000000 -0.000010  0.000001 -0.000010 -0.000000  0.000002 -0.000000  0.000009
                                -0.000001

   6.1   2   -22.1736 -159.7485  0.000000  0.000000  0.000000  0.000000  0.000000  0.000000  0.000000  0.000000  0.000000  0.000000
                                 0.000001  0.000001  0.000003  0.000006  0.000010  0.000015  0.000012 -0.000011 -0.000062 -0.000089
                                -0.000049  0.000172  0.000153 -0.000102  0.000051 -0.000076  0.000075 -0.000090  0.000054  0.000130
                                -0.000036 -0.000018 -0.000000 -0.000000 -0.000000 -0.000000 -0.000000 -0.000000 -0.000000 -0.000000
                                -0.000001 -0.000003 -0.000005 -0.000008  0.000002  0.000018  0.000051 -0.000038 -0.000081  0.000041
                                -0.000009  0.000034 -0.000025  0.000116  0.000034 -0.000022  0.000000  0.000014 -0.000015  0.000111
                                -0.000115  0.000680 -0.000707  0.003231 -0.003356  0.012308 -0.012785  0.037070 -0.038506  0.089867
                                -0.093349  0.163173 -0.169492  0.217745 -0.226183  0.200183 -0.207932  0.104750 -0.108817  0.025864
                                -0.026844  0.001584 -0.001671  0.000324 -0.000305 -0.000149  0.000136  0.000101 -0.000068 -0.000017
                                 0.000053  0.000041 -0.000026 -0.000013  0.000007 -0.000020 -0.000015  0.000026 -0.000002 -0.000000
                                -0.000008 -0.000004  0.000003  0.000017 -0.000001  0.000011 -0.000000 -0.000004 -0.000032  0.000019
                                 0.000003  0.000006 -0.000004 -0.000005 -0.000004  0.000004  0.000009  0.000002 -0.000002  0.000001
                                -0.000000 -0.000001 -0.000004  0.000005 -0.000116 -0.000115  0.000053 -0.000002  0.000003  0.000023
                                 0.000001 -0.000003  0.000000 -0.000007 -0.000001  0.000009  0.000000  0.000005  0.000000  0.000001
                                 0.000002

   7.1   2   -22.1693 -159.7475 -0.000000 -0.000000 -0.000000 -0.000000 -0.000000 -0.000000 -0.000000 -0.000000 -0.000000 -0.000000
                                -0.000001 -0.000001 -0.000003 -0.000005 -0.000009 -0.000013 -0.000010  0.000007  0.000057  0.000065
                                 0.000067 -0.000154 -0.000083 -0.000014  0.000020 -0.000039  0.000095 -0.000079  0.000044  0.000123
                                -0.000039 -0.000020 -0.000000 -0.000000 -0.000000 -0.000000 -0.000000 -0.000000 -0.000000 -0.000000
                                -0.000001 -0.000002 -0.000005 -0.000007  0.000002  0.000017  0.000050 -0.000040 -0.000081  0.000038
                                -0.000004  0.000030 -0.000039  0.000105  0.000031 -0.000023  0.000000  0.000015  0.000014  0.000115
                                 0.000111  0.000707  0.000680  0.003356  0.003231  0.012786  0.012309  0.038509  0.037073  0.093356
                                 0.089876  0.169506  0.163184  0.226205  0.217773  0.207913  0.200156  0.108781  0.104733  0.026868
                                 0.025848  0.001636  0.001597  0.000328  0.000286 -0.000167 -0.000138  0.000097  0.000064 -0.000023
                                -0.000053  0.000043  0.000026 -0.000014 -0.000007 -0.000023  0.000015  0.000029  0.000003 -0.000002
                                 0.000007 -0.000007 -0.000002  0.000016  0.000001  0.000011 -0.000001  0.000007  0.000031  0.000023
                                -0.000001 -0.000006 -0.000004 -0.000004  0.000004  0.000002  0.000008 -0.000002 -0.000001 -0.000001
                                 0.000000 -0.000001 -0.000012  0.000007 -0.000083 -0.000098  0.000058 -0.000000 -0.000001  0.000009
                                -0.000003 -0.000003  0.000000 -0.000003 -0.000000  0.000011  0.000001  0.000004 -0.000000  0.000001
                                -0.000000

   8.1   2    -7.0986  -77.1228 -0.000003 -0.000007 -0.000018 -0.000035 -0.000065 -0.000112 -0.000192 -0.000327 -0.000573 -0.001037
                                -0.001948 -0.003783 -0.007491 -0.014588 -0.026179 -0.038106 -0.030885  0.028968  0.158131  0.240420
                                 0.111616 -0.260990 -0.758323 -0.304917  0.693979  0.692773  0.111037 -0.014158  0.003643 -0.001946
                                 0.001145  0.000192  0.000000  0.000000  0.000000  0.000000  0.000000  0.000001  0.000003  0.000010
                                 0.000028  0.000070  0.000138  0.000206  0.000113 -0.000168 -0.000655 -0.000591 -0.000135  0.000719
                                 0.002332  0.000569 -0.000795 -0.000347 -0.000212  0.000412 -0.000016 -0.000000 -0.000000 -0.000000
                                -0.000000 -0.000000 -0.000000 -0.000001 -0.000002 -0.000003 -0.000009 -0.000010 -0.000028 -0.000025
                                -0.000061 -0.000044 -0.000129 -0.000056 -0.000127 -0.000037 -0.000183  0.000031  0.000065  0.000173
                                 0.000075  0.000114  0.000787  0.000197  0.000827 -0.000127 -0.000082 -0.000387 -0.000020  0.000129
                                -0.000029 -0.000247  0.000007  0.000165 -0.000003  0.000022  0.000000  0.000031 -0.000000 -0.000132
                                 0.000018 -0.000099  0.000001 -0.000038 -0.000001 -0.000019  0.000000 -0.000019 -0.000000  0.000004
                                 0.000001 -0.000000  0.000008  0.000007  0.000001 -0.000005  0.000000 -0.000000  0.000000 -0.000000
                                 0.000000  0.000018  0.001549  0.000026  0.000280  0.000331 -0.000982 -0.000067 -0.000295 -0.000626
                                -0.000165  0.000084  0.000000  0.000158  0.000000  0.000100 -0.000001 -0.000080 -0.000000  0.000022
                                -0.000000

   9.1   2    -5.0456  -70.4680 -0.000000 -0.000000 -0.000000 -0.000000 -0.000000 -0.000000 -0.000001 -0.000001 -0.000002 -0.000004
                                -0.000008 -0.000016 -0.000032 -0.000062 -0.000111 -0.000164 -0.000126  0.000110  0.000716  0.000978
                                 0.000617 -0.001422 -0.003257 -0.001875  0.005847  0.001837 -0.003157  0.000807  0.005836  0.000514
                                 0.000101  0.000092 -0.000001 -0.000005 -0.000017 -0.000050 -0.000152 -0.000458 -0.001387 -0.004122
                                -0.011479 -0.028459 -0.056959 -0.083397 -0.049777  0.084062  0.273476  0.306865 -0.117920 -0.550420
                                -0.439810 -0.096709  0.000851  0.001610 -0.000108  0.000085  0.000000  0.000000 -0.000000  0.000000
                                -0.000000  0.000002 -0.000000  0.000007 -0.000000  0.000028 -0.000000  0.000088 -0.000000  0.000216
                                -0.000000  0.000388 -0.000001  0.000502 -0.000001  0.000338 -0.000001 -0.000353  0.000001 -0.001044
                                 0.000006 -0.001788  0.000007 -0.001162 -0.000020  0.000698 -0.000005  0.002280 -0.000003  0.000392
                                -0.000001 -0.000141 -0.000000  0.000036  0.000000  0.000006 -0.000123  0.000061 -0.000323 -0.000193
                                -0.000753  0.000155 -0.000046  0.000889  0.000052 -0.000045 -0.000003  0.000063  0.000000 -0.000003
                                 0.000059 -0.000000 -0.000013  0.000074 -0.000000  0.000001  0.000155  0.000000 -0.000001 -0.000007
                                -0.000000 -0.000042 -0.008466  0.000393 -0.002614  0.001602 -0.000239  0.000334  0.001143  0.002713
                                 0.000452 -0.000287 -0.000001 -0.000575  0.000004 -0.000221  0.000006  0.000204  0.000001 -0.000032
                                -0.000005

  10.1   2    -1.9569  -58.0391 -0.000000 -0.000000 -0.000000 -0.000000 -0.000000 -0.000000 -0.000001 -0.000001 -0.000002 -0.000003
                                -0.000005 -0.000010 -0.000021 -0.000039 -0.000072 -0.000102 -0.000090  0.000093  0.000402  0.000743
                                 0.000159 -0.000468 -0.002688 -0.000340  0.001008  0.005233  0.001042 -0.003654  0.006463  0.006184
                                 0.000216  0.000402  0.000000  0.000000  0.000000  0.000000  0.000001  0.000003  0.000010  0.000029
                                 0.000079  0.000197  0.000390  0.000582  0.000331 -0.000554 -0.001959 -0.002108  0.000689  0.004425
                                 0.003919 -0.001324  0.004509  0.006927  0.001173  0.000078  0.000070  0.000007 -0.000003  0.000058
                                -0.000026  0.000355 -0.000160  0.001692 -0.000763  0.006487 -0.002924  0.019700 -0.008882  0.048524
                                -0.021872  0.087861 -0.039618  0.112921 -0.050882  0.082411 -0.037196 -0.068434  0.030920 -0.266648
                                 0.120038 -0.353982  0.159980 -0.267367  0.120578 -0.103079  0.046416 -0.012419  0.006213  0.001761
                                 0.000117 -0.000294  0.000093  0.000134 -0.000009 -0.000423  0.000126 -0.000459  0.000187 -0.002267
                                 0.000737 -0.001339  0.000407  0.000910 -0.000028  0.000246  0.000033  0.000001  0.000120 -0.000168
                                -0.000497  0.000548 -0.000723 -0.000433  0.000319 -0.000386  0.000335 -0.000070  0.000105 -0.000049
                                 0.000008 -0.000035 -0.081600  0.004345  0.020932  0.016908 -0.000889  0.001760  0.004769  0.006176
                                 0.001839 -0.000862  0.000023 -0.001787  0.000070 -0.000647 -0.000055  0.000471 -0.000029  0.000117
                                -0.000001

  11.1   2    -1.9405  -58.2305 -0.000000 -0.000000 -0.000000 -0.000000 -0.000000 -0.000001 -0.000001 -0.000002 -0.000003 -0.000006
                                -0.000010 -0.000020 -0.000040 -0.000078 -0.000140 -0.000204 -0.000164  0.000153  0.000869  0.001299
                                 0.000674 -0.001572 -0.004708 -0.001761  0.005597  0.008642 -0.005781 -0.004671  0.004803  0.003733
                                 0.000075  0.000188  0.000000  0.000000  0.000000  0.000000  0.000000  0.000001  0.000004  0.000013
                                 0.000036  0.000091  0.000180  0.000269  0.000152 -0.000254 -0.000907 -0.000967  0.000315  0.002055
                                 0.001829 -0.000765  0.002331  0.003205  0.000580  0.000017  0.000036  0.000003  0.000007  0.000026
                                 0.000058  0.000159  0.000358  0.000759  0.001705  0.002911  0.006533  0.008839  0.019846  0.021774
                                 0.048870  0.039421  0.088519  0.050675  0.113702  0.036958  0.083076 -0.030777 -0.069264 -0.119786
                                -0.268499 -0.158883 -0.357648 -0.119066 -0.267244 -0.045869 -0.103077 -0.006140 -0.015220  0.000643
                                -0.000401 -0.000169 -0.000377  0.000059  0.000043 -0.000187 -0.000273 -0.000198 -0.000405 -0.001003
                                -0.001600 -0.000532 -0.000918  0.000387  0.000132  0.000126 -0.000003 -0.000054 -0.000268 -0.000094
                                -0.000462 -0.001228 -0.000541 -0.000328 -0.000707 -0.000422  0.000162  0.000154  0.000156  0.000056
                                -0.000018 -0.000019 -0.037301  0.001930  0.009298  0.007644 -0.000385  0.000799  0.002235  0.002971
                                 0.000859 -0.000395 -0.000069 -0.000848 -0.000198 -0.000339 -0.000110  0.000214  0.000120  0.000049
                                -0.000002

  12.1   2    -0.8345  -27.8705 -0.000001 -0.000002 -0.000005 -0.000010 -0.000019 -0.000033 -0.000057 -0.000097 -0.000169 -0.000306
                                -0.000576 -0.001118 -0.002215 -0.004312 -0.007752 -0.011283 -0.009200  0.008744  0.047644  0.073798
                                 0.034267 -0.083388 -0.270420 -0.096915  0.312223  0.475284  0.125424 -0.507444 -0.468495 -0.065499
                                 0.007236  0.002495  0.000000  0.000000  0.000001  0.000004  0.000011  0.000032  0.000097  0.000289
                                 0.000808  0.001993  0.004027  0.005834  0.003570 -0.006443 -0.019890 -0.023878  0.014134  0.047549
                                 0.054825 -0.023659 -0.072092  0.005338  0.011642  0.001244  0.000616 -0.000001 -0.000000 -0.000005
                                -0.000000 -0.000029 -0.000000 -0.000140 -0.000002 -0.000535 -0.000007 -0.001633 -0.000020 -0.004005
                                -0.000048 -0.007297 -0.000091 -0.009266 -0.000104 -0.006805 -0.000093  0.006666  0.000094  0.023002
                                 0.000163  0.032172  0.000141  0.021690  0.000874 -0.009252 -0.000142 -0.001737  0.001970  0.011737
                                 0.003635  0.001446  0.001070  0.001448  0.000078 -0.001598 -0.000009 -0.001955 -0.000030 -0.005049
                                 0.000012 -0.010718 -0.000338  0.000073 -0.000013  0.002203  0.000228 -0.000123 -0.000000  0.000018
                                -0.001590 -0.000001  0.000070 -0.002854 -0.000007 -0.000045  0.001265  0.000022  0.000188 -0.000027
                                -0.000001 -0.000488 -0.542961  0.015688  0.078510  0.086871 -0.009150  0.003893  0.013909  0.026277
                                 0.009264 -0.001143  0.000011 -0.002512 -0.000307 -0.000370 -0.000398  0.000255  0.000039 -0.000262
                                 0.000168

  13.1   2    -0.4917  -24.2634 -0.000000 -0.000001 -0.000002 -0.000005 -0.000009 -0.000015 -0.000026 -0.000045 -0.000078 -0.000142
                                -0.000267 -0.000518 -0.001026 -0.001998 -0.003589 -0.005230 -0.004253  0.004030  0.022152  0.034122
                                 0.016176 -0.039288 -0.125864 -0.046277  0.150531  0.230570  0.052499 -0.213922 -0.390905 -0.233953
                                -0.013129 -0.002619 -0.000000 -0.000001 -0.000004 -0.000012 -0.000035 -0.000105 -0.000318 -0.000945
                                -0.002639 -0.006535 -0.013137 -0.019191 -0.011439  0.020694  0.066462  0.076936 -0.044928 -0.167994
                                -0.170144  0.071445  0.308526  0.214656  0.027289 -0.000578 -0.000673  0.000001  0.000000  0.000006
                                 0.000000  0.000037  0.000000  0.000178  0.000000  0.000679  0.000000  0.002070  0.000001  0.005089
                                 0.000003  0.009247  0.000006  0.011784  0.000012  0.008519  0.000004 -0.008648 -0.000007 -0.029830
                                -0.000069 -0.041414 -0.000181 -0.027704  0.000479  0.017645 -0.000080  0.016126 -0.000261  0.005462
                                 0.001314  0.001326  0.001059 -0.000392  0.000128  0.002955  0.000081  0.004027  0.000171  0.009322
                                 0.000076  0.015879  0.001767  0.002236  0.002243 -0.001348  0.000037  0.000138 -0.000000 -0.000015
                                 0.001643 -0.000001 -0.000025  0.002633 -0.000008  0.000290 -0.001741  0.000013  0.000253  0.000048
                                 0.000004  0.000468  0.646229 -0.013563 -0.024680 -0.019790  0.009899 -0.002384 -0.011840 -0.034153
                                -0.015907  0.000876 -0.000013  0.003427  0.000591  0.001762  0.001388 -0.000341 -0.000063  0.000191
                                -0.000408

  14.1   0     0.0178   -5.8755 -0.000000 -0.000000 -0.000001 -0.000001 -0.000002 -0.000004 -0.000007 -0.000011 -0.000020 -0.000035
                                -0.000067 -0.000128 -0.000258 -0.000495 -0.000905 -0.001284 -0.001116  0.001140  0.005217  0.009223
                                 0.002699 -0.007600 -0.034803 -0.007396  0.031563  0.071567 -0.021907 -0.049403  0.023704  0.742449
                                 1.254072  4.614969  0.000000  0.000000  0.000000  0.000000  0.000001  0.000003  0.000009  0.000028
                                 0.000071  0.000199  0.000343  0.000634  0.000130 -0.000167 -0.002740 -0.000727 -0.001160  0.009036
                                -0.001924  0.001747  0.019564  0.308495  0.150122  1.814279  0.449883 -0.000000  0.000000 -0.000001
                                 0.000000 -0.000001  0.000000 -0.000015  0.000000 -0.000025  0.000005 -0.000172  0.000004 -0.000173
                                 0.000039 -0.000878  0.000005  0.000022  0.000140 -0.001960 -0.000134  0.003134  0.000268 -0.002680
                                -0.000654  0.010547  0.000691 -0.014892 -0.001441  0.037335  0.001727 -0.014588 -0.006528  0.271218
                                 0.017640 -0.362149 -0.018164  0.602776  0.042321 -0.000066 -0.000006 -0.000610  0.000008  0.000150
                                -0.000035  0.002918 -0.000009  0.043070 -0.000457 -0.004215  0.001936 -0.000111 -0.000002 -0.000000
                                 0.000477  0.000008  0.000013  0.002765 -0.000058 -0.000129  0.011142  0.000302  0.000095 -0.000006
                                -0.000000  0.000341 -0.028856  0.014202 -0.255720 -0.530199 -5.642963 -0.000501  0.008572  0.082108
                                 0.307441  0.000195 -0.000008 -0.009142  0.000061 -0.016180 -0.000378  0.000603  0.000008  0.003551
                                -0.000020

  15.1   0     0.0214   -4.5303  0.000000  0.000000  0.000000  0.000000  0.000001  0.000001  0.000002  0.000004  0.000007  0.000013
                                 0.000025  0.000049  0.000098  0.000187  0.000345  0.000482  0.000436 -0.000465 -0.001900 -0.003678
                                -0.000666  0.002255  0.014199  0.001315 -0.009232 -0.032817  0.046619 -0.235638  0.324566  3.205769
                                -0.937003 -1.640912  0.000000  0.000000  0.000000  0.000001  0.000002  0.000005  0.000014  0.000041
                                 0.000117  0.000279  0.000591  0.000792  0.000606 -0.001137 -0.002466 -0.004166  0.003322  0.005239
                                 0.012580 -0.023618 -0.031051  1.148959  1.603844 -2.403939  1.843670 -0.000000  0.000000 -0.000000
                                 0.000000 -0.000004  0.000000 -0.000013  0.000001 -0.000064  0.000003 -0.000151  0.000011 -0.000488
                                 0.000020 -0.000625  0.000055 -0.001327  0.000034 -0.000029  0.000087 -0.000503 -0.000126  0.004723
                                -0.000015 -0.000377 -0.000431  0.008883  0.000164 -0.021651 -0.000246  0.221697  0.002663  0.367958
                                -0.003561  0.466574  0.005767 -0.328994 -0.011053 -0.000254 -0.000013 -0.000305  0.000017 -0.001137
                                -0.000086  0.002735  0.000072  0.129600 -0.000852  0.133668  0.002816 -0.000083  0.000000 -0.000000
                                 0.000307 -0.000000  0.000010  0.002410  0.000029 -0.000122  0.043148 -0.000029  0.000102 -0.000006
                                -0.000000  0.000215 -0.044463  0.015718 -0.731933 -3.296282  2.425524 -0.000117  0.002143  0.204875
                                 0.565961  0.000211 -0.000010 -0.005179  0.000012  0.052572 -0.000599  0.000965  0.000008 -0.016253
                                 0.000021

                                   1 2px     1 2px     1 2px     1 2px     1 2px     1 2px     1 2px     1 2px     1 2px     1 2px  
                                   1 2px     1 2px     1 2px     1 2px     1 2px     1 2px     1 2px     1 2px     1 2px     1 2px  
                                   1 2px     1 2px     1 2px     1 2px     1 2px     1 3d1+    1 3d1+    1 3d1+    1 3d1+    1 3d1+ 
                                   1 3d1+    1 3d1+    1 3d1+    1 3d1+    1 3d1+    1 3d1+    1 3d1+    1 3d1+    1 3d1+    1 3d1+ 
                                   1 3d1+    1 3d1+    1 3d1+    1 3d1+    1 4f1+    1 4f3+    1 4f1+    1 4f3+    1 4f1+    1 4f3+ 
                                   1 4f1+    1 4f3+    1 4f1+    1 4f3+    1 4f1+    1 4f3+    1 5g1+    1 5g3+    1 5g1+    1 5g3+ 
                                   1 5g1+    1 5g3+    1 5g1+    1 5g3+    1 6h1+    1 6h3+    1 6h5+    2 2px     2 2px     2 2px  
                                   2 2px     2 3d1+    2 3d1+    2 3d1+    2 4f1+    2 4f3+    2 4f1+    2 4f3+ 

   1.2   2  -164.7879 -507.1146  0.000007  0.000025  0.000082  0.000250  0.000751  0.002256  0.006793  0.019896  0.054255  0.128813
                                 0.244434  0.333598  0.273269  0.109675  0.016977  0.000820  0.000058 -0.000140 -0.000002 -0.000020
                                 0.000008 -0.000003  0.000002 -0.000001  0.000000  0.000000  0.000000  0.000000  0.000000  0.000001
                                 0.000001  0.000001 -0.000001 -0.000001  0.000000  0.000001  0.000000 -0.000000 -0.000000 -0.000001
                                 0.000001  0.000000  0.000000  0.000000 -0.000001  0.000002  0.000000 -0.000001 -0.000000  0.000001
                                 0.000000 -0.000000  0.000000  0.000000 -0.000000 -0.000000 -0.000000  0.000000  0.000000 -0.000000
                                 0.000000  0.000000  0.000000  0.000000 -0.000000 -0.000000  0.000000 -0.000000  0.000000 -0.000001
                                -0.000000 -0.000000  0.000000  0.000000  0.000000  0.000000  0.000000 -0.000000

   2.2   2   -31.7678 -174.4812 -0.000003 -0.000012 -0.000038 -0.000117 -0.000352 -0.001063 -0.003214 -0.009528 -0.026453 -0.065076
                                -0.129131 -0.186286 -0.121369  0.129679  0.426248  0.427963  0.146507  0.014225  0.000732  0.000186
                                -0.000065  0.000015 -0.000009  0.000005 -0.000002 -0.000000 -0.000000 -0.000000 -0.000000 -0.000000
                                 0.000000  0.000000 -0.000003 -0.000004  0.000018  0.000003  0.000003  0.000010  0.000002  0.000013
                                -0.000002 -0.000000  0.000003 -0.000000 -0.000024  0.000082  0.000015 -0.000031 -0.000011  0.000027
                                 0.000008 -0.000011 -0.000006  0.000006  0.000003 -0.000002 -0.000005  0.000000  0.000002 -0.000000
                                -0.000001  0.000000 -0.000001 -0.000000 -0.000000  0.000000 -0.000000  0.000001 -0.000003  0.000003
                                -0.000005  0.000000  0.000004  0.000000 -0.000001  0.000000 -0.000003 -0.000000

   3.2   2   -22.1731 -159.7484  0.000000  0.000000  0.000000  0.000000  0.000000  0.000000  0.000000  0.000000  0.000001  0.000003
                                 0.000006  0.000010  0.000007 -0.000015 -0.000039  0.000007 -0.000002  0.000026  0.000015  0.000007
                                -0.000010  0.000019  0.000002  0.000001 -0.000000  0.000020  0.000159  0.000981  0.004658  0.017747
                                 0.053450  0.129576  0.235270  0.313962  0.288625  0.151047  0.037284  0.002314  0.000433 -0.000207
                                 0.000105 -0.000066  0.000039 -0.000009 -0.000016  0.000001  0.000033 -0.000000 -0.000001  0.000000
                                -0.000008 -0.000000  0.000008  0.000000  0.000004 -0.000000 -0.000010  0.000032  0.000001 -0.000006
                                -0.000006  0.000004  0.000008 -0.000002 -0.000002  0.000000 -0.000000 -0.000001  0.000003 -0.000014
                                -0.000011  0.000001 -0.000006 -0.000000 -0.000003 -0.000000  0.000008 -0.000000

   4.2   2    -5.0463  -70.4205 -0.000001 -0.000005 -0.000017 -0.000050 -0.000151 -0.000458 -0.001386 -0.004119 -0.011471 -0.028436
                                -0.056917 -0.083323 -0.049760  0.084014  0.273113  0.306734 -0.117736 -0.548890 -0.441053 -0.096696
                                -0.002368 -0.001300  0.000337 -0.000196  0.000076  0.000000  0.000000  0.000001  0.000003  0.000012
                                 0.000038  0.000090  0.000167  0.000201  0.000170 -0.000069 -0.000143 -0.001030 -0.001219  0.000012
                                 0.000284  0.000075 -0.000041  0.000012  0.000009 -0.000144  0.000055 -0.000384  0.000061 -0.000902
                                 0.000002 -0.000067  0.000178  0.000061 -0.000026 -0.000005  0.000036 -0.000003  0.000068 -0.000013
                                 0.000020  0.000001  0.000035  0.000000 -0.000009 -0.000005 -0.000000 -0.000040 -0.000210 -0.000384
                                -0.000017  0.000062  0.000172  0.000098 -0.000084  0.000000  0.000008  0.000002

   5.2   2    -1.9508  -58.2682  0.000000  0.000000  0.000000  0.000000  0.000001  0.000002  0.000005  0.000016  0.000044  0.000109
                                 0.000217  0.000322  0.000184 -0.000324 -0.001124 -0.001212  0.000613  0.003147  0.001288 -0.002599
                                 0.000669  0.001091  0.000029  0.000040 -0.000015  0.000008  0.000063  0.000392  0.001866  0.007151
                                 0.021720  0.053492  0.096873  0.124466  0.090906 -0.075597 -0.293851 -0.391059 -0.294083 -0.113242
                                -0.014926  0.000159 -0.000283  0.000061 -0.000367 -0.000002 -0.000490 -0.000000 -0.001980 -0.000017
                                -0.001180 -0.000018  0.000304  0.000010 -0.000009 -0.000002  0.000073 -0.000208 -0.000037 -0.000959
                                -0.000168 -0.000542  0.000172  0.000135  0.000046 -0.000019 -0.000000 -0.000527 -0.001852 -0.001975
                                -0.000277  0.000466  0.001044  0.000300 -0.000411 -0.000002 -0.000060 -0.000002

   6.2   +    -0.3804  -23.4714  0.000000  0.000001  0.000005  0.000014  0.000042  0.000127  0.000386  0.001147  0.003199  0.007932
                                 0.015918  0.023318  0.013776 -0.024929 -0.081109 -0.092783  0.053855  0.207255  0.204283 -0.067743
                                -0.450285 -0.488449 -0.149900  0.002546 -0.002092 -0.000000 -0.000001 -0.000003 -0.000016 -0.000063
                                -0.000191 -0.000475 -0.000849 -0.001108 -0.000747  0.000739  0.002798  0.003636  0.003779 -0.003257
                                -0.005005 -0.002566 -0.000975  0.000077 -0.000013 -0.000557  0.000053 -0.000985 -0.000238 -0.001065
                                 0.002206 -0.008501  0.006405 -0.014840  0.002384 -0.004661 -0.000001  0.000002 -0.000156 -0.000010
                                -0.000155 -0.000259  0.000948 -0.000386 -0.000132  0.000008 -0.000067 -0.002056 -0.007722 -0.016653
                                -0.006424  0.000622  0.002466  0.000914 -0.000346 -0.000023  0.000251 -0.000010

   7.2   0     0.0225   -4.5175  0.000000  0.000000  0.000000  0.000001  0.000003  0.000009  0.000030  0.000079  0.000250  0.000536
                                 0.001289  0.001399  0.001734 -0.003387 -0.002939 -0.012088  0.012496  0.001592  0.037968 -0.044075
                                 0.034877 -0.202079  0.364042 -1.086173  1.734127  0.000000 -0.000000  0.000000 -0.000002 -0.000000
                                -0.000020  0.000001 -0.000114  0.000088 -0.000339  0.000576 -0.000761  0.001784 -0.002514  0.005046
                                -0.017394  0.010842  0.020998  0.014237 -0.000049 -0.000058  0.000162 -0.000036 -0.000514 -0.000222
                                 0.001662 -0.000295 -0.011572 -0.002250  0.019067  0.002928 -0.000038 -0.000001  0.000214  0.000003
                                -0.001613 -0.000042 -0.000300  0.000042 -0.000043  0.000000 -0.000004  0.000231 -0.002278  0.015736
                                -0.055965  0.000217 -0.000660 -0.007110 -0.000014  0.000001 -0.000397 -0.000007

   8.2   0     0.0816   -6.8926  0.000000  0.000000  0.000000  0.000001  0.000003  0.000008  0.000023  0.000072  0.000186  0.000506
                                 0.000899  0.001582  0.000443 -0.000675 -0.006569 -0.002798 -0.001265  0.020297  0.000436  0.016451
                                -0.076493  0.099228 -0.448668  0.788311 -0.456729  0.000000  0.000001  0.000017  0.000042  0.000297
                                 0.000502  0.002287  0.001777  0.007075 -0.003236  0.007959 -0.028987  0.017792 -0.064293  0.101431
                                -0.202397  0.667856 -1.150538  1.517501  0.000317 -0.000048 -0.000394 -0.000043  0.002190 -0.000161
                                -0.004760 -0.000344  0.037356 -0.001704 -0.036904  0.002242  0.000043 -0.000025 -0.000148  0.000127
                                 0.001538 -0.000432  0.007554  0.003384  0.000092  0.000007 -0.000004 -0.001489  0.013197 -0.054949
                                 0.162581  0.000435 -0.000500  0.019847 -0.001132  0.000002  0.004516  0.000075

                                   1 2py     1 2py     1 2py     1 2py     1 2py     1 2py     1 2py     1 2py     1 2py     1 2py  
                                   1 2py     1 2py     1 2py     1 2py     1 2py     1 2py     1 2py     1 2py     1 2py     1 2py  
                                   1 2py     1 2py     1 2py     1 2py     1 2py     1 3d1-    1 3d1-    1 3d1-    1 3d1-    1 3d1- 
                                   1 3d1-    1 3d1-    1 3d1-    1 3d1-    1 3d1-    1 3d1-    1 3d1-    1 3d1-    1 3d1-    1 3d1- 
                                   1 3d1-    1 3d1-    1 3d1-    1 3d1-    1 4f1-    1 4f3-    1 4f1-    1 4f3-    1 4f1-    1 4f3- 
                                   1 4f1-    1 4f3-    1 4f1-    1 4f3-    1 4f1-    1 4f3-    1 5g1-    1 5g3-    1 5g1-    1 5g3- 
                                   1 5g1-    1 5g3-    1 5g1-    1 5g3-    1 6h1-    1 6h3-    1 6h5-    2 2py     2 2py     2 2py  
                                   2 2py     2 3d1-    2 3d1-    2 3d1-    2 4f1-    2 4f3-    2 4f1-    2 4f3- 

   1.3   2  -164.7870 -507.1146  0.000007  0.000025  0.000082  0.000250  0.000751  0.002256  0.006793  0.019897  0.054257  0.128817
                                 0.244441  0.333603  0.273259  0.109670  0.016975  0.000820  0.000057 -0.000140 -0.000002 -0.000019
                                 0.000007 -0.000003  0.000002 -0.000001  0.000000  0.000000  0.000000  0.000000  0.000000  0.000001
                                 0.000001  0.000001 -0.000001 -0.000001  0.000000  0.000001  0.000000 -0.000000  0.000000 -0.000001
                                 0.000001  0.000000 -0.000000  0.000000  0.000000  0.000002 -0.000000 -0.000001  0.000000  0.000001
                                -0.000000 -0.000000  0.000000  0.000000 -0.000000 -0.000000 -0.000000  0.000000  0.000000 -0.000000
                                -0.000000 -0.000000  0.000000  0.000000 -0.000000 -0.000000  0.000000 -0.000000  0.000000 -0.000001
                                -0.000000 -0.000000 -0.000000  0.000000  0.000000  0.000000  0.000000 -0.000000

   2.3   2   -31.7644 -174.4850 -0.000003 -0.000012 -0.000038 -0.000117 -0.000352 -0.001063 -0.003215 -0.009530 -0.026457 -0.065087
                                -0.129153 -0.186320 -0.121372  0.129742  0.426417  0.427857  0.146410  0.014212  0.000716  0.000188
                                -0.000069  0.000017 -0.000012  0.000006 -0.000002 -0.000000 -0.000000 -0.000000 -0.000000 -0.000000
                                 0.000001  0.000001 -0.000001 -0.000002  0.000017  0.000001  0.000005  0.000008  0.000005  0.000008
                                -0.000005  0.000001 -0.000000 -0.000000  0.000019  0.000082 -0.000002 -0.000031  0.000005  0.000027
                                -0.000000 -0.000011 -0.000002  0.000006  0.000001 -0.000002 -0.000005  0.000000  0.000002 -0.000000
                                -0.000002  0.000000  0.000000 -0.000000 -0.000000  0.000000 -0.000000  0.000000 -0.000002  0.000006
                                 0.000002  0.000000  0.000001 -0.000004 -0.000001  0.000000 -0.000000 -0.000000

   3.3   2   -22.1694 -159.7475  0.000000  0.000000  0.000000  0.000000  0.000000  0.000000  0.000000  0.000000  0.000001  0.000003
                                 0.000006  0.000009  0.000007 -0.000014 -0.000034  0.000004 -0.000007  0.000024  0.000017  0.000005
                                -0.000011  0.000019  0.000000  0.000002 -0.000001  0.000020  0.000159  0.000981  0.004659  0.017748
                                 0.053453  0.129586  0.235285  0.313992  0.288598  0.151015  0.037287  0.002299  0.000425 -0.000218
                                 0.000104 -0.000068  0.000038 -0.000010 -0.000017  0.000001  0.000034 -0.000000 -0.000002  0.000000
                                -0.000009 -0.000000  0.000008  0.000000  0.000002 -0.000000  0.000014  0.000032 -0.000004 -0.000006
                                -0.000003  0.000004  0.000006 -0.000002 -0.000003  0.000000 -0.000000 -0.000002  0.000003 -0.000013
                                -0.000009  0.000002 -0.000007 -0.000000 -0.000001 -0.000000  0.000009 -0.000000

   4.3   2    -5.0385  -70.4930 -0.000001 -0.000005 -0.000017 -0.000050 -0.000152 -0.000459 -0.001389 -0.004128 -0.011496 -0.028502
                                -0.057042 -0.083524 -0.049837  0.084190  0.274001  0.307273 -0.118350 -0.552000 -0.440008 -0.094187
                                -0.002383 -0.001098  0.000328 -0.000173  0.000067  0.000000  0.000000  0.000001  0.000003  0.000013
                                 0.000040  0.000095  0.000175  0.000212  0.000174 -0.000082 -0.000180 -0.001061 -0.001181  0.000036
                                 0.000248  0.000072 -0.000047  0.000012 -0.000057 -0.000146 -0.000133 -0.000388 -0.000379 -0.000906
                                -0.000035 -0.000060  0.000185  0.000064 -0.000028 -0.000003  0.000034 -0.000003  0.000061 -0.000013
                                 0.000018  0.000001  0.000029  0.000001 -0.000013 -0.000005 -0.000000 -0.000039 -0.000203 -0.000336
                                 0.000007  0.000063  0.000164  0.000080 -0.000085  0.000000  0.000006  0.000002

   5.3   2    -1.9401  -58.2717  0.000000  0.000000  0.000000  0.000000  0.000001  0.000002  0.000005  0.000015  0.000043  0.000106
                                 0.000211  0.000315  0.000178 -0.000312 -0.001098 -0.001170  0.000564  0.003069  0.001203 -0.002353
                                 0.000778  0.000999  0.000133  0.000009 -0.000004  0.000008  0.000064  0.000392  0.001867  0.007156
                                 0.021735  0.053531  0.096941  0.124565  0.090944 -0.075770 -0.294267 -0.391442 -0.292811 -0.112917
                                -0.016240 -0.000086 -0.000349  0.000070 -0.000363 -0.000002 -0.000481 -0.000001 -0.001966 -0.000018
                                -0.001095 -0.000018  0.000231  0.000009  0.000043 -0.000002 -0.000085 -0.000209 -0.000742 -0.000961
                                -0.000559 -0.000542  0.000244  0.000133  0.000037 -0.000019 -0.000000 -0.000535 -0.001925 -0.002067
                                -0.000402  0.000475  0.001126  0.000299 -0.000438 -0.000002 -0.000101 -0.000003

   6.3   2    -0.3276  -23.0324  0.000000  0.000001  0.000005  0.000014  0.000041  0.000125  0.000377  0.001121  0.003127  0.007753
                                 0.015561  0.022791  0.013467 -0.024391 -0.079357 -0.090723  0.052823  0.203516  0.201148 -0.078081
                                -0.421941 -0.473351 -0.186393 -0.002889 -0.001788 -0.000000 -0.000001 -0.000004 -0.000017 -0.000065
                                -0.000197 -0.000485 -0.000880 -0.001122 -0.000799  0.000822  0.002768  0.003952  0.003414 -0.002784
                                -0.004189 -0.002931  0.000177 -0.000364 -0.000428 -0.000239 -0.000605 -0.000444 -0.001188 -0.000452
                                -0.003211 -0.003394 -0.003776 -0.006288 -0.000772 -0.002562  0.000001  0.000001 -0.000186 -0.000004
                                -0.000266 -0.000093  0.000534 -0.000132 -0.000129 -0.000012 -0.000012 -0.002165 -0.008334 -0.017768
                                -0.010714  0.000615  0.002702  0.001232 -0.000339 -0.000008 -0.000025 -0.000097

   7.3   0     0.0241   -4.4545  0.000000  0.000000  0.000000  0.000001  0.000003  0.000009  0.000030  0.000079  0.000252  0.000537
                                 0.001303  0.001394  0.001778 -0.003480 -0.002825 -0.012400  0.012950  0.001025  0.039189 -0.046489
                                 0.039313 -0.211283  0.376609 -1.156163  1.776240 -0.000000 -0.000000 -0.000000 -0.000002 -0.000001
                                -0.000023 -0.000003 -0.000125  0.000081 -0.000358  0.000603 -0.000762  0.001877 -0.002573  0.005193
                                -0.019390  0.009259  0.019188  0.012349 -0.000080 -0.000050  0.000125 -0.000027 -0.000602 -0.000196
                                 0.001318 -0.000253 -0.013646 -0.002102  0.019390  0.002549 -0.000041 -0.000000  0.000224  0.000003
                                -0.001790 -0.000037 -0.000537  0.000031 -0.000051 -0.000001 -0.000004  0.000264 -0.002630  0.018243
                                -0.049700  0.000239 -0.000808 -0.009572 -0.000014  0.000001 -0.000159 -0.000011

   8.3   0     0.0851   -6.7662  0.000000  0.000000  0.000000  0.000001  0.000002  0.000007  0.000019  0.000060  0.000157  0.000422
                                 0.000763  0.001309  0.000416 -0.000662 -0.005332 -0.002670 -0.000546  0.016211  0.001773  0.010997
                                -0.059489  0.081305 -0.421125  0.632642 -0.356795  0.000000  0.000001  0.000016  0.000035  0.000278
                                 0.000423  0.002155  0.001393  0.006877 -0.003882  0.008912 -0.029094  0.021023 -0.066464  0.106615
                                -0.221028  0.693868 -1.240065  1.571746  0.000294 -0.000035 -0.000510 -0.000031  0.002268 -0.000119
                                -0.005705 -0.000262  0.037642 -0.001339 -0.046054  0.001588  0.000037 -0.000024 -0.000130  0.000117
                                 0.001586 -0.000455  0.008635  0.003045  0.000092  0.000005 -0.000003 -0.001565  0.013109 -0.054922
                                 0.195736  0.000469 -0.000641  0.018869 -0.001151  0.000002  0.004639  0.000071

                                   1 3d2-    1 3d2-    1 3d2-    1 3d2-    1 3d2-    1 3d2-    1 3d2-    1 3d2-    1 3d2-    1 3d2- 
                                   1 3d2-    1 3d2-    1 3d2-    1 3d2-    1 3d2-    1 3d2-    1 3d2-    1 3d2-    1 3d2-    1 4f2- 
                                   1 4f2-    1 4f2-    1 4f2-    1 4f2-    1 4f2-    1 5g2-    1 5g4-    1 5g2-    1 5g4-    1 5g2- 
                                   1 5g4-    1 5g2-    1 5g4-    1 6h4-    1 6h2-    2 3d2-    2 3d2-    2 3d2-    2 4f2-    2 4f2- 


   1.4   2   -22.1715 -159.7465  0.000020  0.000159  0.000981  0.004658  0.017748  0.053452  0.129582  0.235280  0.313981  0.288614
                                 0.151030  0.037266  0.002312  0.000418 -0.000194  0.000093 -0.000075  0.000037 -0.000010  0.000021
                                 0.000004  0.000011 -0.000003  0.000001 -0.000000  0.000002  0.000045  0.000001 -0.000008 -0.000001
                                 0.000005  0.000000 -0.000003  0.000000 -0.000001 -0.000000  0.000001  0.000000 -0.000000 -0.000001

   2.4   2    -1.9433  -58.2741  0.000008  0.000064  0.000392  0.001868  0.007157  0.021743  0.053543  0.096983  0.124571  0.091027
                                -0.075856 -0.294118 -0.391818 -0.293194 -0.113008 -0.016418 -0.000413 -0.000383  0.000043 -0.000301
                                -0.000446 -0.001762 -0.001003  0.000132 -0.000016 -0.000016 -0.000294 -0.000198 -0.001344 -0.000229
                                -0.000773  0.000100  0.000170 -0.000020  0.000071 -0.000073 -0.000209 -0.000078  0.000122 -0.000001

   3.4   0     0.0851   -6.8081  0.000000  0.000001  0.000017  0.000037  0.000306  0.000445  0.002375  0.001421  0.007665 -0.004619
                                 0.010385 -0.032826  0.024868 -0.075770  0.123428 -0.257664  0.704478 -1.118839  1.573065  0.000028
                                 0.000045  0.000053  0.000164 -0.002340  0.008847 -0.000033 -0.000035  0.000212  0.000185 -0.001676
                                -0.000600  0.001646  0.004800  0.000004 -0.000049 -0.000089  0.001522 -0.000480  0.000134 -0.002564

   4.4   0     0.2136  -10.7648 -0.000001 -0.000009 -0.000035 -0.000254 -0.000669 -0.002936 -0.004871 -0.014162 -0.007299 -0.023856
                                 0.035131 -0.005021  0.121331 -0.088392  0.200223 -0.680297  1.244814 -2.682786  1.460195 -0.000073
                                -0.000571  0.000633 -0.004303 -0.001101 -0.022678 -0.000025  0.000082  0.000127 -0.000423 -0.001334
                                 0.000563 -0.001363 -0.014737 -0.000018 -0.000086 -0.000478  0.000534 -0.003306  0.000395 -0.004389

 HOMO      6.3    -0.327584 =      -8.9140eV
 LUMO     14.1     0.017794 =       0.4842eV
 LUMO-HOMO         0.345377 =       9.3982eV


 **********************************************************************************************************************************
 DATASETS  * FILE   NREC   LENGTH (MB)   RECORD NAMES
              1      22       22.24       500      610      700      900      950      970     1000      129      960     1700   
                                          VAR    BASINP    GEOM    SYMINP    ZMAT    AOBASIS   BASIS     P2S    ABASIS    OPER   
                                         1101     1401     1411     1412     1650     1100     1400     1410     1200     1210   
                                          SR      EKINR    POTR     PVPR    MOLCAS      S      EKIN      POT      H0       H01  
                                         1080     1600   
                                         AOSYM     SMH  

              2       4        3.76       700     1000      520     2100   
                                         GEOM     BASIS   MCVARS     RHF  

 PROGRAMS   *        TOTAL       RHF       INT
 CPU TIMES  *        53.83      3.73     49.73
 REAL TIME  *        58.88 SEC
 DISK USED  *         3.42 GB      
 SF USED    *         0.14 MB      
 GA USED    *         0.00 MB       (max)       0.00 MB       (current)
 **********************************************************************************************************************************
 SETTING SCF            =     -6791.58999223  AU                              
 SETTING _CC_NORM_MAX   =         2.00000000                                  


 PROGRAM * CCSD (Restricted open-shell coupled cluster)     Authors: C. Hampel, H.-J. Werner, 1991, M. Deegan, P.J. Knowles, 1992


 Convergence thresholds:  THRVAR = 1.00D-08  THRDEN = 1.06D-06

 CCSD(T)     terms to be evaluated (factor= 1.000)


 Number of closed-shell orbitals:  26 (  13   5   6   2 )
 Number of active  orbitals:        1 (   0   1   0   0 )
 Number of external orbitals:     310 ( 128  72  72  38 )

 Memory could be reduced to 357.02 Mwords without degradation in triples

 Number of N-1 electron functions:              53
 Number of N-2 electron functions:            1378
 Number of singly external CSFs:              5147
 Number of doubly external CSFs:          25795914
 Total number of CSFs:                    25801061

 Molecular orbitals read from record     2100.2  Type=RHF/CANONICAL (state 1.2)

 Integral transformation finished. Total CPU:  11.82 sec, npass=  1  Memory used:  37.09 MW

 Starting RMP2 calculation

 Wavefunction is spin-projected

 ITER.      SQ.NORM     CORR.ENERGY   TOTAL ENERGY   ENERGY CHANGE        DEN1      VAR(S)    VAR(P)  DIIS     TIME
   1      1.15477983    -1.90763629 -6793.49762852    -1.90763629    -0.00127231  0.18D-04  0.53D-03  1  1    15.06
   2      1.15605610    -1.90896731 -6793.49895954    -0.00133102    -0.00000508  0.12D-06  0.33D-05  2  2    20.43
   3      1.15615186    -1.90902631 -6793.49901855    -0.00005900    -0.00000001  0.19D-09  0.76D-08  3  3    23.92
   4      1.15615344    -1.90902648 -6793.49901871    -0.00000017    -0.00000000  0.10D-11  0.36D-10  4  4    26.81

 Norm of t1 vector:      0.03975925      S-energy:    -0.00233922      T1 diagnostic:  0.00003052
 Norm of t2 vector:      0.39315728      P-energy:    -1.90668726
                                         Alpha-Beta:  -1.27054142
                                         Alpha-Alpha: -0.32607707
                                         Beta-Beta:   -0.31006877

 Spin contamination <S**2-Sz**2-Sz>     0.00000000
  Reference energy                  -6791.589992234024
  RHF-RMP2 correlation energy          -1.909026477024
 !RHF-RMP2 energy                   -6793.499018711048
 (NB above energy spin projected)

 Starting RCCSD calculation

 ITER.      SQ.NORM     CORR.ENERGY   TOTAL ENERGY   ENERGY CHANGE        DEN1      VAR(S)    VAR(P)  DIIS     TIME
   1      1.13728471    -1.79537653 -6793.38536876    -1.79537653    -0.02781660  0.22D-02  0.32D-02  0  0    67.61
   2      1.14725654    -1.82184995 -6793.41184219    -0.02647343    -0.00116139  0.67D-04  0.26D-03  1  1   109.48
   3      1.14857582    -1.82014284 -6793.41013508     0.00170711    -0.00011265  0.39D-04  0.31D-04  2  2   151.45
   4      1.15013418    -1.82119208 -6793.41118431    -0.00104924    -0.00000590  0.27D-05  0.16D-05  3  3   193.55
   5      1.15036200    -1.82124057 -6793.41123281    -0.00004849    -0.00000086  0.55D-06  0.19D-06  4  4   237.73
   6      1.15046213    -1.82125376 -6793.41124600    -0.00001319    -0.00000006  0.36D-07  0.12D-07  5  5   282.80
   7      1.15047281    -1.82125556 -6793.41124780    -0.00000180    -0.00000001  0.36D-08  0.15D-08  6  6   324.77
   8      1.15047217    -1.82125432 -6793.41124656     0.00000124    -0.00000000  0.34D-09  0.14D-09  6  1   366.11
   9      1.15047317    -1.82125478 -6793.41124702    -0.00000046    -0.00000000  0.34D-10  0.16D-10  6  2   415.04

 Norm of t1 vector:      0.07608883      S-energy:    -0.00249216      T1 diagnostic:  0.00607321
                                                                       D1 diagnostic:  0.02788791
 Norm of t2 vector:      0.38037305      P-energy:    -1.81876262
                                         Alpha-Beta:  -1.24049754
                                         Alpha-Alpha: -0.29629855
                                         Beta-Beta:   -0.28196653

 Spin contamination <S**2-Sz**2-Sz>     0.00000000

 Memory could be reduced to 390.62 Mwords without degradation in triples
 

  Correlated core orbitals:             1.1       2.1       3.1       4.1       5.1       6.1       7.1       8.1       9.1      10.1
                                       11.1       1.2       2.2       3.2       4.2       5.2       1.3       2.3       3.3       4.3
                                        5.3       1.4       2.4
  Orbital energies:                 -1174.9466 -183.7454 -164.7875  -38.0941  -31.7665  -22.1749  -22.1696   -7.1021   -5.0468   -1.9610
                                       -1.9433 -164.7903  -31.7715  -22.1742   -5.0558   -1.9555 -164.7873  -31.7648  -22.1696   -5.0398
                                       -1.9409  -22.1726   -1.9478
 
  RCCSD core-core energy               -1.503007281639
  RCCSD core-valence energy            -0.179881080064
  RCCSD valence correlation energy     -0.138366420538
 

 RESULTS
 =======

  Reference energy                  -6791.589992234024
  RCCSD singles energy                 -0.002492163213
  RCCSD pair energy                    -1.818762619027
  RCCSD correlation energy             -1.821254782240
  Triples (T) contribution             -0.030542163712
  Total correlation energy             -1.851796945951
 
  RHF-RCCSD energy                  -6793.411247016264
  RHF-RCCSD[T] energy               -6793.442286538540
  RHF-RCCSD-T energy                -6793.441701026403
 !RHF-RCCSD(T) energy               -6793.441789179975

 Program statistics:

 Available memory in ccsd:               999993798
 Min. memory needed in ccsd:              70894231
 Max. memory used in ccsd:               104263128
 Max. memory used in cckext:              84316528 ( 9 integral passes)
 Max. memory used in cckint:              37094289 ( 1 integral passes)



 **********************************************************************************************************************************
 DATASETS  * FILE   NREC   LENGTH (MB)   RECORD NAMES
              1      22       22.24       500      610      700      900      950      970     1000      129      960     1700   
                                          VAR    BASINP    GEOM    SYMINP    ZMAT    AOBASIS   BASIS     P2S    ABASIS    OPER   
                                         1101     1401     1411     1412     1650     1100     1400     1410     1200     1210   
                                          SR      EKINR    POTR     PVPR    MOLCAS      S      EKIN      POT      H0       H01  
                                         1080     1600   
                                         AOSYM     SMH  

              2       4        3.76       700     1000      520     2100   
                                         GEOM     BASIS   MCVARS     RHF  

 PROGRAMS   *        TOTAL  RCCSD(T)       RHF       INT
 CPU TIMES  *      1415.04   1361.18      3.73     49.73
 REAL TIME  *      2153.92 SEC
 DISK USED  *        39.48 GB      
 SF USED    *         7.73 GB      
 GA USED    *         0.00 MB       (max)       0.00 MB       (current)
 **********************************************************************************************************************************
 SETTING CCSD           =     -6793.44178918  AU                              

 RCCSD(T)/USERDEF energy=  -6793.441789179975

        RCCSD(T)        RHF-SCF 
  -6793.44178918  -6791.58999223
 **********************************************************************************************************************************
 Molpro calculation terminated
 Variable memory released
