/global/cscratch1/sd/bkincaid/Ir/250-610/runs/scf_400

     Program PWSCF v.6.4.1 starts on 17Jan2022 at 13:46:36 

     This program is part of the open-source Quantum ESPRESSO suite
     for quantum simulation of materials; please cite
         "P. Giannozzi et al., J. Phys.:Condens. Matter 21 395502 (2009);
         "P. Giannozzi et al., J. Phys.:Condens. Matter 29 465901 (2017);
          URL http://www.quantum-espresso.org", 
     in publications or presentations arising from this work. More details at
     http://www.quantum-espresso.org/quote

     Parallel version (MPI & OpenMP), running on      32 processor cores
     Number of MPI processes:                32
     Threads/MPI process:                     1

     MPI processes distributed on     1 nodes
     R & G space division:  proc/nbgrp/npool/nimage =      32
     Reading input from scf_400.in

     Current dimensions of program PWSCF are:
     Max number of different atomic species (ntypx) = 10
     Max number of k-points (npk) =  40000
     Max angular momentum in pseudopotentials (lmaxx) =  3

     IMPORTANT: XC functional enforced from input :
     Exchange-correlation      = PBE ( 1  4  3  4 0 0)
     Any further DFT definition will be discarded
     Please, verify this is what you really want


     gamma-point specific algorithms are used
     Message from routine setup:
     the system is metallic, specify occupations

     Subspace diagonalization in iterative solution of the eigenvalue problem:
     one sub-group per band group will be used
     scalapack distributed-memory algorithm (size of sub-group:  4*  4 procs)

     Message from routine setup:
     DEPRECATED: symmetry with ibrav=0, use correct ibrav instead
 
     Parallelization info
     --------------------
     sticks:   dense  smooth     PW     G-vecs:    dense   smooth      PW
     Min        2045    2045    511               393838   393838   49224
     Max        2048    2048    514               393844   393844   49232
     Sum       65489   65489  16389             12602945 12602945 1575365
 


     bravais-lattice index     =            0
     lattice parameter (alat)  =      22.6767  a.u.
     unit-cell volume          =   11661.1222 (a.u.)^3
     number of atoms/cell      =            1
     number of atomic types    =            1
     number of electrons       =        17.00 (up:  10.00, down:   7.00)
     number of Kohn-Sham states=           12
     kinetic-energy cutoff     =     400.0000  Ry
     charge density cutoff     =    1600.0000  Ry
     convergence threshold     =      1.0E-06
     mixing beta               =       0.7000
     number of iterations used =            8  plain     mixing
     Exchange-correlation      = PBE ( 1  4  3  4 0 0)

     celldm(1)=  22.676714  celldm(2)=   0.000000  celldm(3)=   0.000000
     celldm(4)=   0.000000  celldm(5)=   0.000000  celldm(6)=   0.000000

     crystal axes: (cart. coord. in units of alat)
               a(1) = (   1.000000   0.000000   0.000000 )  
               a(2) = (   0.000000   1.000000   0.000000 )  
               a(3) = (   0.000000   0.000000   1.000000 )  

     reciprocal axes: (cart. coord. in units 2 pi/alat)
               b(1) = (  1.000000  0.000000  0.000000 )  
               b(2) = (  0.000000  1.000000  0.000000 )  
               b(3) = (  0.000000  0.000000  1.000000 )  


     PseudoPot. # 1 for Ir read from file:
     ./Ir.upf
     MD5 check sum: 4ec64f0b3ebe11de5a1e063b7aff0c74
     Pseudo is Norm-conserving, Zval = 17.0
     Generated by new atomic code, or converted to UPF format
     Using radial grid of 1188 points,  3 beta functions with: 
                l(1) =   1
                l(2) =   2
                l(3) =   3

     atomic species   valence    mass     pseudopotential
        Ir            17.00   192.20000     Ir( 1.00)

     Starting magnetic structure 
     atomic species   magnetization
        Ir           0.500

     48 Sym. Ops., with inversion, found


                                    s                        frac. trans.

      isym =  1     identity                                     

 cryst.   s( 1) = (     1          0          0      )
                  (     0          1          0      )
                  (     0          0          1      )

 cart.    s( 1) = (  1.0000000  0.0000000  0.0000000 )
                  (  0.0000000  1.0000000  0.0000000 )
                  (  0.0000000  0.0000000  1.0000000 )


      isym =  2     180 deg rotation - cart. axis [0,0,1]        

 cryst.   s( 2) = (    -1          0          0      )
                  (     0         -1          0      )
                  (     0          0          1      )

 cart.    s( 2) = ( -1.0000000  0.0000000  0.0000000 )
                  (  0.0000000 -1.0000000  0.0000000 )
                  (  0.0000000  0.0000000  1.0000000 )


      isym =  3     180 deg rotation - cart. axis [0,1,0]        

 cryst.   s( 3) = (    -1          0          0      )
                  (     0          1          0      )
                  (     0          0         -1      )

 cart.    s( 3) = ( -1.0000000  0.0000000  0.0000000 )
                  (  0.0000000  1.0000000  0.0000000 )
                  (  0.0000000  0.0000000 -1.0000000 )


      isym =  4     180 deg rotation - cart. axis [1,0,0]        

 cryst.   s( 4) = (     1          0          0      )
                  (     0         -1          0      )
                  (     0          0         -1      )

 cart.    s( 4) = (  1.0000000  0.0000000  0.0000000 )
                  (  0.0000000 -1.0000000  0.0000000 )
                  (  0.0000000  0.0000000 -1.0000000 )


      isym =  5     180 deg rotation - cart. axis [1,1,0]        

 cryst.   s( 5) = (     0          1          0      )
                  (     1          0          0      )
                  (     0          0         -1      )

 cart.    s( 5) = (  0.0000000  1.0000000  0.0000000 )
                  (  1.0000000  0.0000000  0.0000000 )
                  (  0.0000000  0.0000000 -1.0000000 )


      isym =  6     180 deg rotation - cart. axis [1,-1,0]       

 cryst.   s( 6) = (     0         -1          0      )
                  (    -1          0          0      )
                  (     0          0         -1      )

 cart.    s( 6) = (  0.0000000 -1.0000000  0.0000000 )
                  ( -1.0000000  0.0000000  0.0000000 )
                  (  0.0000000  0.0000000 -1.0000000 )


      isym =  7      90 deg rotation - cart. axis [0,0,-1]       

 cryst.   s( 7) = (     0         -1          0      )
                  (     1          0          0      )
                  (     0          0          1      )

 cart.    s( 7) = (  0.0000000  1.0000000  0.0000000 )
                  ( -1.0000000  0.0000000  0.0000000 )
                  (  0.0000000  0.0000000  1.0000000 )


      isym =  8      90 deg rotation - cart. axis [0,0,1]        

 cryst.   s( 8) = (     0          1          0      )
                  (    -1          0          0      )
                  (     0          0          1      )

 cart.    s( 8) = (  0.0000000 -1.0000000  0.0000000 )
                  (  1.0000000  0.0000000  0.0000000 )
                  (  0.0000000  0.0000000  1.0000000 )


      isym =  9     180 deg rotation - cart. axis [1,0,1]        

 cryst.   s( 9) = (     0          0          1      )
                  (     0         -1          0      )
                  (     1          0          0      )

 cart.    s( 9) = (  0.0000000  0.0000000  1.0000000 )
                  (  0.0000000 -1.0000000  0.0000000 )
                  (  1.0000000  0.0000000  0.0000000 )


      isym = 10     180 deg rotation - cart. axis [-1,0,1]       

 cryst.   s(10) = (     0          0         -1      )
                  (     0         -1          0      )
                  (    -1          0          0      )

 cart.    s(10) = (  0.0000000  0.0000000 -1.0000000 )
                  (  0.0000000 -1.0000000  0.0000000 )
                  ( -1.0000000  0.0000000  0.0000000 )


      isym = 11      90 deg rotation - cart. axis [0,1,0]        

 cryst.   s(11) = (     0          0         -1      )
                  (     0          1          0      )
                  (     1          0          0      )

 cart.    s(11) = (  0.0000000  0.0000000  1.0000000 )
                  (  0.0000000  1.0000000  0.0000000 )
                  ( -1.0000000  0.0000000  0.0000000 )


      isym = 12      90 deg rotation - cart. axis [0,-1,0]       

 cryst.   s(12) = (     0          0          1      )
                  (     0          1          0      )
                  (    -1          0          0      )

 cart.    s(12) = (  0.0000000  0.0000000 -1.0000000 )
                  (  0.0000000  1.0000000  0.0000000 )
                  (  1.0000000  0.0000000  0.0000000 )


      isym = 13     180 deg rotation - cart. axis [0,1,1]        

 cryst.   s(13) = (    -1          0          0      )
                  (     0          0          1      )
                  (     0          1          0      )

 cart.    s(13) = ( -1.0000000  0.0000000  0.0000000 )
                  (  0.0000000  0.0000000  1.0000000 )
                  (  0.0000000  1.0000000  0.0000000 )


      isym = 14     180 deg rotation - cart. axis [0,1,-1]       

 cryst.   s(14) = (    -1          0          0      )
                  (     0          0         -1      )
                  (     0         -1          0      )

 cart.    s(14) = ( -1.0000000  0.0000000  0.0000000 )
                  (  0.0000000  0.0000000 -1.0000000 )
                  (  0.0000000 -1.0000000  0.0000000 )


      isym = 15      90 deg rotation - cart. axis [-1,0,0]       

 cryst.   s(15) = (     1          0          0      )
                  (     0          0         -1      )
                  (     0          1          0      )

 cart.    s(15) = (  1.0000000  0.0000000  0.0000000 )
                  (  0.0000000  0.0000000  1.0000000 )
                  (  0.0000000 -1.0000000  0.0000000 )


      isym = 16      90 deg rotation - cart. axis [1,0,0]        

 cryst.   s(16) = (     1          0          0      )
                  (     0          0          1      )
                  (     0         -1          0      )

 cart.    s(16) = (  1.0000000  0.0000000  0.0000000 )
                  (  0.0000000  0.0000000 -1.0000000 )
                  (  0.0000000  1.0000000  0.0000000 )


      isym = 17     120 deg rotation - cart. axis [-1,-1,-1]     

 cryst.   s(17) = (     0          0          1      )
                  (     1          0          0      )
                  (     0          1          0      )

 cart.    s(17) = (  0.0000000  1.0000000  0.0000000 )
                  (  0.0000000  0.0000000  1.0000000 )
                  (  1.0000000  0.0000000  0.0000000 )


      isym = 18     120 deg rotation - cart. axis [-1,1,1]       

 cryst.   s(18) = (     0          0         -1      )
                  (    -1          0          0      )
                  (     0          1          0      )

 cart.    s(18) = (  0.0000000 -1.0000000  0.0000000 )
                  (  0.0000000  0.0000000  1.0000000 )
                  ( -1.0000000  0.0000000  0.0000000 )


      isym = 19     120 deg rotation - cart. axis [1,1,-1]       

 cryst.   s(19) = (     0          0         -1      )
                  (     1          0          0      )
                  (     0         -1          0      )

 cart.    s(19) = (  0.0000000  1.0000000  0.0000000 )
                  (  0.0000000  0.0000000 -1.0000000 )
                  ( -1.0000000  0.0000000  0.0000000 )


      isym = 20     120 deg rotation - cart. axis [1,-1,1]       

 cryst.   s(20) = (     0          0          1      )
                  (    -1          0          0      )
                  (     0         -1          0      )

 cart.    s(20) = (  0.0000000 -1.0000000  0.0000000 )
                  (  0.0000000  0.0000000 -1.0000000 )
                  (  1.0000000  0.0000000  0.0000000 )


      isym = 21     120 deg rotation - cart. axis [1,1,1]        

 cryst.   s(21) = (     0          1          0      )
                  (     0          0          1      )
                  (     1          0          0      )

 cart.    s(21) = (  0.0000000  0.0000000  1.0000000 )
                  (  1.0000000  0.0000000  0.0000000 )
                  (  0.0000000  1.0000000  0.0000000 )


      isym = 22     120 deg rotation - cart. axis [-1,1,-1]      

 cryst.   s(22) = (     0         -1          0      )
                  (     0          0         -1      )
                  (     1          0          0      )

 cart.    s(22) = (  0.0000000  0.0000000  1.0000000 )
                  ( -1.0000000  0.0000000  0.0000000 )
                  (  0.0000000 -1.0000000  0.0000000 )


      isym = 23     120 deg rotation - cart. axis [1,-1,-1]      

 cryst.   s(23) = (     0         -1          0      )
                  (     0          0          1      )
                  (    -1          0          0      )

 cart.    s(23) = (  0.0000000  0.0000000 -1.0000000 )
                  ( -1.0000000  0.0000000  0.0000000 )
                  (  0.0000000  1.0000000  0.0000000 )


      isym = 24     120 deg rotation - cart. axis [-1,-1,1]      

 cryst.   s(24) = (     0          1          0      )
                  (     0          0         -1      )
                  (    -1          0          0      )

 cart.    s(24) = (  0.0000000  0.0000000 -1.0000000 )
                  (  1.0000000  0.0000000  0.0000000 )
                  (  0.0000000 -1.0000000  0.0000000 )


      isym = 25     inversion                                    

 cryst.   s(25) = (    -1          0          0      )
                  (     0         -1          0      )
                  (     0          0         -1      )

 cart.    s(25) = ( -1.0000000  0.0000000  0.0000000 )
                  (  0.0000000 -1.0000000  0.0000000 )
                  (  0.0000000  0.0000000 -1.0000000 )


      isym = 26     inv. 180 deg rotation - cart. axis [0,0,1]   

 cryst.   s(26) = (     1          0          0      )
                  (     0          1          0      )
                  (     0          0         -1      )

 cart.    s(26) = (  1.0000000  0.0000000  0.0000000 )
                  (  0.0000000  1.0000000  0.0000000 )
                  (  0.0000000  0.0000000 -1.0000000 )


      isym = 27     inv. 180 deg rotation - cart. axis [0,1,0]   

 cryst.   s(27) = (     1          0          0      )
                  (     0         -1          0      )
                  (     0          0          1      )

 cart.    s(27) = (  1.0000000  0.0000000  0.0000000 )
                  (  0.0000000 -1.0000000  0.0000000 )
                  (  0.0000000  0.0000000  1.0000000 )


      isym = 28     inv. 180 deg rotation - cart. axis [1,0,0]   

 cryst.   s(28) = (    -1          0          0      )
                  (     0          1          0      )
                  (     0          0          1      )

 cart.    s(28) = ( -1.0000000  0.0000000  0.0000000 )
                  (  0.0000000  1.0000000  0.0000000 )
                  (  0.0000000  0.0000000  1.0000000 )


      isym = 29     inv. 180 deg rotation - cart. axis [1,1,0]   

 cryst.   s(29) = (     0         -1          0      )
                  (    -1          0          0      )
                  (     0          0          1      )

 cart.    s(29) = (  0.0000000 -1.0000000  0.0000000 )
                  ( -1.0000000  0.0000000  0.0000000 )
                  (  0.0000000  0.0000000  1.0000000 )


      isym = 30     inv. 180 deg rotation - cart. axis [1,-1,0]  

 cryst.   s(30) = (     0          1          0      )
                  (     1          0          0      )
                  (     0          0          1      )

 cart.    s(30) = (  0.0000000  1.0000000  0.0000000 )
                  (  1.0000000  0.0000000  0.0000000 )
                  (  0.0000000  0.0000000  1.0000000 )


      isym = 31     inv.  90 deg rotation - cart. axis [0,0,-1]  

 cryst.   s(31) = (     0          1          0      )
                  (    -1          0          0      )
                  (     0          0         -1      )

 cart.    s(31) = (  0.0000000 -1.0000000  0.0000000 )
                  (  1.0000000  0.0000000  0.0000000 )
                  (  0.0000000  0.0000000 -1.0000000 )


      isym = 32     inv.  90 deg rotation - cart. axis [0,0,1]   

 cryst.   s(32) = (     0         -1          0      )
                  (     1          0          0      )
                  (     0          0         -1      )

 cart.    s(32) = (  0.0000000  1.0000000  0.0000000 )
                  ( -1.0000000  0.0000000  0.0000000 )
                  (  0.0000000  0.0000000 -1.0000000 )


      isym = 33     inv. 180 deg rotation - cart. axis [1,0,1]   

 cryst.   s(33) = (     0          0         -1      )
                  (     0          1          0      )
                  (    -1          0          0      )

 cart.    s(33) = (  0.0000000  0.0000000 -1.0000000 )
                  (  0.0000000  1.0000000  0.0000000 )
                  ( -1.0000000  0.0000000  0.0000000 )


      isym = 34     inv. 180 deg rotation - cart. axis [-1,0,1]  

 cryst.   s(34) = (     0          0          1      )
                  (     0          1          0      )
                  (     1          0          0      )

 cart.    s(34) = (  0.0000000  0.0000000  1.0000000 )
                  (  0.0000000  1.0000000  0.0000000 )
                  (  1.0000000  0.0000000  0.0000000 )


      isym = 35     inv.  90 deg rotation - cart. axis [0,1,0]   

 cryst.   s(35) = (     0          0          1      )
                  (     0         -1          0      )
                  (    -1          0          0      )

 cart.    s(35) = (  0.0000000  0.0000000 -1.0000000 )
                  (  0.0000000 -1.0000000  0.0000000 )
                  (  1.0000000  0.0000000  0.0000000 )


      isym = 36     inv.  90 deg rotation - cart. axis [0,-1,0]  

 cryst.   s(36) = (     0          0         -1      )
                  (     0         -1          0      )
                  (     1          0          0      )

 cart.    s(36) = (  0.0000000  0.0000000  1.0000000 )
                  (  0.0000000 -1.0000000  0.0000000 )
                  ( -1.0000000  0.0000000  0.0000000 )


      isym = 37     inv. 180 deg rotation - cart. axis [0,1,1]   

 cryst.   s(37) = (     1          0          0      )
                  (     0          0         -1      )
                  (     0         -1          0      )

 cart.    s(37) = (  1.0000000  0.0000000  0.0000000 )
                  (  0.0000000  0.0000000 -1.0000000 )
                  (  0.0000000 -1.0000000  0.0000000 )


      isym = 38     inv. 180 deg rotation - cart. axis [0,1,-1]  

 cryst.   s(38) = (     1          0          0      )
                  (     0          0          1      )
                  (     0          1          0      )

 cart.    s(38) = (  1.0000000  0.0000000  0.0000000 )
                  (  0.0000000  0.0000000  1.0000000 )
                  (  0.0000000  1.0000000  0.0000000 )


      isym = 39     inv.  90 deg rotation - cart. axis [-1,0,0]  

 cryst.   s(39) = (    -1          0          0      )
                  (     0          0          1      )
                  (     0         -1          0      )

 cart.    s(39) = ( -1.0000000  0.0000000  0.0000000 )
                  (  0.0000000  0.0000000 -1.0000000 )
                  (  0.0000000  1.0000000  0.0000000 )


      isym = 40     inv.  90 deg rotation - cart. axis [1,0,0]   

 cryst.   s(40) = (    -1          0          0      )
                  (     0          0         -1      )
                  (     0          1          0      )

 cart.    s(40) = ( -1.0000000  0.0000000  0.0000000 )
                  (  0.0000000  0.0000000  1.0000000 )
                  (  0.0000000 -1.0000000  0.0000000 )


      isym = 41     inv. 120 deg rotation - cart. axis [-1,-1,-1]

 cryst.   s(41) = (     0          0         -1      )
                  (    -1          0          0      )
                  (     0         -1          0      )

 cart.    s(41) = (  0.0000000 -1.0000000  0.0000000 )
                  (  0.0000000  0.0000000 -1.0000000 )
                  ( -1.0000000  0.0000000  0.0000000 )


      isym = 42     inv. 120 deg rotation - cart. axis [-1,1,1]  

 cryst.   s(42) = (     0          0          1      )
                  (     1          0          0      )
                  (     0         -1          0      )

 cart.    s(42) = (  0.0000000  1.0000000  0.0000000 )
                  (  0.0000000  0.0000000 -1.0000000 )
                  (  1.0000000  0.0000000  0.0000000 )


      isym = 43     inv. 120 deg rotation - cart. axis [1,1,-1]  

 cryst.   s(43) = (     0          0          1      )
                  (    -1          0          0      )
                  (     0          1          0      )

 cart.    s(43) = (  0.0000000 -1.0000000  0.0000000 )
                  (  0.0000000  0.0000000  1.0000000 )
                  (  1.0000000  0.0000000  0.0000000 )


      isym = 44     inv. 120 deg rotation - cart. axis [1,-1,1]  

 cryst.   s(44) = (     0          0         -1      )
                  (     1          0          0      )
                  (     0          1          0      )

 cart.    s(44) = (  0.0000000  1.0000000  0.0000000 )
                  (  0.0000000  0.0000000  1.0000000 )
                  ( -1.0000000  0.0000000  0.0000000 )


      isym = 45     inv. 120 deg rotation - cart. axis [1,1,1]   

 cryst.   s(45) = (     0         -1          0      )
                  (     0          0         -1      )
                  (    -1          0          0      )

 cart.    s(45) = (  0.0000000  0.0000000 -1.0000000 )
                  ( -1.0000000  0.0000000  0.0000000 )
                  (  0.0000000 -1.0000000  0.0000000 )


      isym = 46     inv. 120 deg rotation - cart. axis [-1,1,-1] 

 cryst.   s(46) = (     0          1          0      )
                  (     0          0          1      )
                  (    -1          0          0      )

 cart.    s(46) = (  0.0000000  0.0000000 -1.0000000 )
                  (  1.0000000  0.0000000  0.0000000 )
                  (  0.0000000  1.0000000  0.0000000 )


      isym = 47     inv. 120 deg rotation - cart. axis [1,-1,-1] 

 cryst.   s(47) = (     0          1          0      )
                  (     0          0         -1      )
                  (     1          0          0      )

 cart.    s(47) = (  0.0000000  0.0000000  1.0000000 )
                  (  1.0000000  0.0000000  0.0000000 )
                  (  0.0000000 -1.0000000  0.0000000 )


      isym = 48     inv. 120 deg rotation - cart. axis [-1,-1,1] 

 cryst.   s(48) = (     0         -1          0      )
                  (     0          0          1      )
                  (     1          0          0      )

 cart.    s(48) = (  0.0000000  0.0000000  1.0000000 )
                  ( -1.0000000  0.0000000  0.0000000 )
                  (  0.0000000  1.0000000  0.0000000 )


   Cartesian axes

     site n.     atom                  positions (alat units)
         1           Ir  tau(   1) = (   0.5000000   0.5000000   0.5000000  )

   Crystallographic axes

     site n.     atom                  positions (cryst. coord.)
         1           Ir  tau(   1) = (  0.5000000  0.5000000  0.5000000  )

     number of k points=     1
                       cart. coord. in units 2pi/alat
        k(    1) = (   0.0000000   0.0000000   0.0000000), wk =   1.0000000

                       cryst. coord.
        k(    1) = (   0.0000000   0.0000000   0.0000000), wk =   1.0000000

     Dense  grid:  6301473 G-vectors     FFT dimensions: ( 300, 300, 300)

     Dynamical RAM for                 wfc:       4.51 MB

     Dynamical RAM for     wfc (w. buffer):      13.52 MB

     Dynamical RAM for           str. fact:       3.00 MB

     Dynamical RAM for           local pot:       0.00 MB

     Dynamical RAM for          nlocal pot:       5.63 MB

     Dynamical RAM for                qrad:       4.63 MB

     Dynamical RAM for          rho,v,vnew:      59.23 MB

     Dynamical RAM for               rhoin:      19.74 MB

     Dynamical RAM for            rho*nmix:      96.15 MB

     Dynamical RAM for           G-vectors:      12.77 MB

     Dynamical RAM for          h,s,v(r/c):       0.00 MB

     Dynamical RAM for          <psi|beta>:       0.00 MB

     Dynamical RAM for                 psi:      18.03 MB

     Dynamical RAM for                hpsi:      18.03 MB

     Dynamical RAM for      wfcinit/wfcrot:      12.02 MB

     Estimated static dynamical RAM per process >     261.89 MB

     Estimated max dynamical RAM per process >     297.95 MB

     Estimated total dynamical RAM >       9.31 GB
     Generating pointlists ...
     new r_m :   0.4125 (alat units)  9.3541 (a.u.) for type    1

     Initial potential from superposition of free atoms

     starting charge   14.48040, renormalised to   17.00000

     negative rho (up, down):  4.107E-03 0.000E+00
     Starting wfcs are   16 randomized atomic wfcs

     total cpu time spent up to now is        8.8 secs

     Self-consistent Calculation

     iteration #  1     ecut=   400.00 Ry     beta= 0.70
     Davidson diagonalization with overlap
     ethr =  1.00E-02,  avg # of iterations = 14.0

     negative rho (up, down):  4.006E-07 5.652E-03

     total cpu time spent up to now is       23.3 secs

     total energy              =    -200.22814055 Ry
     Harris-Foulkes estimate   =    -211.41246964 Ry
     estimated scf accuracy    <      14.48773416 Ry

     total magnetization       =     3.00 Bohr mag/cell
     absolute magnetization    =     5.49 Bohr mag/cell

     iteration #  2     ecut=   400.00 Ry     beta= 0.70
     Davidson diagonalization with overlap
     ethr =  1.00E-02,  avg # of iterations =  7.0

     negative rho (up, down):  2.061E-07 5.513E-03

     total cpu time spent up to now is       35.0 secs

     total energy              =    -209.27501058 Ry
     Harris-Foulkes estimate   =    -214.19771499 Ry
     estimated scf accuracy    <       8.57637150 Ry

     total magnetization       =     3.00 Bohr mag/cell
     absolute magnetization    =     3.00 Bohr mag/cell

     iteration #  3     ecut=   400.00 Ry     beta= 0.70
     Davidson diagonalization with overlap
     ethr =  1.00E-02,  avg # of iterations =  2.5

     negative rho (up, down):  1.475E-07 5.537E-03

     total cpu time spent up to now is       42.8 secs

     total energy              =    -209.30430699 Ry
     Harris-Foulkes estimate   =    -209.84121347 Ry
     estimated scf accuracy    <       1.53716203 Ry

     total magnetization       =     3.00 Bohr mag/cell
     absolute magnetization    =     3.00 Bohr mag/cell

     iteration #  4     ecut=   400.00 Ry     beta= 0.70
     Davidson diagonalization with overlap
     ethr =  9.04E-03,  avg # of iterations =  1.0

     negative rho (up, down):  3.227E-08 5.743E-03

     total cpu time spent up to now is       49.5 secs

     total energy              =    -208.89577064 Ry
     Harris-Foulkes estimate   =    -209.34915781 Ry
     estimated scf accuracy    <       0.67106988 Ry

     total magnetization       =     3.00 Bohr mag/cell
     absolute magnetization    =     3.00 Bohr mag/cell

     iteration #  5     ecut=   400.00 Ry     beta= 0.70
     Davidson diagonalization with overlap
     ethr =  3.95E-03,  avg # of iterations =  3.5

     negative rho (up, down):  1.780E-08 5.408E-03

     total cpu time spent up to now is       58.0 secs

     total energy              =    -209.08238296 Ry
     Harris-Foulkes estimate   =    -209.20203972 Ry
     estimated scf accuracy    <       0.38289341 Ry

     total magnetization       =     3.00 Bohr mag/cell
     absolute magnetization    =     3.03 Bohr mag/cell

     iteration #  6     ecut=   400.00 Ry     beta= 0.70
     Davidson diagonalization with overlap
     ethr =  2.25E-03,  avg # of iterations =  2.5

     negative rho (up, down):  1.783E-09 3.417E-03

     total cpu time spent up to now is       65.3 secs

     total energy              =    -209.11400379 Ry
     Harris-Foulkes estimate   =    -209.11674631 Ry
     estimated scf accuracy    <       0.03183229 Ry

     total magnetization       =     3.00 Bohr mag/cell
     absolute magnetization    =     3.00 Bohr mag/cell

     iteration #  7     ecut=   400.00 Ry     beta= 0.70
     Davidson diagonalization with overlap
     ethr =  1.87E-04,  avg # of iterations =  6.0

     negative rho (up, down):  7.291E-03 1.641E-01

     total cpu time spent up to now is       74.5 secs

     total energy              =    -209.11904655 Ry
     Harris-Foulkes estimate   =    -209.12726643 Ry
     estimated scf accuracy    <       0.02324071 Ry

     total magnetization       =     3.00 Bohr mag/cell
     absolute magnetization    =     3.00 Bohr mag/cell

     iteration #  8     ecut=   400.00 Ry     beta= 0.70
     Davidson diagonalization with overlap
     ethr =  1.37E-04,  avg # of iterations =  2.0

     negative rho (up, down):  5.444E-03 1.744E-01

     total cpu time spent up to now is       81.7 secs

     total energy              =    -209.12205691 Ry
     Harris-Foulkes estimate   =    -209.12210615 Ry
     estimated scf accuracy    <       0.00513211 Ry

     total magnetization       =     3.00 Bohr mag/cell
     absolute magnetization    =     3.00 Bohr mag/cell

     iteration #  9     ecut=   400.00 Ry     beta= 0.70
     Davidson diagonalization with overlap
     ethr =  3.02E-05,  avg # of iterations =  4.0

     negative rho (up, down):  4.299E-03 1.726E-01

     total cpu time spent up to now is       89.2 secs

     total energy              =    -209.12238105 Ry
     Harris-Foulkes estimate   =    -209.12267445 Ry
     estimated scf accuracy    <       0.01193609 Ry

     total magnetization       =     3.00 Bohr mag/cell
     absolute magnetization    =     3.00 Bohr mag/cell

     iteration # 10     ecut=   400.00 Ry     beta= 0.70
     Davidson diagonalization with overlap
     ethr =  3.02E-05,  avg # of iterations =  1.0

     negative rho (up, down):  4.550E-10 1.955E-03

     total cpu time spent up to now is       96.0 secs

     total energy              =    -209.12304489 Ry
     Harris-Foulkes estimate   =    -209.12259828 Ry
     estimated scf accuracy    <       0.00497860 Ry

     total magnetization       =     3.00 Bohr mag/cell
     absolute magnetization    =     3.00 Bohr mag/cell

     iteration # 11     ecut=   400.00 Ry     beta= 0.70
     Davidson diagonalization with overlap
     ethr =  2.93E-05,  avg # of iterations =  2.0

     negative rho (up, down):  4.581E-11 9.457E-04

     total cpu time spent up to now is      103.4 secs

     total energy              =    -209.12238341 Ry
     Harris-Foulkes estimate   =    -209.12435428 Ry
     estimated scf accuracy    <       0.00787942 Ry

     total magnetization       =     3.00 Bohr mag/cell
     absolute magnetization    =     3.00 Bohr mag/cell

     iteration # 12     ecut=   400.00 Ry     beta= 0.70
     Davidson diagonalization with overlap
     ethr =  2.93E-05,  avg # of iterations =  1.0

     negative rho (up, down):  6.210E-05 2.491E-01

     total cpu time spent up to now is      110.2 secs

     total energy              =    -209.12331874 Ry
     Harris-Foulkes estimate   =    -209.12311600 Ry
     estimated scf accuracy    <       0.00193864 Ry

     total magnetization       =     3.00 Bohr mag/cell
     absolute magnetization    =     3.00 Bohr mag/cell

     iteration # 13     ecut=   400.00 Ry     beta= 0.70
     Davidson diagonalization with overlap
     ethr =  1.14E-05,  avg # of iterations =  2.0

     negative rho (up, down):  7.523E-12 9.656E-04

     total cpu time spent up to now is      117.2 secs

     total energy              =    -209.12357615 Ry
     Harris-Foulkes estimate   =    -209.12343284 Ry
     estimated scf accuracy    <       0.00093670 Ry

     total magnetization       =     3.00 Bohr mag/cell
     absolute magnetization    =     3.00 Bohr mag/cell

     iteration # 14     ecut=   400.00 Ry     beta= 0.70
     Davidson diagonalization with overlap
     ethr =  5.51E-06,  avg # of iterations = 16.5

     negative rho (up, down):  1.189E-10 7.914E-03

     total cpu time spent up to now is      128.8 secs

     total energy              =    -209.12388596 Ry
     Harris-Foulkes estimate   =    -209.12388780 Ry
     estimated scf accuracy    <       0.00313500 Ry

     total magnetization       =     3.00 Bohr mag/cell
     absolute magnetization    =     3.00 Bohr mag/cell

     iteration # 15     ecut=   400.00 Ry     beta= 0.70
     Davidson diagonalization with overlap
     ethr =  5.51E-06,  avg # of iterations =  1.5

     negative rho (up, down):  1.221E-12 1.536E-03

     total cpu time spent up to now is      135.8 secs

     total energy              =    -209.12351954 Ry
     Harris-Foulkes estimate   =    -209.12395704 Ry
     estimated scf accuracy    <       0.00325690 Ry

     total magnetization       =     3.00 Bohr mag/cell
     absolute magnetization    =     3.00 Bohr mag/cell

     iteration # 16     ecut=   400.00 Ry     beta= 0.70
     Davidson diagonalization with overlap
     ethr =  5.51E-06,  avg # of iterations =  1.0

     negative rho (up, down):  1.006E-04 2.470E-01

     total cpu time spent up to now is      142.6 secs

     total energy              =    -209.12353173 Ry
     Harris-Foulkes estimate   =    -209.12367005 Ry
     estimated scf accuracy    <       0.00068020 Ry

     total magnetization       =     3.00 Bohr mag/cell
     absolute magnetization    =     3.01 Bohr mag/cell

     iteration # 17     ecut=   400.00 Ry     beta= 0.70
     Davidson diagonalization with overlap
     ethr =  4.00E-06,  avg # of iterations =  1.0

     negative rho (up, down):  6.495E-05 2.482E-01

     total cpu time spent up to now is      149.4 secs

     total energy              =    -209.12361614 Ry
     Harris-Foulkes estimate   =    -209.12363089 Ry
     estimated scf accuracy    <       0.00012311 Ry

     total magnetization       =     3.00 Bohr mag/cell
     absolute magnetization    =     3.01 Bohr mag/cell

     iteration # 18     ecut=   400.00 Ry     beta= 0.70
     Davidson diagonalization with overlap
     ethr =  7.24E-07,  avg # of iterations =  4.0

     negative rho (up, down):  2.477E-05 2.220E-01

     total cpu time spent up to now is      157.8 secs

     total energy              =    -209.12360997 Ry
     Harris-Foulkes estimate   =    -209.12369004 Ry
     estimated scf accuracy    <       0.00064980 Ry

     total magnetization       =     3.00 Bohr mag/cell
     absolute magnetization    =     3.01 Bohr mag/cell

     iteration # 19     ecut=   400.00 Ry     beta= 0.70
     Davidson diagonalization with overlap
     ethr =  7.24E-07,  avg # of iterations =  2.0

     negative rho (up, down):  5.521E-06 2.030E-01

     total cpu time spent up to now is      165.0 secs

     total energy              =    -209.12362983 Ry
     Harris-Foulkes estimate   =    -209.12364350 Ry
     estimated scf accuracy    <       0.00003189 Ry

     total magnetization       =     3.00 Bohr mag/cell
     absolute magnetization    =     3.01 Bohr mag/cell

     iteration # 20     ecut=   400.00 Ry     beta= 0.70
     Davidson diagonalization with overlap
     ethr =  1.88E-07,  avg # of iterations =  3.0

     negative rho (up, down):  1.154E-05 2.176E-01

     total cpu time spent up to now is      172.6 secs

     total energy              =    -209.12365215 Ry
     Harris-Foulkes estimate   =    -209.12365783 Ry
     estimated scf accuracy    <       0.00012676 Ry

     total magnetization       =     3.00 Bohr mag/cell
     absolute magnetization    =     3.01 Bohr mag/cell

     iteration # 21     ecut=   400.00 Ry     beta= 0.70
     Davidson diagonalization with overlap
     ethr =  1.88E-07,  avg # of iterations =  1.0

     negative rho (up, down):  9.015E-06 2.137E-01

     total cpu time spent up to now is      179.4 secs

     total energy              =    -209.12364457 Ry
     Harris-Foulkes estimate   =    -209.12365461 Ry
     estimated scf accuracy    <       0.00007301 Ry

     total magnetization       =     3.00 Bohr mag/cell
     absolute magnetization    =     3.01 Bohr mag/cell

     iteration # 22     ecut=   400.00 Ry     beta= 0.70
     Davidson diagonalization with overlap
     ethr =  1.88E-07,  avg # of iterations =  2.0

     negative rho (up, down):  4.624E-08 3.896E-02

     total cpu time spent up to now is      186.5 secs

     total energy              =    -209.12364771 Ry
     Harris-Foulkes estimate   =    -209.12364958 Ry
     estimated scf accuracy    <       0.00001351 Ry

     total magnetization       =     3.00 Bohr mag/cell
     absolute magnetization    =     3.01 Bohr mag/cell

     iteration # 23     ecut=   400.00 Ry     beta= 0.70
     Davidson diagonalization with overlap
     ethr =  7.95E-08,  avg # of iterations =  3.0

     total cpu time spent up to now is      194.3 secs

     total energy              =    -209.12365127 Ry
     Harris-Foulkes estimate   =    -209.12365168 Ry
     estimated scf accuracy    <       0.00000646 Ry

     total magnetization       =     3.00 Bohr mag/cell
     absolute magnetization    =     3.01 Bohr mag/cell

     iteration # 24     ecut=   400.00 Ry     beta= 0.70
     Davidson diagonalization with overlap
     ethr =  3.80E-08,  avg # of iterations =  2.5

     total cpu time spent up to now is      201.4 secs

     total energy              =    -209.12365214 Ry
     Harris-Foulkes estimate   =    -209.12365201 Ry
     estimated scf accuracy    <       0.00000206 Ry

     total magnetization       =     3.00 Bohr mag/cell
     absolute magnetization    =     3.01 Bohr mag/cell

     iteration # 25     ecut=   400.00 Ry     beta= 0.70
     Davidson diagonalization with overlap
     ethr =  1.21E-08,  avg # of iterations =  3.0

     total cpu time spent up to now is      208.9 secs

     total energy              =    -209.12365200 Ry
     Harris-Foulkes estimate   =    -209.12365248 Ry
     estimated scf accuracy    <       0.00000253 Ry

     total magnetization       =     3.00 Bohr mag/cell
     absolute magnetization    =     3.01 Bohr mag/cell

     iteration # 26     ecut=   400.00 Ry     beta= 0.70
     Davidson diagonalization with overlap
     ethr =  1.21E-08,  avg # of iterations =  3.0

     negative rho (up, down):  6.333E-07 1.177E-01

     total cpu time spent up to now is      216.8 secs

     total energy              =    -209.12365111 Ry
     Harris-Foulkes estimate   =    -209.12365374 Ry
     estimated scf accuracy    <       0.00000120 Ry

     total magnetization       =     3.00 Bohr mag/cell
     absolute magnetization    =     3.01 Bohr mag/cell

     iteration # 27     ecut=   400.00 Ry     beta= 0.70
     Davidson diagonalization with overlap
     ethr =  7.05E-09,  avg # of iterations =  3.0

     negative rho (up, down):  5.635E-07 1.129E-01

     total cpu time spent up to now is      224.8 secs

     total energy              =    -209.12365318 Ry
     Harris-Foulkes estimate   =    -209.12365331 Ry
     estimated scf accuracy    <       0.00000811 Ry

     total magnetization       =     3.00 Bohr mag/cell
     absolute magnetization    =     3.01 Bohr mag/cell

     iteration # 28     ecut=   400.00 Ry     beta= 0.70
     Davidson diagonalization with overlap
     ethr =  7.05E-09,  avg # of iterations =  1.0

     negative rho (up, down):  7.263E-08 4.717E-02

     total cpu time spent up to now is      231.5 secs

     total energy              =    -209.12365108 Ry
     Harris-Foulkes estimate   =    -209.12365320 Ry
     estimated scf accuracy    <       0.00000802 Ry

     total magnetization       =     3.00 Bohr mag/cell
     absolute magnetization    =     3.01 Bohr mag/cell

     iteration # 29     ecut=   400.00 Ry     beta= 0.70
     Davidson diagonalization with overlap
     ethr =  7.05E-09,  avg # of iterations =  3.0

     negative rho (up, down):  4.196E-07 1.009E-01

     total cpu time spent up to now is      239.4 secs

     total energy              =    -209.12365264 Ry
     Harris-Foulkes estimate   =    -209.12365198 Ry
     estimated scf accuracy    <       0.00001126 Ry

     total magnetization       =     3.00 Bohr mag/cell
     absolute magnetization    =     3.01 Bohr mag/cell

     iteration # 30     ecut=   400.00 Ry     beta= 0.70
     Davidson diagonalization with overlap
     ethr =  7.05E-09,  avg # of iterations =  1.5

     negative rho (up, down):  2.327E-07 8.154E-02

     total cpu time spent up to now is      246.3 secs

     total energy              =    -209.12365245 Ry
     Harris-Foulkes estimate   =    -209.12365282 Ry
     estimated scf accuracy    <       0.00001030 Ry

     total magnetization       =     3.00 Bohr mag/cell
     absolute magnetization    =     3.01 Bohr mag/cell

     iteration # 31     ecut=   400.00 Ry     beta= 0.70
     Davidson diagonalization with overlap
     ethr =  7.05E-09,  avg # of iterations =  2.5

     negative rho (up, down):  2.213E-07 7.981E-02

     total cpu time spent up to now is      254.0 secs

     total energy              =    -209.12365351 Ry
     Harris-Foulkes estimate   =    -209.12365308 Ry
     estimated scf accuracy    <       0.00000129 Ry

     total magnetization       =     3.00 Bohr mag/cell
     absolute magnetization    =     3.01 Bohr mag/cell

     iteration # 32     ecut=   400.00 Ry     beta= 0.70
     Davidson diagonalization with overlap
     ethr =  7.05E-09,  avg # of iterations =  1.5

     negative rho (up, down):  2.960E-09 1.045E-02

     total cpu time spent up to now is      261.1 secs

     total energy              =    -209.12365438 Ry
     Harris-Foulkes estimate   =    -209.12365374 Ry
     estimated scf accuracy    <       0.00000202 Ry

     total magnetization       =     3.00 Bohr mag/cell
     absolute magnetization    =     3.01 Bohr mag/cell

     iteration # 33     ecut=   400.00 Ry     beta= 0.70
     Davidson diagonalization with overlap
     ethr =  7.05E-09,  avg # of iterations =  3.0

     total cpu time spent up to now is      268.7 secs

     total energy              =    -209.12365439 Ry
     Harris-Foulkes estimate   =    -209.12365477 Ry
     estimated scf accuracy    <       0.00000135 Ry

     total magnetization       =     3.00 Bohr mag/cell
     absolute magnetization    =     3.01 Bohr mag/cell

     iteration # 34     ecut=   400.00 Ry     beta= 0.70
     Davidson diagonalization with overlap
     ethr =  7.05E-09,  avg # of iterations =  1.0

     negative rho (up, down):  5.176E-09 1.236E-02

     total cpu time spent up to now is      275.5 secs

     total energy              =    -209.12365272 Ry
     Harris-Foulkes estimate   =    -209.12365447 Ry
     estimated scf accuracy    <       0.00000268 Ry

     total magnetization       =     3.00 Bohr mag/cell
     absolute magnetization    =     3.01 Bohr mag/cell

     iteration # 35     ecut=   400.00 Ry     beta= 0.70
     Davidson diagonalization with overlap
     ethr =  7.05E-09,  avg # of iterations =  2.0

     negative rho (up, down):  1.764E-07 7.251E-02

     total cpu time spent up to now is      282.8 secs

     total energy              =    -209.12365206 Ry
     Harris-Foulkes estimate   =    -209.12365320 Ry
     estimated scf accuracy    <       0.00000137 Ry

     total magnetization       =     3.00 Bohr mag/cell
     absolute magnetization    =     3.01 Bohr mag/cell

     iteration # 36     ecut=   400.00 Ry     beta= 0.70
     Davidson diagonalization with overlap
     ethr =  7.05E-09,  avg # of iterations =  1.5

     total cpu time spent up to now is      289.8 secs

     total energy              =    -209.12365314 Ry
     Harris-Foulkes estimate   =    -209.12365231 Ry
     estimated scf accuracy    <       0.00000131 Ry

     total magnetization       =     3.00 Bohr mag/cell
     absolute magnetization    =     3.01 Bohr mag/cell

     iteration # 37     ecut=   400.00 Ry     beta= 0.70
     Davidson diagonalization with overlap
     ethr =  7.05E-09,  avg # of iterations =  3.5
 
     Magnetic moment per site:
     atom:    1    charge:   16.9998    magn:    3.0000    constr:    0.0000

     total cpu time spent up to now is      297.5 secs

     End of self-consistent calculation

 ------ SPIN UP ------------


          k = 0.0000 0.0000 0.0000 (787683 PWs)   bands (ev):

   -96.1101 -53.4915 -53.4827 -53.3462  -6.8292  -6.8271  -6.2671  -6.0139
    -6.0070  -5.5696  -1.0629  -1.0563

     occupation numbers 
     1.0000   1.0000   1.0000   1.0000   1.0000   1.0000   1.0000   1.0000
     1.0000   1.0000   0.0000   0.0000

 ------ SPIN DOWN ----------


          k = 0.0000 0.0000 0.0000 (787683 PWs)   bands (ev):

   -94.8669 -52.0058 -51.9997 -51.8056  -4.9543  -4.9532  -4.7880  -4.6252
    -4.0670  -4.0624  -0.4068  -0.2821

     occupation numbers 
     1.0000   1.0000   1.0000   1.0000   1.0000   1.0000   1.0000   0.0000
     0.0000   0.0000   0.0000   0.0000

     highest occupied, lowest unoccupied level (ev):    -4.7880   -4.6252

!    total energy              =    -209.12365570 Ry
     Harris-Foulkes estimate   =    -209.12365523 Ry
     estimated scf accuracy    <       0.00000032 Ry

     The total energy is the sum of the following terms:

     one-electron contribution =    -290.04087163 Ry
     hartree contribution      =     138.19064000 Ry
     xc contribution           =     -21.11390878 Ry
     ewald contribution        =     -36.15951528 Ry

     total magnetization       =     3.00 Bohr mag/cell
     absolute magnetization    =     3.01 Bohr mag/cell

     convergence has been achieved in  37 iterations

     Writing output data file pwscf.save/
 
     init_run     :      8.18s CPU      8.64s WALL (       1 calls)
     electrons    :    284.51s CPU    289.58s WALL (       1 calls)

     Called by init_run:
     wfcinit      :      1.78s CPU      1.87s WALL (       1 calls)
     wfcinit:atom :      0.03s CPU      0.04s WALL (       2 calls)
     wfcinit:wfcr :      1.70s CPU      1.76s WALL (       2 calls)
     potinit      :      2.10s CPU      2.27s WALL (       1 calls)
     hinit0       :      0.21s CPU      0.35s WALL (       1 calls)

     Called by electrons:
     c_bands      :    139.99s CPU    141.87s WALL (      37 calls)
     sum_band     :     45.61s CPU     45.70s WALL (      37 calls)
     v_of_rho     :     71.82s CPU     74.24s WALL (      38 calls)
     v_h          :      5.52s CPU      5.59s WALL (      38 calls)
     v_xc         :     66.29s CPU     68.64s WALL (      38 calls)
     mix_rho      :     26.34s CPU     26.55s WALL (      37 calls)

     Called by c_bands:
     init_us_2    :      1.42s CPU      1.43s WALL (     150 calls)
     regterg      :    137.04s CPU    138.88s WALL (      74 calls)

     Called by sum_band:

     Called by *egterg:
     h_psi        :    126.41s CPU    126.72s WALL (     307 calls)
     g_psi        :      0.39s CPU      0.39s WALL (     231 calls)
     rdiaghg      :      0.33s CPU      0.35s WALL (     305 calls)
     regterg:over :      2.73s CPU      2.75s WALL (     231 calls)
     regterg:upda :      5.09s CPU      5.12s WALL (     231 calls)
     regterg:last :      1.57s CPU      1.57s WALL (      81 calls)
     rdiaghg:chol :      0.06s CPU      0.08s WALL (     305 calls)
     rdiaghg:inve :      0.01s CPU      0.01s WALL (     305 calls)
     rdiaghg:para :      0.04s CPU      0.04s WALL (     610 calls)

     Called by h_psi:
     h_psi:pot    :    125.60s CPU    125.91s WALL (     307 calls)
     h_psi:calbec :      0.85s CPU      0.87s WALL (     307 calls)
     vloc_psi     :    123.68s CPU    123.97s WALL (     307 calls)
     add_vuspsi   :      1.06s CPU      1.07s WALL (     307 calls)

     General routines
     calbec       :      0.85s CPU      0.87s WALL (     307 calls)
     fft          :     62.46s CPU     63.07s WALL (     566 calls)
     ffts         :      6.57s CPU      6.58s WALL (      74 calls)
     fftw         :    120.66s CPU    120.93s WALL (    2918 calls)
 
     Parallel routines
     fft_scatt_xy :     34.68s CPU     34.74s WALL (    3558 calls)
     fft_scatt_yz :     67.81s CPU     68.39s WALL (    3558 calls)
 
     PWSCF        :   4m53.20s CPU   5m 0.23s WALL

 
   This run was terminated on:  13:51:37  17Jan2022            

=------------------------------------------------------------------------------=
   JOB DONE.
=------------------------------------------------------------------------------=
