
 Primary working directories    : /global/cscratch1/sd/bkincaid
 Secondary working directories  : /global/cscratch1/sd/bkincaid
 Wavefunction directory         : /global/homes/b/bkincaid/wfu/
 Main file repository           : /global/cscratch1/sd/bkincaid/

 SHA1      : 19cd028119e0e09f93f0674bd8af7968d9b3eff6
 NAME      : 2015.1.36
 ARCHNAME  : linux/x86_64
 FC        : /opt/cray/pe/craype/2.5.14/bin/ftn
 BLASLIB   : -L/opt/intel/compilers_and_libraries_2018.1.163/linux/mkl/lib/intel64 -Wl,-_start-group -lmkl_intel_ilp64 -lmkl_intel_thread -lmkl_core -Wl,-_end-group -liomp5
 id        : lbl

 Nodes     nprocs
 nid01044    11
 Number of processes for MPI-2 version of Molpro:   nprocs(total)=   12   nprocs(compute)=   11   nprocs(helper)=    1

 Using customized tuning parameters: mindgm=7; mindgv=16; mindgc=1; mindgr=1; noblas=0; minvec=7
 default implementation of scratch files=sf  

 ***,Calculation for PtH groundstate
 memory,1024,m
 gthresh,twoint=1.0E-15
 gthresh,throvl=1.0E-15
                                                                                 !symmetry,nosym
 
 set,dkroll=1,dkho=10,dkhp=4
 
 ne = 79
 z = 1.6
 
 geometry={
 2
 PtH
 Pt 0.0 0.0 0.0
 H 0.0 0.0 z
 }
 
 A1=18
 B1=9
 B2=9
 A2=4
 
 basis={
 
 Including file /global/u1/b/bkincaid/molpro/Pt/molecules/PtH/tz/UC/1.6/Pt-aug-cc-pwCVTZ.basis
 
 Including file /global/u1/b/bkincaid/molpro/Pt/molecules/PtH/tz/UC/1.6/H-aug-cc-pVTZ.basis
 }
 
 {rhf
 wf,nelec=ne,spin=1,sym=4
 occ,A1,B1,B2,A2
 closed,A1,B1,B2,A2-1
 orbital,2101.2
 }
 {rhf,nitord=1,maxit=0
 start,2101.2
 wf,nelec=ne,spin=1,sym=4
 occ,A1,B1,B2,A2
 closed,A1,B1,B2,A2-1
 rotate,12.1,14.1,0
 orbital,3101.2
 }
 
 
 scf=energy
 _CC_NORM_MAX=2.0
 {rccsd(t);maxit,100;core,13,7,7,3}
 ccsd=energy
 
 table,z,scf,ccsd
 save, 3.csv, new
 

 Variables initialized (889), CPU time= 0.00 sec
 Commands  initialized (702), CPU time= 0.01 sec, 572 directives.
 Default parameters read. Elapsed time= 0.16 sec

 Checking input...
 Passed
1


                                         ***  PROGRAM SYSTEM MOLPRO  ***
                                       Copyright, TTI GmbH Stuttgart, 2015
                                    Version 2015.1 linked Dec 29 2018 15:55:43


 **********************************************************************************************************************************
 LABEL *   Calculation for PtH groundstate                                               
  64 bit mpp version                                                                     DATE: 10-Sep-21          TIME: 15:41:06  
 **********************************************************************************************************************************

 SHA1:             19cd028119e0e09f93f0674bd8af7968d9b3eff6
 **********************************************************************************************************************************

 THRESHOLDS:

 ZERO    =  1.00D-12  ONEINT  =  1.00D-12  TWOINT  =  1.00D-15  PREFAC  =  1.00D-14  LOCALI  =  1.00D-09  EORDER  =  1.00D-04
 ENERGY  =  0.00D+00  ETEST   =  0.00D+00  EDENS   =  0.00D+00  THRDEDEF=  1.00D-06  GRADIENT=  1.00D-02  STEP    =  1.00D-03
 ORBITAL =  1.00D-05  CIVEC   =  1.00D-05  COEFF   =  1.00D-04  PRINTCI =  5.00D-02  PUNCHCI =  9.90D+01  OPTGRAD =  3.00D-04
 OPTENERG=  1.00D-06  OPTSTEP =  3.00D-04  THRGRAD =  1.00D-10  COMPRESS=  1.00D-11  VARMIN  =  1.00D-07  VARMAX  =  1.00D-03
 THRDOUB =  0.00D+00  THRDIV  =  1.00D-05  THRRED  =  1.00D-07  THRPSP  =  1.00D+00  THRDC   =  1.00D-10  THRCS   =  1.00D-10
 THRNRM  =  1.00D-08  THREQ   =  0.00D+00  THRDE   =  1.00D+00  THRREF  =  1.00D-05  SPARFAC =  1.00D+00  THRDLP  =  1.00D-07
 THRDIA  =  1.00D-10  THRDLS  =  1.00D-07  THRGPS  =  0.00D+00  THRKEX  =  0.00D+00  THRDIS  =  2.00D-01  THRVAR  =  1.00D-10
 THRLOC  =  1.00D-06  THRGAP  =  1.00D-06  THRLOCT = -1.00D+00  THRGAPT = -1.00D+00  THRORB  =  1.00D-06  THRMLTP =  0.00D+00
 THRCPQCI=  1.00D-10  KEXTA   =  0.00D+00  THRCOARS=  0.00D+00  SYMTOL  =  1.00D-06  GRADTOL =  1.00D-06  THROVL  =  1.00D-08
 THRORTH =  1.00D-08  GRID    =  1.00D-06  GRIDMAX =  1.00D-03  DTMAX   =  0.00D+00  THROCCDE=  1.00D-01  THROCCDE=  1.00D-01



 THRESHOLDS:

 ZERO    =  1.00D-12  ONEINT  =  1.00D-12  TWOINT  =  1.00D-15  PREFAC  =  1.00D-14  LOCALI  =  1.00D-09  EORDER  =  1.00D-04
 ENERGY  =  0.00D+00  ETEST   =  0.00D+00  EDENS   =  0.00D+00  THRDEDEF=  1.00D-06  GRADIENT=  1.00D-02  STEP    =  1.00D-03
 ORBITAL =  1.00D-05  CIVEC   =  1.00D-05  COEFF   =  1.00D-04  PRINTCI =  5.00D-02  PUNCHCI =  9.90D+01  OPTGRAD =  3.00D-04
 OPTENERG=  1.00D-06  OPTSTEP =  3.00D-04  THRGRAD =  1.00D-10  COMPRESS=  1.00D-11  VARMIN  =  1.00D-07  VARMAX  =  1.00D-03
 THRDOUB =  0.00D+00  THRDIV  =  1.00D-05  THRRED  =  1.00D-07  THRPSP  =  1.00D+00  THRDC   =  1.00D-10  THRCS   =  1.00D-10
 THRNRM  =  1.00D-08  THREQ   =  0.00D+00  THRDE   =  1.00D+00  THRREF  =  1.00D-05  SPARFAC =  1.00D+00  THRDLP  =  1.00D-07
 THRDIA  =  1.00D-10  THRDLS  =  1.00D-07  THRGPS  =  0.00D+00  THRKEX  =  0.00D+00  THRDIS  =  2.00D-01  THRVAR  =  1.00D-10
 THRLOC  =  1.00D-06  THRGAP  =  1.00D-06  THRLOCT = -1.00D+00  THRGAPT = -1.00D+00  THRORB  =  1.00D-06  THRMLTP =  0.00D+00
 THRCPQCI=  1.00D-10  KEXTA   =  0.00D+00  THRCOARS=  0.00D+00  SYMTOL  =  1.00D-06  GRADTOL =  1.00D-06  THROVL  =  1.00D-15
 THRORTH =  1.00D-08  GRID    =  1.00D-06  GRIDMAX =  1.00D-03  DTMAX   =  0.00D+00  THROCCDE=  1.00D-01  THROCCDE=  1.00D-01


 SETTING DKROLL         =         1.00000000                                  
 SETTING DKHO           =        10.00000000                                  
 SETTING DKHP           =         4.00000000                                  
 SETTING NE             =        79.00000000                                  
 SETTING Z              =         1.60000000                                  

Geometry recognized as XYZ

 SETTING A1             =        18.00000000                                  
 SETTING B1             =         9.00000000                                  
 SETTING B2             =         9.00000000                                  
 SETTING A2             =         4.00000000                                  

 Variable memory set to 1024000000 words,  buffer space   230000 words

 SETTING BASIS          =    USERDEF


 Recomputing integrals since basis changed


 Using spherical harmonics



 PROGRAM * SEWARD (Integral evaluation for generally contracted gaussian basis sets)     Author: Roland Lindh, 1990

 Geometry written to block  1 of record 700


 Point group  C2v 



 ATOMIC COORDINATES

 NR  ATOM    CHARGE       X              Y              Z

   1  PT     78.00    0.000000000    0.000000000    0.000000000
   2  H       1.00    0.000000000    0.000000000    3.023561799

 Bond lengths in Bohr (Angstrom)

 1-2  3.023561799
     ( 1.600000000)

 NUCLEAR CHARGE:                   79
 NUMBER OF PRIMITIVE AOS:         461
 NUMBER OF SYMMETRY AOS:          372
 NUMBER OF CONTRACTIONS:          372   ( 151A1  +  89B1  +  89B2  +  43A2  )
 NUMBER OF CORE ORBITALS:          34   (  15A1  +   8B1  +   8B2  +   3A2  )
 NUMBER OF VALENCE ORBITALS:        7   (   4A1  +   1B1  +   1B2  +   1A2  )


 NUCLEAR REPULSION ENERGY   25.79738903

 One-electron integrals computed with SEWARD

 10nd-order Douglas-Kroll-Hess method activated. McWeeny DKH parametrization is used.

 Computing Douglas-Kroll / X2C integrals

 AO integral compression algorithm  1   Integral accuracy      1.0D-15

     2556.690 MB (compressed) written to integral file ( 46.2%)

     Node minimum: 84.148 MB, node maximum: 664.273 MB


 NUMBER OF SORTED TWO-ELECTRON INTEGRALS:   55986265.     BUFFER LENGTH:  32768
 NUMBER OF SEGMENTS:   2  SEGMENT LENGTH:   31969825      RECORD LENGTH: 524288

 Memory used in sort:      32.53 MW

 SORT1 READ   691865561. AND WROTE    22982248. INTEGRALS IN     67 RECORDS. CPU TIME:    11.31 SEC, REAL TIME:    14.31 SEC
 SORT2 READ   249904068. AND WROTE   615829769. INTEGRALS IN  19371 RECORDS. CPU TIME:     1.31 SEC, REAL TIME:     3.24 SEC

 Node minimum:    55944091.  Node maximum:    56068050. integrals

 OPERATOR DM      FOR CENTER  0  COORDINATES:    0.000000    0.000000    0.000000

 EXTRA SYMMETRY OF AOS IN SYMMETRY 1:   1 1 1 1 1 1 1 1 1 1   1 1 1 1 1 1 1 1 1 1   1 1 1 1 1 1 1 1 1 1   1 1 1 1 1 1 1 1 1 1
                                        1 1 1 1 1 1 1 1 1 1   1 1 1 1 1 1 1 1 1 1   1 1 1 1 1 1 1 1 1 1   1 1 1 1 1 1 1 1 1 1
                                        1 1 1 1 1 1 1 1 1 1   1 1 1 1 1 1 1 1 1 1   1 1 1 1 1 1 1 1 1 1   1 1 1 1 1 1 1 1 1 1
                                        1 1 1 1 1 1 1 1 1 1   2 1 1 2 1 1 2 1 1 1   1 1 1 1 1 1 1 1 1 1   1
 EXTRA SYMMETRY OF AOS IN SYMMETRY 2:   1 1 1 1 1 1 1 1 1 1   1 1 1 1 1 1 1 1 1 1   1 1 1 1 1 1 1 1 1 1   1 1 1 1 1 1 1 1 1 1
                                        1 1 1 1 1 2 1 2 1 2   1 2 1 2 1 2 1 2 1 2   1 2 1 2 1 2 1 2 1 2   1 2 1 2 1 2 1 2 1 2
                                        1 2 1 2 1 1 1 1 1
 EXTRA SYMMETRY OF AOS IN SYMMETRY 3:   1 1 1 1 1 1 1 1 1 1   1 1 1 1 1 1 1 1 1 1   1 1 1 1 1 1 1 1 1 1   1 1 1 1 1 1 1 1 1 1
                                        1 1 1 1 1 2 1 2 1 2   1 2 1 2 1 2 1 2 1 2   1 2 1 2 1 2 1 2 1 2   1 2 1 2 1 2 1 2 1 2
                                        1 2 1 2 1 1 1 1 1
 EXTRA SYMMETRY OF AOS IN SYMMETRY 4:   1 1 1 1 1 1 1 1 1 1   1 1 1 1 1 1 1 1 1 1   1 1 1 1 1 1 1 1 1 1   1 1 1 1 1 1 2 1 2 1
                                        2 1 1

 Eigenvalues of metric

         1 0.631E-05 0.138E-04 0.385E-04 0.593E-04 0.114E-03 0.183E-03 0.261E-03 0.320E-03
         2 0.139E-04 0.272E-03 0.795E-03 0.960E-03 0.182E-02 0.191E-02 0.215E-02 0.239E-02
         3 0.139E-04 0.272E-03 0.795E-03 0.960E-03 0.182E-02 0.191E-02 0.215E-02 0.239E-02
         4 0.824E-03 0.191E-02 0.217E-02 0.243E-02 0.658E-02 0.713E-02 0.118E-01 0.170E-01


 **********************************************************************************************************************************
 DATASETS  * FILE   NREC   LENGTH (MB)   RECORD NAMES
              1      22       22.68       500      610      700      900      950      970     1000      129      960     1700   
                                          VAR    BASINP    GEOM    SYMINP    ZMAT    AOBASIS   BASIS     P2S    ABASIS    OPER   
                                         1101     1401     1411     1412     1650     1100     1400     1410     1200     1210   
                                          SR      EKINR    POTR     PVPR    MOLCAS      S      EKIN      POT      H0       H01  
                                         1080     1600   
                                         AOSYM     SMH  

 PROGRAMS   *        TOTAL       INT
 CPU TIMES  *       116.20    115.86
 REAL TIME  *       122.92 SEC
 DISK USED  *         5.68 GB      
 GA USED    *         0.00 MB       (max)       0.00 MB       (current)
 **********************************************************************************************************************************


 PROGRAM * RHF-SCF (OPEN SHELL)       Authors: W. Meyer, H.-J. Werner


 NUMBER OF ELECTRONS:      40+   39-    SPACE SYMMETRY=4    SPIN SYMMETRY: Doublet 
 CONVERGENCE THRESHOLDS:    1.00E-05 (Density)    1.58E-07 (Energy)
 MAX. NUMBER OF ITERATIONS:       60
 INTERPOLATION TYPE:            DIIS
 INTERPOLATION STEPS:              2 (START)      1 (STEP)
 LEVEL SHIFTS:                 -0.60 (CLOSED) -0.30 (OPEN) 

 Number of closed-shell orbitals:   39 (  18   9   9   3 )
 Number of open-shell orbitals:      1 (   0   0   0   1 )


 Orbital guess generated from atomic densities. Full valence occupancy:   19   9   9   4

 Molecular orbital dump at record        2101.2

 ITERATION    DDIFF          GRAD             ENERGY        2-EL.EN.            DIPOLE MOMENTS         DIIS   ORB.
    1      0.000D+00      0.000D+00    -18390.76086854  12812.730704    0.00000    0.00000   -2.02553    0    start
    2      0.000D+00      0.423D-01    -18406.34620618  14284.909265    0.00000    0.00000    1.74687    1    diag,B
    3      0.797D+01      0.810D-01    -18410.87844326  14038.824470    0.00000    0.00000    1.06806    2    diag,B
    4      0.637D-01      0.365D-01    -18412.95072969  13888.347488    0.00000    0.00000    0.18523    3    diag,B
    5      0.660D-01      0.168D-01    -18413.60859792  13791.858235    0.00000    0.00000   -0.52888    4    diag,B
    6      0.276D-01      0.544D-02    -18413.72840959  13742.354800    0.00000    0.00000   -0.93614    5    diag,B
    7      0.127D-01      0.110D-02    -18413.73910079  13734.018799    0.00000    0.00000   -1.03095    6    fixocc
    8      0.730D-02      0.717D-03    -18413.74192359  13734.881885    0.00000    0.00000   -1.03958    7    diag,B
    9      0.285D-02      0.328D-03    -18413.74306300  13735.515177    0.00000    0.00000   -1.03476    8    diag,B
   10      0.199D-02      0.123D-03    -18413.74342245  13735.584497    0.00000    0.00000   -1.02189    9    orth
   11      0.942D-03      0.773D-04    -18413.74356704  13735.307512    0.00000    0.00000   -1.00670    9    diag,B
   12      0.180D-03      0.515D-04    -18413.74365185  13735.033241    0.00000    0.00000   -0.99082    9    diag,B
   13      0.250D-03      0.338D-04    -18413.74370368  13734.960724    0.00000    0.00000   -0.97014    9    diag,B
   14      0.220D-03      0.169D-04    -18413.74371672  13734.875982    0.00000    0.00000   -0.95832    9    diag,B
   15      0.740D-04      0.710D-05    -18413.74371811  13734.884359    0.00000    0.00000   -0.95606    9    diag,B
   16      0.498D-04      0.356D-05    -18413.74371841  13734.875590    0.00000    0.00000   -0.95506    9    diag,B
   17      0.223D-04      0.137D-05    -18413.74371844  13734.875471    0.00000    0.00000   -0.95495    9    diag,B
   18      0.646D-05      0.636D-06    -18413.74371845  13734.876995    0.00000    0.00000   -0.95497    0    orth

 Final alpha occupancy:  18   9   9   4
 Final beta  occupancy:  18   9   9   3

 !RHF STATE 1.4 Energy               -18413.7437184486    
 Nuclear energy                        25.79738903
 One-electron energy               -25306.97960500
 Two-electron energy                 6867.43849752
 Virial quotient                       -0.67627883
 !RHF STATE 1.4 Dipole moment           0.00000000     0.00000000    -0.95496955
 Dipole moment /Debye                   0.00000000     0.00000000    -2.42713151

 Orbital energies:

         1.1          2.1          3.1          4.1          5.1          6.1          7.1          8.1          9.1         10.1
  -2897.631217  -514.515878  -447.406646  -123.355385  -103.405978   -80.911567   -80.902157   -27.856171   -21.168872   -12.759910

        11.1         12.1         13.1         14.1         15.1         16.1         17.1         18.1         19.1         20.1
    -12.743218    -4.449684    -3.389578    -3.385822    -2.604531    -0.506203    -0.450944    -0.335715     0.002364     0.019648

         1.2          2.2          3.2          4.2          5.2          6.2          7.2          8.2          9.2         10.2
   -447.409148  -103.414266   -80.905706   -21.181755   -12.749562    -3.400614    -3.386722    -2.597019    -0.443204     0.031293

        11.2
      0.108052

         1.3          2.3          3.3          4.3          5.3          6.3          7.3          8.3          9.3         10.3
   -447.409148  -103.414266   -80.905706   -21.181755   -12.749562    -3.400614    -3.386722    -2.597019    -0.443204     0.031293

        11.3
      0.108052

         1.4          2.4          3.4          4.4          5.4          6.4
    -80.907395   -12.752401    -3.392193    -0.488457     0.111324     0.158039

 HOMO     18.1    -0.335715 =      -9.1353eV
 LUMO     19.1     0.002364 =       0.0643eV
 LUMO-HOMO         0.338078 =       9.1996eV


 **********************************************************************************************************************************
 DATASETS  * FILE   NREC   LENGTH (MB)   RECORD NAMES
              1      22       22.68       500      610      700      900      950      970     1000      129      960     1700   
                                          VAR    BASINP    GEOM    SYMINP    ZMAT    AOBASIS   BASIS     P2S    ABASIS    OPER   
                                         1101     1401     1411     1412     1650     1100     1400     1410     1200     1210   
                                          SR      EKINR    POTR     PVPR    MOLCAS      S      EKIN      POT      H0       H01  
                                         1080     1600   
                                         AOSYM     SMH  

              2       4        3.96       700     1000      520     2101   
                                         GEOM     BASIS   MCVARS     RHF  

 PROGRAMS   *        TOTAL       RHF       INT
 CPU TIMES  *       122.67      6.43    115.86
 REAL TIME  *       131.17 SEC
 DISK USED  *         6.04 GB      
 SF USED    *         0.16 MB      
 GA USED    *         0.00 MB       (max)       0.00 MB       (current)
 **********************************************************************************************************************************


 PROGRAM * RHF-SCF (OPEN SHELL)       Authors: W. Meyer, H.-J. Werner


 NUMBER OF ELECTRONS:      40+   39-    SPACE SYMMETRY=4    SPIN SYMMETRY: Doublet 
 CONVERGENCE THRESHOLDS:    1.00E-05 (Density)    1.58E-07 (Energy)
 MAX. NUMBER OF ITERATIONS:        0
 INTERPOLATION TYPE:            DIIS
 INTERPOLATION STEPS:              2 (START)      1 (STEP)
 LEVEL SHIFTS:                 -0.60 (CLOSED) -0.30 (OPEN) 

 Number of closed-shell orbitals:   39 (  18   9   9   3 )
 Number of open-shell orbitals:      1 (   0   0   0   1 )


 Molecular orbitals read from record     2101.2  Type=RHF/CANONICAL (state 1.4)

 Molecular orbital dump at record        3101.2
 ROTATION OF ORBITALS  12.1   14.1       90.00 DEGREES

 ITERATION    DDIFF          GRAD             ENERGY        2-EL.EN.            DIPOLE MOMENTS         DIIS   ORB.
    1      0.000D+00      0.000D+00    -18413.74371845  13734.876995    0.00000    0.00000   -0.95497    0    start

 Final alpha occupancy:  18   9   9   4
 Final beta  occupancy:  18   9   9   3

 !RHF STATE 1.4 Energy               -18413.7437184486    
 Nuclear energy                        25.79738903
 One-electron energy               -25306.97960500
 Two-electron energy                 6867.43849752
 Virial quotient                       -0.67627883
 !RHF STATE 1.4 Dipole moment           0.00000000     0.00000000    -0.95496955
 Dipole moment /Debye                   0.00000000     0.00000000    -2.42713151

 Orbital energies:

         1.1          2.1          3.1          4.1          5.1          6.1          7.1          8.1          9.1         10.1
  -2897.631217  -514.515878  -447.406646  -123.355385  -103.405978   -80.911567   -80.902157   -27.856171   -21.168872   -12.759910

        11.1         12.1         13.1         14.1         15.1         16.1         17.1         18.1         19.1         20.1
    -12.743218    -4.449684    -3.389578    -3.385822    -2.604531    -0.506203    -0.450944    -0.335715     0.002364     0.019648

         1.2          2.2          3.2          4.2          5.2          6.2          7.2          8.2          9.2         10.2
   -447.409148  -103.414266   -80.905706   -21.181755   -12.749562    -3.400614    -3.386722    -2.597019    -0.443204     0.031293

        11.2
      0.108052

         1.3          2.3          3.3          4.3          5.3          6.3          7.3          8.3          9.3         10.3
   -447.409148  -103.414266   -80.905706   -21.181755   -12.749562    -3.400614    -3.386722    -2.597019    -0.443204     0.031293

        11.3
      0.108052

         1.4          2.4          3.4          4.4          5.4          6.4
    -80.907395   -12.752401    -3.392193    -0.488457     0.111324     0.158039

 HOMO     18.1    -0.335715 =      -9.1353eV
 LUMO     19.1     0.002364 =       0.0643eV
 LUMO-HOMO         0.338078 =       9.1996eV


 **********************************************************************************************************************************
 DATASETS  * FILE   NREC   LENGTH (MB)   RECORD NAMES
              1      22       22.68       500      610      700      900      950      970     1000      129      960     1700   
                                          VAR    BASINP    GEOM    SYMINP    ZMAT    AOBASIS   BASIS     P2S    ABASIS    OPER   
                                         1101     1401     1411     1412     1650     1100     1400     1410     1200     1210   
                                          SR      EKINR    POTR     PVPR    MOLCAS      S      EKIN      POT      H0       H01  
                                         1080     1600   
                                         AOSYM     SMH  

              2       5        8.09       700     1000      520     2101     3101   
                                         GEOM     BASIS   MCVARS     RHF      RHF  

 PROGRAMS   *        TOTAL       RHF       RHF       INT
 CPU TIMES  *       123.06      0.39      6.43    115.86
 REAL TIME  *       131.69 SEC
 DISK USED  *         6.04 GB      
 SF USED    *         0.16 MB      
 GA USED    *         0.00 MB       (max)       0.00 MB       (current)
 **********************************************************************************************************************************
 SETTING SCF            =    -18413.74371845  AU                              
 SETTING _CC_NORM_MAX   =         2.00000000                                  


 PROGRAM * CCSD (Restricted open-shell coupled cluster)     Authors: C. Hampel, H.-J. Werner, 1991, M. Deegan, P.J. Knowles, 1992


 Convergence thresholds:  THRVAR = 1.00D-08  THRDEN = 1.58D-06

 CCSD(T)     terms to be evaluated (factor= 1.000)


 Number of core orbitals:          30 (  13   7   7   3 )
 Number of closed-shell orbitals:   9 (   5   2   2   0 )
 Number of active  orbitals:        1 (   0   0   0   1 )
 Number of external orbitals:     332 ( 133  80  80  39 )

 Memory could be reduced to 170.78 Mwords without degradation in triples

 Number of N-1 electron functions:              19
 Number of N-2 electron functions:             171
 Number of singly external CSFs:              2010
 Number of doubly external CSFs:           3723969
 Total number of CSFs:                     3725979

 Molecular orbitals read from record     3101.2  Type=RHF/CANONICAL (state 1.4)

 Integral transformation finished. Total CPU:   5.38 sec, npass=  1  Memory used:  18.11 MW

 Starting RMP2 calculation

 Wavefunction is spin-projected

 ITER.      SQ.NORM     CORR.ENERGY   TOTAL ENERGY   ENERGY CHANGE        DEN1      VAR(S)    VAR(P)  DIIS     TIME
   1      1.15397051    -0.66936098-18414.41307943    -0.66936098    -0.00164746  0.23D-05  0.79D-03  1  1     6.14
   2      1.15587511    -0.67112028-18414.41483873    -0.00175931    -0.00000573  0.82D-08  0.44D-05  2  2     7.04
   3      1.15599629    -0.67118215-18414.41490060    -0.00006187    -0.00000002  0.27D-10  0.21D-07  3  3     7.92
   4      1.15600010    -0.67118298-18414.41490143    -0.00000083    -0.00000000  0.50D-12  0.91D-10  4  4     8.26

 Norm of t1 vector:      0.02440539      S-energy:    -0.00232526      T1 diagnostic:  0.00003747
 Norm of t2 vector:      0.39421375      P-energy:    -0.66885772
                                         Alpha-Beta:  -0.46123576
                                         Alpha-Alpha: -0.11553237
                                         Beta-Beta:   -0.09208960

 Spin contamination <S**2-Sz**2-Sz>     0.00000000
  Reference energy                   -18413.7437184486    
  RHF-RMP2 correlation energy          -0.671182984579
 !RHF-RMP2 energy                    -18414.4149014332    
 (NB above energy spin projected)

 Starting RCCSD calculation

 ITER.      SQ.NORM     CORR.ENERGY   TOTAL ENERGY   ENERGY CHANGE        DEN1      VAR(S)    VAR(P)  DIIS     TIME
   1      1.13454549    -0.62355430-18414.36727275    -0.62355430    -0.01592326  0.49D-02  0.29D-02  1  1    12.71
   2      1.14909781    -0.63725450-18414.38097295    -0.01370020    -0.00165431  0.62D-03  0.59D-03  2  2    16.53
   3      1.15985190    -0.63967658-18414.38339503    -0.00242208    -0.00038655  0.45D-03  0.53D-04  3  3    20.72
   4      1.16850469    -0.64124165-18414.38496010    -0.00156507    -0.00010567  0.12D-03  0.17D-04  4  4    24.46
   5      1.17512993    -0.64185542-18414.38557387    -0.00061377    -0.00002854  0.38D-04  0.35D-05  5  5    28.50
   6      1.17930439    -0.64207206-18414.38579051    -0.00021664    -0.00000702  0.84D-05  0.90D-06  6  6    32.82
   7      1.18150734    -0.64216731-18414.38588576    -0.00009525    -0.00000159  0.13D-05  0.35D-06  6  1    36.89
   8      1.18191580    -0.64215367-18414.38587212     0.00001364    -0.00000022  0.14D-06  0.64D-07  6  2    42.55
   9      1.18218863    -0.64217173-18414.38589018    -0.00001806    -0.00000003  0.23D-07  0.91D-08  6  3    47.10
  10      1.18213275    -0.64216543-18414.38588388     0.00000629    -0.00000001  0.39D-08  0.15D-08  6  4    51.91
  11      1.18215416    -0.64216648-18414.38588493    -0.00000104    -0.00000000  0.84D-09  0.20D-09  6  5    56.53

 Norm of t1 vector:      0.17642871      S-energy:    -0.00242404      T1 diagnostic:  0.02819767
                                                                       D1 diagnostic:  0.11689914
 Norm of t2 vector:      0.38862202      P-energy:    -0.63974244
                                         Alpha-Beta:  -0.45896058
                                         Alpha-Alpha: -0.10021172
                                         Beta-Beta:   -0.08057014

 Singles amplitudes (print threshold =  0.500E-01):

         I         SYM. A    A   T(IA) [Alpha-Alpha]

         5         1         1     -0.05793263
 
         I         SYM. A    A   T(IA) [Beta-Beta]

         5         1         1     -0.06550317

 Spin contamination <S**2-Sz**2-Sz>     0.00000000

 Memory could be reduced to 175.96 Mwords without degradation in triples
 

  Correlated core orbitals:            14.1      15.1       8.2       8.3
  Orbital energies:                    -4.4743   -2.6116   -2.6459   -2.6459
 
  RCCSD core-core energy               -0.094544776834
  RCCSD core-valence energy            -0.207395259716
  RCCSD valence correlation energy     -0.340226441418
 

 RESULTS
 =======

  Reference energy                   -18413.7437184486    
  RCCSD singles energy                 -0.002424035026
  RCCSD pair energy                    -0.639742442942
  RCCSD correlation energy             -0.642166477968
  Triples (T) contribution             -0.027972427384
  Total correlation energy             -0.670138905352
 
  RHF-RCCSD energy                   -18414.3858849265    
  RHF-RCCSD[T] energy                -18414.4157573867    
  RHF-RCCSD-T energy                 -18414.4135813714    
 !RHF-RCCSD(T) energy                -18414.4138573539    

 Program statistics:

 Available memory in ccsd:              1023999000
 Min. memory needed in ccsd:              11076221
 Max. memory used in ccsd:                15583208
 Max. memory used in cckext:              15270820 (11 integral passes)
 Max. memory used in cckint:              18106025 ( 1 integral passes)



 **********************************************************************************************************************************
 DATASETS  * FILE   NREC   LENGTH (MB)   RECORD NAMES
              1      22       22.68       500      610      700      900      950      970     1000      129      960     1700   
                                          VAR    BASINP    GEOM    SYMINP    ZMAT    AOBASIS   BASIS     P2S    ABASIS    OPER   
                                         1101     1401     1411     1412     1650     1100     1400     1410     1200     1210   
                                          SR      EKINR    POTR     PVPR    MOLCAS      S      EKIN      POT      H0       H01  
                                         1080     1600   
                                         AOSYM     SMH  

              2       5        8.09       700     1000      520     2101     3101   
                                         GEOM     BASIS   MCVARS     RHF      RHF  

 PROGRAMS   *        TOTAL  RCCSD(T)       RHF       RHF       INT
 CPU TIMES  *       239.92    116.86      0.39      6.43    115.86
 REAL TIME  *       313.41 SEC
 DISK USED  *        11.17 GB      
 SF USED    *         2.75 GB      
 GA USED    *         0.00 MB       (max)       0.00 MB       (current)
 **********************************************************************************************************************************
 SETTING CCSD           =    -18414.41385735  AU                              
                                                                                                                                                                                                                                                                

      Z          SCF            CCSD
    1.6   -18413.74372   -18414.41386
                                                  

 RCCSD(T)/USERDEF energy= -18414.413857353931

        RCCSD(T)        RHF-SCF         RHF-SCF 
 -18414.41385735 -18413.74371845 -18413.74371845
 **********************************************************************************************************************************
 Molpro calculation terminated
 Variable memory released
