
 Primary working directories    : /global/cscratch1/sd/bkincaid
 Secondary working directories  : /global/cscratch1/sd/bkincaid
 Wavefunction directory         : /global/homes/b/bkincaid/wfu/
 Main file repository           : /global/cscratch1/sd/bkincaid/

 SHA1      : 19cd028119e0e09f93f0674bd8af7968d9b3eff6
 NAME      : 2015.1.36
 ARCHNAME  : linux/x86_64
 FC        : /opt/cray/pe/craype/2.5.14/bin/ftn
 BLASLIB   : -L/opt/intel/compilers_and_libraries_2018.1.163/linux/mkl/lib/intel64 -Wl,-_start-group -lmkl_intel_ilp64 -lmkl_intel_thread -lmkl_core -Wl,-_end-group -liomp5
 id        : lbl

 Nodes     nprocs
 nid12771    11
 Number of processes for MPI-2 version of Molpro:   nprocs(total)=   12   nprocs(compute)=   11   nprocs(helper)=    1

 Using customized tuning parameters: mindgm=7; mindgv=16; mindgc=1; mindgr=1; noblas=0; minvec=7
 default implementation of scratch files=sf  

 ***,Calculation for PtH groundstate
 memory,1024,m
 gthresh,twoint=1.0E-15
 gthresh,throvl=1.0E-15
                                                                                 !symmetry,nosym
 
 set,dkroll=1,dkho=10,dkhp=4
 
 basis={
 
 Including file /global/u1/b/bkincaid/molpro/Pt/molecules/PtH/tz/AE/1.7/H-contracted.basis
 
 Including file /global/u1/b/bkincaid/molpro/Pt/molecules/PtH/tz/AE/1.7/Pt-contracted.basis
 }
 
 ne = 79
 z = 1.7
 
 geometry={
 2
 PtH
 Pt 0.0 0.0 0.0
 H 0.0 0.0 z
 }
 
 A1=18
 B1=9
 B2=9
 A2=4
 
 {rks,pbe0
 wf,nele=ne,spin=1,sym=4
 occ,A1,B1,B2,A2
 closed,A1,B1,B2,A2-1
 }
 {rhf
 wf,nelec=ne,spin=1,sym=4
 occ,A1,B1,B2,A2
 closed,A1,B1,B2,A2-1
 }
 
 
 basis={
 
 Including file /global/u1/b/bkincaid/molpro/Pt/molecules/PtH/tz/AE/1.7/Pt-aug-cc-pwCVTZ.basis
 
 Including file /global/u1/b/bkincaid/molpro/Pt/molecules/PtH/tz/AE/1.7/H-aug-cc-pVTZ.basis
 }
 
 {rhf
 wf,nelec=ne,spin=1,sym=4
 occ,A1,B1,B2,A2
 closed,A1,B1,B2,A2-1
 }
 
 
 scf=energy
 _CC_NORM_MAX=2.0
 {rccsd(t);maxit,100;core}
 ccsd=energy
 
 table,z,scf,ccsd
 save, 3.csv, new
 

 Variables initialized (889), CPU time= 0.00 sec
 Commands  initialized (702), CPU time= 0.01 sec, 572 directives.
 Default parameters read. Elapsed time= 0.17 sec

 Checking input...
 Passed
1


                                         ***  PROGRAM SYSTEM MOLPRO  ***
                                       Copyright, TTI GmbH Stuttgart, 2015
                                    Version 2015.1 linked Dec 29 2018 15:55:43


 **********************************************************************************************************************************
 LABEL *   Calculation for PtH groundstate                                               
  64 bit mpp version                                                                     DATE: 29-Aug-21          TIME: 23:26:59  
 **********************************************************************************************************************************

 SHA1:             19cd028119e0e09f93f0674bd8af7968d9b3eff6
 **********************************************************************************************************************************

 THRESHOLDS:

 ZERO    =  1.00D-12  ONEINT  =  1.00D-12  TWOINT  =  1.00D-15  PREFAC  =  1.00D-14  LOCALI  =  1.00D-09  EORDER  =  1.00D-04
 ENERGY  =  0.00D+00  ETEST   =  0.00D+00  EDENS   =  0.00D+00  THRDEDEF=  1.00D-06  GRADIENT=  1.00D-02  STEP    =  1.00D-03
 ORBITAL =  1.00D-05  CIVEC   =  1.00D-05  COEFF   =  1.00D-04  PRINTCI =  5.00D-02  PUNCHCI =  9.90D+01  OPTGRAD =  3.00D-04
 OPTENERG=  1.00D-06  OPTSTEP =  3.00D-04  THRGRAD =  1.00D-10  COMPRESS=  1.00D-11  VARMIN  =  1.00D-07  VARMAX  =  1.00D-03
 THRDOUB =  0.00D+00  THRDIV  =  1.00D-05  THRRED  =  1.00D-07  THRPSP  =  1.00D+00  THRDC   =  1.00D-10  THRCS   =  1.00D-10
 THRNRM  =  1.00D-08  THREQ   =  0.00D+00  THRDE   =  1.00D+00  THRREF  =  1.00D-05  SPARFAC =  1.00D+00  THRDLP  =  1.00D-07
 THRDIA  =  1.00D-10  THRDLS  =  1.00D-07  THRGPS  =  0.00D+00  THRKEX  =  0.00D+00  THRDIS  =  2.00D-01  THRVAR  =  1.00D-10
 THRLOC  =  1.00D-06  THRGAP  =  1.00D-06  THRLOCT = -1.00D+00  THRGAPT = -1.00D+00  THRORB  =  1.00D-06  THRMLTP =  0.00D+00
 THRCPQCI=  1.00D-10  KEXTA   =  0.00D+00  THRCOARS=  0.00D+00  SYMTOL  =  1.00D-06  GRADTOL =  1.00D-06  THROVL  =  1.00D-08
 THRORTH =  1.00D-08  GRID    =  1.00D-06  GRIDMAX =  1.00D-03  DTMAX   =  0.00D+00  THROCCDE=  1.00D-01  THROCCDE=  1.00D-01



 THRESHOLDS:

 ZERO    =  1.00D-12  ONEINT  =  1.00D-12  TWOINT  =  1.00D-15  PREFAC  =  1.00D-14  LOCALI  =  1.00D-09  EORDER  =  1.00D-04
 ENERGY  =  0.00D+00  ETEST   =  0.00D+00  EDENS   =  0.00D+00  THRDEDEF=  1.00D-06  GRADIENT=  1.00D-02  STEP    =  1.00D-03
 ORBITAL =  1.00D-05  CIVEC   =  1.00D-05  COEFF   =  1.00D-04  PRINTCI =  5.00D-02  PUNCHCI =  9.90D+01  OPTGRAD =  3.00D-04
 OPTENERG=  1.00D-06  OPTSTEP =  3.00D-04  THRGRAD =  1.00D-10  COMPRESS=  1.00D-11  VARMIN  =  1.00D-07  VARMAX  =  1.00D-03
 THRDOUB =  0.00D+00  THRDIV  =  1.00D-05  THRRED  =  1.00D-07  THRPSP  =  1.00D+00  THRDC   =  1.00D-10  THRCS   =  1.00D-10
 THRNRM  =  1.00D-08  THREQ   =  0.00D+00  THRDE   =  1.00D+00  THRREF  =  1.00D-05  SPARFAC =  1.00D+00  THRDLP  =  1.00D-07
 THRDIA  =  1.00D-10  THRDLS  =  1.00D-07  THRGPS  =  0.00D+00  THRKEX  =  0.00D+00  THRDIS  =  2.00D-01  THRVAR  =  1.00D-10
 THRLOC  =  1.00D-06  THRGAP  =  1.00D-06  THRLOCT = -1.00D+00  THRGAPT = -1.00D+00  THRORB  =  1.00D-06  THRMLTP =  0.00D+00
 THRCPQCI=  1.00D-10  KEXTA   =  0.00D+00  THRCOARS=  0.00D+00  SYMTOL  =  1.00D-06  GRADTOL =  1.00D-06  THROVL  =  1.00D-15
 THRORTH =  1.00D-08  GRID    =  1.00D-06  GRIDMAX =  1.00D-03  DTMAX   =  0.00D+00  THROCCDE=  1.00D-01  THROCCDE=  1.00D-01


 SETTING DKROLL         =         1.00000000                                  
 SETTING DKHO           =        10.00000000                                  
 SETTING DKHP           =         4.00000000                                  

 Variable memory set to 1024000000 words,  buffer space   230000 words

 SETTING BASIS          =    USERDEF
 SETTING NE             =        79.00000000                                  
 SETTING Z              =         1.70000000                                  

Geometry recognized as XYZ

 SETTING A1             =        18.00000000                                  
 SETTING B1             =         9.00000000                                  
 SETTING B2             =         9.00000000                                  
 SETTING A2             =         4.00000000                                  


 Recomputing integrals since basis changed


 Using spherical harmonics



 PROGRAM * SEWARD (Integral evaluation for generally contracted gaussian basis sets)     Author: Roland Lindh, 1990

 Geometry written to block  1 of record 700


 Point group  C2v 



 ATOMIC COORDINATES

 NR  ATOM    CHARGE       X              Y              Z

   1  PT     78.00    0.000000000    0.000000000    0.000000000
   2  H       1.00    0.000000000    0.000000000    3.212534412

 Bond lengths in Bohr (Angstrom)

 1-2  3.212534412
     ( 1.700000000)

 NUCLEAR CHARGE:                   79
 NUMBER OF PRIMITIVE AOS:         332
 NUMBER OF SYMMETRY AOS:          273
 NUMBER OF CONTRACTIONS:          117   (  50A1  +  27B1  +  27B2  +  13A2  )
 NUMBER OF CORE ORBITALS:          34   (  15A1  +   8B1  +   8B2  +   3A2  )
 NUMBER OF VALENCE ORBITALS:        7   (   4A1  +   1B1  +   1B2  +   1A2  )


 NUCLEAR REPULSION ENERGY   24.27989556

 One-electron integrals computed with SEWARD

 10nd-order Douglas-Kroll-Hess method activated. McWeeny DKH parametrization is used.

 Computing Douglas-Kroll / X2C integrals

 AO integral compression algorithm  1   Integral accuracy      1.0D-15

     45.089 MB (compressed) written to integral file ( 80.1%)

     Node minimum: 1.573 MB, node maximum: 5.243 MB


 NUMBER OF SORTED TWO-ELECTRON INTEGRALS:     563856.     BUFFER LENGTH:  32768
 NUMBER OF SEGMENTS:   1  SEGMENT LENGTH:     563856      RECORD LENGTH: 524288

 Memory used in sort:       1.12 MW

 SORT1 READ     7118804. AND WROTE      355177. INTEGRALS IN      2 RECORDS. CPU TIME:     0.11 SEC, REAL TIME:     0.15 SEC
 SORT2 READ     3980204. AND WROTE     6257263. INTEGRALS IN    176 RECORDS. CPU TIME:     0.02 SEC, REAL TIME:     0.03 SEC

 Node minimum:      560890.  Node maximum:      579318. integrals

 OPERATOR DM      FOR CENTER  0  COORDINATES:    0.000000    0.000000    0.000000

 EXTRA SYMMETRY OF AOS IN SYMMETRY 1:   1 1 1 1 1 1 1 1 1 1   1 1 1 1 1 1 1 1 1 2   1 2 1 2 1 2 1 2 1 2   1 2 1 2 1 2 1 3 2 1
                                        1 1 1 1 1 1 1 2 1 2
 EXTRA SYMMETRY OF AOS IN SYMMETRY 2:   1 1 1 1 1 1 1 1 1 1   1 1 1 1 1 2 1 2 1 2   1 2 1 1 1 1 1
 EXTRA SYMMETRY OF AOS IN SYMMETRY 3:   1 1 1 1 1 1 1 1 1 1   1 1 1 1 1 2 1 2 1 2   1 2 1 1 1 1 1
 EXTRA SYMMETRY OF AOS IN SYMMETRY 4:   1 1 1 1 1 1 1 1 1 1   2 1 1

 Eigenvalues of metric

         1 0.760E-04 0.194E-02 0.313E-02 0.450E-02 0.902E-02 0.147E-01 0.195E-01 0.218E-01
         2 0.382E-02 0.179E-01 0.329E-01 0.572E-01 0.127E+00 0.182E+00 0.199E+00 0.358E+00
         3 0.382E-02 0.179E-01 0.329E-01 0.572E-01 0.127E+00 0.182E+00 0.199E+00 0.358E+00
         4 0.195E-01 0.173E+00 0.324E+00 0.434E+00 0.550E+00 0.868E+00 0.939E+00 0.995E+00


 **********************************************************************************************************************************
 DATASETS  * FILE   NREC   LENGTH (MB)   RECORD NAMES
              1      22       20.51       500      610      700      900      950      970     1000      129      960     1700   
                                          VAR    BASINP    GEOM    SYMINP    ZMAT    AOBASIS   BASIS     P2S    ABASIS    OPER   
                                         1101     1401     1411     1412     1650     1100     1400     1410     1200     1210   
                                          SR      EKINR    POTR     PVPR    MOLCAS      S      EKIN      POT      H0       H01  
                                         1080     1600   
                                         AOSYM     SMH  

 PROGRAMS   *        TOTAL       INT
 CPU TIMES  *         3.70      3.39
 REAL TIME  *         4.85 SEC
 DISK USED  *       121.12 MB      
 GA USED    *         0.00 MB       (max)       0.00 MB       (current)
 **********************************************************************************************************************************

 Density functional group PBE0=PBEX+PBEC
 Functional: PBEX(Automatically generated (new) PBEX)                          Gradient terms: 1
 Functional: PBEC(Automatically generated (new) PBEC)                          Gradient terms: 1
 Use grid at  1800.2
 

 Exact exchange will be calculated, factor:  0.2500

 Functional: PBEX                      Factor:  0.7500
 Functional: PBEC                      Factor:  1.0000
 
 Generated new metagrid on record  1800.2 with target accuracy 1.0D-06 and 4226 points in CPU time    0.1
 Computed new grid on record 1800.1 in CPU time    0.1
   98799 words reserved for DFT integration

 PROGRAM * RKS-SCF (Restricted open shell Kohn-Sham)     Authors: W. Meyer, H.-J. Werner, P.J. Knowles, 1993

 NUMBER OF ELECTRONS:      40+   39-    SPACE SYMMETRY=4    SPIN SYMMETRY: Doublet 
 CONVERGENCE THRESHOLDS:    1.00E-05 (Density)    1.58E-06 (Energy)
 MAX. NUMBER OF ITERATIONS:       60
 INTERPOLATION TYPE:            DIIS
 INTERPOLATION STEPS:              2 (START)      1 (STEP)
 LEVEL SHIFTS:                 -0.60 (CLOSED) -0.30 (OPEN) 

 Number of closed-shell orbitals:   39 (  18   9   9   3 )
 Number of open-shell orbitals:      1 (   0   0   0   1 )


 Use fine grid record 1800.2 for energy threshold  1.0D-06
 Orbital guess generated from atomic densities. Full valence occupancy:   19   9   9   4

 Molecular orbital dump at record        2100.2

 ITERATION    DDIFF          GRAD             ENERGY        2-EL.EN.            DIPOLE MOMENTS         DIIS   ORB.
    1      0.000D+00      0.000D+00    -18404.19741282  13550.184203    0.00000    0.00000  -26.75892    0    start
    2      0.000D+00      0.906D-01    -18410.66625739  14807.789350    0.00000    0.00000    4.39697    1    diag,B
    3      0.864D+00      0.152D+00    -18416.08064844  14524.333831    0.00000    0.00000    3.46989    2    diag,B
    4      0.145D+00      0.634D-01    -18418.09742958  14346.690448    0.00000    0.00000    1.54486    3    diag,B
    5      0.865D-01      0.201D-01    -18418.37467582  14282.581557    0.00000    0.00000    0.45098    4    diag,B
    6      0.339D-01      0.601D-02    -18418.41244351  14256.578103    0.00000    0.00000   -0.22891    5    diag,B
    7      0.180D-01      0.109D-02    -18418.41537223  14255.455340    0.00000    0.00000   -0.32119    6    fixocc
    8      0.555D-02      0.629D-03    -18418.41692015  14255.854816    0.00000    0.00000   -0.42841    7    diag,B
    9      0.390D-02      0.412D-03    -18418.41807244  14256.450424    0.00000    0.00000   -0.52099    8    diag,B
   10      0.438D-02      0.197D-03    -18418.41833184  14256.492145    0.00000    0.00000   -0.56346    9    orth
   11      0.143D-02      0.108D-03    -18418.41842879  14256.630948    0.00000    0.00000   -0.57929    9    diag,B
   12      0.638D-03      0.626D-04    -18418.41847020  14256.741521    0.00000    0.00000   -0.59157    9    diag,B
   13      0.527D-03      0.225D-04    -18418.41847402  14256.765010    0.00000    0.00000   -0.59734    9    diag,B
   14      0.209D-03      0.807D-05    -18418.41847438  14256.770786    0.00000    0.00000   -0.59941    9    diag,B
   15      0.840D-04      0.283D-05    -18418.41847442  14256.773487    0.00000    0.00000   -0.60015    9    diag,B
   16      0.275D-04      0.930D-06    -18418.41847442  14256.775719    0.00000    0.00000   -0.60031    9    diag,B
   17      0.643D-05      0.362D-06    -18418.41847442  14256.774344    0.00000    0.00000   -0.60032    0    orth

 Final alpha occupancy:  18   9   9   4
 Final beta  occupancy:  18   9   9   3

 !RKS STATE 1.4 Energy               -18418.4184744249    
 Nuclear energy                        24.27989556
 One-electron energy               -25298.32077603
 Two-electron energy                 7128.38717195
 Density functional                  -272.76476590     PBEX=-357.34889480 PBEC=  -4.75309480
 Virial quotient                       -0.68427690
 !RKS STATE 1.4 Dipole moment           0.00000000     0.00000000    -0.60032343
 Dipole moment /Debye                   0.00000000     0.00000000    -1.52577002

 Orbital energies:

         1.1          2.1          3.1          4.1          5.1          6.1          7.1          8.1          9.1         10.1
  -2878.609710  -507.126094  -441.221348  -119.808952  -100.443164   -78.610617   -78.603767   -26.101565   -19.679877   -11.662697

        11.1         12.1         13.1         14.1         15.1         16.1         17.1         18.1         19.1         20.1
    -11.651774    -3.934652    -2.806987    -2.805060    -2.222129    -0.376787    -0.295330    -0.257583    -0.083518     0.037195

         1.2          2.2          3.2          4.2          5.2          6.2          7.2          8.2          9.2         10.2
   -441.224214  -100.451533   -78.605359   -19.694163   -11.653547    -2.819563    -2.805519    -2.227183    -0.296143     0.045006

        11.2
      0.217935

         1.3          2.3          3.3          4.3          5.3          6.3          7.3          8.3          9.3         10.3
   -441.224214  -100.451533   -78.605359   -19.694163   -11.653547    -2.819563    -2.805519    -2.227183    -0.296143     0.045006

        11.3
      0.217935

         1.4          2.4          3.4          4.4          5.4          6.4
    -78.611037   -11.666296    -2.811304    -0.330097     0.577716     0.719284

 HOMO     18.1    -0.257583 =      -7.0092eV
 LUMO     19.1    -0.083518 =      -2.2726eV
 LUMO-HOMO         0.174065 =       4.7366eV


 **********************************************************************************************************************************
 DATASETS  * FILE   NREC   LENGTH (MB)   RECORD NAMES
              1      23       20.51       500      610      700      900      950      970     1000      129      960     1700   
                                          VAR    BASINP    GEOM    SYMINP    ZMAT    AOBASIS   BASIS     P2S    ABASIS    OPER   
                                         1101     1401     1411     1412     1650     1100     1400     1410     1200     1210   
                                          SR      EKINR    POTR     PVPR    MOLCAS      S      EKIN      POT      H0       H01  
                                         1080     1600     1800   
                                         AOSYM     SMH     GRID   

              2       5        2.91       700     1000      520     1800     2100   
                                         GEOM     BASIS   MCVARS    GRID      RKS  

 PROGRAMS   *        TOTAL       RKS       INT
 CPU TIMES  *         4.23      0.54      3.39
 REAL TIME  *         5.63 SEC
 DISK USED  *       386.20 MB      
 SF USED    *         0.02 MB      
 GA USED    *         0.20 MB       (max)       0.20 MB       (current)
 **********************************************************************************************************************************


 PROGRAM * RHF-SCF (OPEN SHELL)       Authors: W. Meyer, H.-J. Werner


 NUMBER OF ELECTRONS:      40+   39-    SPACE SYMMETRY=4    SPIN SYMMETRY: Doublet 
 CONVERGENCE THRESHOLDS:    1.00E-05 (Density)    1.58E-07 (Energy)
 MAX. NUMBER OF ITERATIONS:       60
 INTERPOLATION TYPE:            DIIS
 INTERPOLATION STEPS:              2 (START)      1 (STEP)
 LEVEL SHIFTS:                 -0.60 (CLOSED) -0.30 (OPEN) 

 Number of closed-shell orbitals:   39 (  18   9   9   3 )
 Number of open-shell orbitals:      1 (   0   0   0   1 )


 Molecular orbitals read from record     2100.2  Type=RKS/CANONICAL (state 1.4)

 Molecular orbital dump at record        2101.2

 ITERATION    DDIFF          GRAD             ENERGY        2-EL.EN.            DIPOLE MOMENTS         DIIS   ORB.
    1      0.000D+00      0.000D+00    -18412.83258339  13722.416594    0.00000    0.00000   -0.60032    0    start
    2      0.000D+00      0.274D-01    -18412.85300957  13737.084577    0.00000    0.00000   -0.72613    1    diag,B
    3      0.110D-01      0.337D-02    -18412.85581570  13728.364756    0.00000    0.00000   -0.80168    2    diag,B
    4      0.334D-02      0.153D-02    -18412.85679500  13732.342556    0.00000    0.00000   -0.83947    3    diag,B
    5      0.106D-02      0.553D-03    -18412.85755604  13731.640865    0.00000    0.00000   -0.90593    4    diag,B
    6      0.140D-02      0.278D-03    -18412.85799261  13731.880812    0.00000    0.00000   -0.97248    5    diag,B
    7      0.120D-02      0.148D-03    -18412.85814020  13731.845605    0.00000    0.00000   -1.00891    6    diag,B
    8      0.650D-03      0.100D-03    -18412.85823389  13732.000198    0.00000    0.00000   -1.03358    7    orth
    9      0.715D-03      0.606D-04    -18412.85827202  13732.127381    0.00000    0.00000   -1.04834    8    diag,B
   10      0.593D-03      0.337D-04    -18412.85828246  13732.192761    0.00000    0.00000   -1.05493    9    diag,B
   11      0.352D-03      0.172D-04    -18412.85828475  13732.236405    0.00000    0.00000   -1.05759    9    diag,B
   12      0.166D-03      0.648D-05    -18412.85828495  13732.239083    0.00000    0.00000   -1.05833    9    diag,B
   13      0.306D-04      0.324D-05    -18412.85828500  13732.241622    0.00000    0.00000   -1.05858    9    diag,B
   14      0.316D-04      0.744D-06    -18412.85828500  13732.241272    0.00000    0.00000   -1.05867    9    diag,B
   15      0.457D-05      0.283D-06    -18412.85828500  13732.241149    0.00000    0.00000   -1.05869    0    orth

 Final alpha occupancy:  18   9   9   4
 Final beta  occupancy:  18   9   9   3

 !RHF STATE 1.4 Energy               -18412.8582850028    
 Nuclear energy                        24.27989556
 One-electron energy               -25303.25875515
 Two-electron energy                 6866.12057459
 Virial quotient                       -0.68396481
 !RHF STATE 1.4 Dipole moment           0.00000000     0.00000000    -1.05869080
 Dipole moment /Debye                   0.00000000     0.00000000    -2.69074736

 Orbital energies:

         1.1          2.1          3.1          4.1          5.1          6.1          7.1          8.1          9.1         10.1
  -2897.406690  -514.476947  -447.416375  -123.327393  -103.398334   -80.906587   -80.897067   -27.839546   -21.158897   -12.752259

        11.1         12.1         13.1         14.1         15.1         16.1         17.1         18.1         19.1         20.1
    -12.734836    -4.439571    -3.380645    -3.376273    -2.595197    -0.480278    -0.445192    -0.333995     0.028941     0.076225

         1.2          2.2          3.2          4.2          5.2          6.2          7.2          8.2          9.2         10.2
   -447.418969  -103.406919   -80.900477   -21.172819   -12.741135    -3.392443    -3.377368    -2.590169    -0.434875     0.158484

        11.2
      0.322252

         1.3          2.3          3.3          4.3          5.3          6.3          7.3          8.3          9.3         10.3
   -447.418969  -103.406919   -80.900477   -21.172819   -12.741135    -3.392443    -3.377368    -2.590169    -0.434875     0.158484

        11.3
      0.322252

         1.4          2.4          3.4          4.4          5.4          6.4
    -80.902709   -12.745050    -3.383375    -0.482423     0.742740     0.879174

 HOMO     18.1    -0.333995 =      -9.0885eV
 LUMO     19.1     0.028941 =       0.7875eV
 LUMO-HOMO         0.362936 =       9.8760eV


 **********************************************************************************************************************************
 DATASETS  * FILE   NREC   LENGTH (MB)   RECORD NAMES
              1      23       20.51       500      610      700      900      950      970     1000      129      960     1700   
                                          VAR    BASINP    GEOM    SYMINP    ZMAT    AOBASIS   BASIS     P2S    ABASIS    OPER   
                                         1101     1401     1411     1412     1650     1100     1400     1410     1200     1210   
                                          SR      EKINR    POTR     PVPR    MOLCAS      S      EKIN      POT      H0       H01  
                                         1080     1600     1800   
                                         AOSYM     SMH     GRID   

              2       6        5.57       700     1000      520     1800     2100     2101   
                                         GEOM     BASIS   MCVARS    GRID      RKS      RHF  

 PROGRAMS   *        TOTAL       RHF       RKS       INT
 CPU TIMES  *         4.37      0.12      0.54      3.39
 REAL TIME  *         5.90 SEC
 DISK USED  *       415.44 MB      
 SF USED    *         0.02 MB      
 GA USED    *         0.20 MB       (max)       0.20 MB       (current)
 **********************************************************************************************************************************
 SETTING BASIS          =    USERDEF


 Recomputing integrals since basis changed


 Using spherical harmonics



 PROGRAM * SEWARD (Integral evaluation for generally contracted gaussian basis sets)     Author: Roland Lindh, 1990

 Geometry written to block  1 of record 700


 Point group  C2v 



 ATOMIC COORDINATES

 NR  ATOM    CHARGE       X              Y              Z

   1  PT     78.00    0.000000000    0.000000000    0.000000000
   2  H       1.00    0.000000000    0.000000000    3.212534412

 Bond lengths in Bohr (Angstrom)

 1-2  3.212534412
     ( 1.700000000)

 NUCLEAR CHARGE:                   79
 NUMBER OF PRIMITIVE AOS:         461
 NUMBER OF SYMMETRY AOS:          372
 NUMBER OF CONTRACTIONS:          372   ( 151A1  +  89B1  +  89B2  +  43A2  )
 NUMBER OF CORE ORBITALS:          34   (  15A1  +   8B1  +   8B2  +   3A2  )
 NUMBER OF VALENCE ORBITALS:        7   (   4A1  +   1B1  +   1B2  +   1A2  )


 NUCLEAR REPULSION ENERGY   24.27989556

 One-electron integrals computed with SEWARD

 10nd-order Douglas-Kroll-Hess method activated. McWeeny DKH parametrization is used.

 Computing Douglas-Kroll / X2C integrals

 AO integral compression algorithm  1   Integral accuracy      1.0D-15

     2540.962 MB (compressed) written to integral file ( 45.9%)

     Node minimum: 83.624 MB, node maximum: 664.273 MB


 NUMBER OF SORTED TWO-ELECTRON INTEGRALS:   55986265.     BUFFER LENGTH:  32768
 NUMBER OF SEGMENTS:   2  SEGMENT LENGTH:   31969825      RECORD LENGTH: 524288

 Memory used in sort:      32.53 MW

 SORT1 READ   691865561. AND WROTE    22878394. INTEGRALS IN     67 RECORDS. CPU TIME:    11.25 SEC, REAL TIME:    13.90 SEC
 SORT2 READ   248779750. AND WROTE   615829769. INTEGRALS IN   3509 RECORDS. CPU TIME:     1.53 SEC, REAL TIME:     3.08 SEC

 Node minimum:    55944091.  Node maximum:    56068050. integrals

 OPERATOR DM      FOR CENTER  0  COORDINATES:    0.000000    0.000000    0.000000

 EXTRA SYMMETRY OF AOS IN SYMMETRY 1:   1 1 1 1 1 1 1 1 1 1   1 1 1 1 1 1 1 1 1 1   1 1 1 1 1 1 1 1 1 1   1 1 1 1 1 1 1 1 1 1
                                        1 1 1 1 1 1 1 1 1 1   1 1 1 1 1 1 1 1 1 1   2 1 2 1 2 1 2 1 2 1   2 1 2 1 2 1 2 1 2 1
                                        2 1 2 1 2 1 2 1 2 1   2 1 2 1 2 1 2 1 2 1   2 1 2 1 2 1 2 1 2 1   2 1 2 1 2 1 2 1 2 1
                                        2 1 2 1 2 1 2 1 2 1   3 2 1 3 2 1 3 2 1 1   1 1 1 1 1 1 1 1 2 1   2
 EXTRA SYMMETRY OF AOS IN SYMMETRY 2:   1 1 1 1 1 1 1 1 1 1   1 1 1 1 1 1 1 1 1 1   1 1 1 1 1 1 1 1 1 1   1 1 1 1 1 1 1 1 1 1
                                        1 1 1 1 1 2 1 2 1 2   1 2 1 2 1 2 1 2 1 2   1 2 1 2 1 2 1 2 1 2   1 2 1 2 1 2 1 2 1 2
                                        1 2 1 2 1 1 1 1 1
 EXTRA SYMMETRY OF AOS IN SYMMETRY 3:   1 1 1 1 1 1 1 1 1 1   1 1 1 1 1 1 1 1 1 1   1 1 1 1 1 1 1 1 1 1   1 1 1 1 1 1 1 1 1 1
                                        1 1 1 1 1 2 1 2 1 2   1 2 1 2 1 2 1 2 1 2   1 2 1 2 1 2 1 2 1 2   1 2 1 2 1 2 1 2 1 2
                                        1 2 1 2 1 1 1 1 1
 EXTRA SYMMETRY OF AOS IN SYMMETRY 4:   1 1 1 1 1 1 1 1 1 1   1 1 1 1 1 1 1 1 1 1   1 1 1 1 1 1 1 1 1 1   1 1 1 1 1 1 2 1 2 1
                                        2 1 1

 Eigenvalues of metric

         1 0.631E-05 0.138E-04 0.386E-04 0.598E-04 0.114E-03 0.183E-03 0.264E-03 0.321E-03
         2 0.139E-04 0.272E-03 0.796E-03 0.961E-03 0.185E-02 0.191E-02 0.215E-02 0.240E-02
         3 0.139E-04 0.272E-03 0.796E-03 0.961E-03 0.185E-02 0.191E-02 0.215E-02 0.240E-02
         4 0.824E-03 0.191E-02 0.217E-02 0.243E-02 0.658E-02 0.713E-02 0.118E-01 0.171E-01


 **********************************************************************************************************************************
 DATASETS  * FILE   NREC   LENGTH (MB)   RECORD NAMES
              1      22       22.68       500      610      700      900      950      970     1001      129      960     1700   
                                          VAR    BASINP    GEOM    SYMINP    ZMAT    AOBASIS   BASIS     P2S    ABASIS    OPER   
                                         1101     1401     1411     1412     1650     1100     1400     1410     1200     1210   
                                          SR      EKINR    POTR     PVPR    MOLCAS      S      EKIN      POT      H0       H01  
                                         1080     1600   
                                         AOSYM     SMH  

              2       7        5.68       700     1000      520     1800     2100     2101     1001   
                                         GEOM     BASIS   MCVARS    GRID      RKS      RHF     BASIS   

 PROGRAMS   *        TOTAL       INT       RHF       RKS       INT
 CPU TIMES  *       119.99    115.61      0.12      0.54      3.39
 REAL TIME  *       126.93 SEC
 DISK USED  *         5.95 GB      
 SF USED    *         0.02 MB      
 GA USED    *         0.20 MB       (max)       0.00 MB       (current)
 **********************************************************************************************************************************


 PROGRAM * RHF-SCF (OPEN SHELL)       Authors: W. Meyer, H.-J. Werner


 NUMBER OF ELECTRONS:      40+   39-    SPACE SYMMETRY=4    SPIN SYMMETRY: Doublet 
 CONVERGENCE THRESHOLDS:    1.00E-05 (Density)    1.58E-07 (Energy)
 MAX. NUMBER OF ITERATIONS:       60
 INTERPOLATION TYPE:            DIIS
 INTERPOLATION STEPS:              2 (START)      1 (STEP)
 LEVEL SHIFTS:                 -0.60 (CLOSED) -0.30 (OPEN) 

 Number of closed-shell orbitals:   39 (  18   9   9   3 )
 Number of open-shell orbitals:      1 (   0   0   0   1 )


 Molecular orbitals read from record     2101.2  Type=RHF/CANONICAL (state 1.4)
 
 Present basis size:     151  89  89  43
 Previous basis size:     50  27  27  13
 Previous occupation:     18   9   9   4
 Previous closed-shells:  18   9   9   3
 Previous core-orbitals:  15   8   8   3
 Present occupation:      18   9   9   4
 Present closed-shells:   18   9   9   3
 Present core-orbitals:   15   8   8   3
 Wavefunction symmetry:    4   Doublet 

 Orbital overlap <old|new>:  < 1.1| 1.1> = 1.000000   < 2.1| 2.1> = 1.000000   < 3.1| 3.1> = 1.000000   < 4.1| 4.1> = 1.000000
                             < 5.1| 5.1> = 1.000000   < 6.1| 6.1> = 1.000000   < 7.1| 7.1> = 1.000000   < 8.1| 8.1> = 1.000000
                             < 9.1| 9.1> = 1.000000   <10.1|10.1> = 1.000000   <11.1|11.1> = 1.000000   <12.1|12.1> = 0.999999
                             <13.1|13.1> = 0.999999   <14.1|14.1> = 0.999999   <15.1|15.1> = 0.999999   < 1.2| 1.2> = 1.000000
                             < 2.2| 2.2> = 1.000000   < 3.2| 3.2> = 1.000000   < 4.2| 4.2> = 1.000000   < 5.2| 5.2> = 1.000000
                             < 6.2| 6.2> = 0.999999   < 7.2| 7.2> = 0.999999   < 8.2| 8.2> = 0.999999   < 1.3| 1.3> = 1.000000
                             < 2.3| 2.3> = 1.000000   < 3.3| 3.3> = 1.000000   < 4.3| 4.3> = 1.000000   < 5.3| 5.3> = 1.000000
                             < 6.3| 6.3> = 0.999999   < 7.3| 7.3> = 0.999999   < 8.3| 8.3> = 0.999999   < 1.4| 1.4> = 1.000000
                             < 2.4| 2.4> = 1.000000   < 3.4| 3.4> = 0.999999   <16.1|16.1> = 0.999981   <17.1|17.1> = 0.999943
                             <18.1|18.1> = 0.999985   < 9.2| 9.2> = 0.999946   < 9.3| 9.3> = 0.999946   < 4.4| 4.4> = 0.999946

 Molecular orbital dump at record        2102.2

 ITERATION    DDIFF          GRAD             ENERGY        2-EL.EN.            DIPOLE MOMENTS         DIIS   ORB.
    1      0.000D+00      0.000D+00    -18413.01714915  13732.335589    0.00000    0.00000   -1.05907    0    start
    2      0.000D+00      0.832D+01    -18413.73719726  13733.225069    0.00000    0.00000   -1.04512    1    diag,B
    3      0.169D-01      0.147D-02    -18413.73808523  13732.489661    0.00000    0.00000   -1.03607    2    diag,B
    4      0.114D-02      0.187D-03    -18413.73835071  13732.649089    0.00000    0.00000   -1.02919    3    diag,B
    5      0.480D-03      0.109D-03    -18413.73846330  13732.262010    0.00000    0.00000   -1.02483    4    diag,B
    6      0.316D-03      0.722D-04    -18413.73852559  13732.352802    0.00000    0.00000   -1.02007    5    diag,B
    7      0.323D-03      0.278D-04    -18413.73853837  13732.299492    0.00000    0.00000   -1.01952    6    diag,B
    8      0.100D-03      0.159D-04    -18413.73854508  13732.341648    0.00000    0.00000   -1.02106    7    orth
    9      0.444D-04      0.103D-04    -18413.73854899  13732.366156    0.00000    0.00000   -1.02405    8    diag,B
   10      0.239D-04      0.658D-05    -18413.73855111  13732.396804    0.00000    0.00000   -1.02775    9    diag,B
   11      0.218D-04      0.350D-05    -18413.73855162  13732.402787    0.00000    0.00000   -1.02979    9    diag,B
   12      0.119D-04      0.186D-05    -18413.73855173  13732.408078    0.00000    0.00000   -1.03064    9    diag,B
   13      0.539D-05      0.837D-06    -18413.73855173  13732.408034    0.00000    0.00000   -1.03068    0    orth

 Final alpha occupancy:  18   9   9   4
 Final beta  occupancy:  18   9   9   3

 !RHF STATE 1.4 Energy               -18413.7385517349    
 Nuclear energy                        24.27989556
 One-electron energy               -25304.22246437
 Two-electron energy                 6866.20401708
 Virial quotient                       -0.67628253
 !RHF STATE 1.4 Dipole moment           0.00000000     0.00000000    -1.03068352
 Dipole moment /Debye                   0.00000000     0.00000000    -2.61956462

 Orbital energies:

         1.1          2.1          3.1          4.1          5.1          6.1          7.1          8.1          9.1         10.1
  -2897.628245  -514.512429  -447.403179  -123.351879  -103.402183   -80.908400   -80.898679   -27.852585   -21.164777   -12.756996

        11.1         12.1         13.1         14.1         15.1         16.1         17.1         18.1         19.1         20.1
    -12.739617    -4.445790    -3.386262    -3.381834    -2.599559    -0.484430    -0.449652    -0.338009    -0.000397     0.019022

         1.2          2.2          3.2          4.2          5.2          6.2          7.2          8.2          9.2         10.2
   -447.405851  -103.411049   -80.902181   -21.178671   -12.745916    -3.397843    -3.382943    -2.594602    -0.439202     0.031269

        11.2
      0.108651

         1.3          2.3          3.3          4.3          5.3          6.3          7.3          8.3          9.3         10.3
   -447.405851  -103.411049   -80.902181   -21.178671   -12.745916    -3.397843    -3.382943    -2.594602    -0.439202     0.031269

        11.3
      0.108651

         1.4          2.4          3.4          4.4          5.4          6.4
    -80.904235   -12.749501    -3.388874    -0.487147     0.110915     0.158123

 HOMO     18.1    -0.338009 =      -9.1977eV
 LUMO     19.1    -0.000397 =      -0.0108eV
 LUMO-HOMO         0.337612 =       9.1869eV


 **********************************************************************************************************************************
 DATASETS  * FILE   NREC   LENGTH (MB)   RECORD NAMES
              1      22       22.68       500      610      700      900      950      970     1001      129      960     1700   
                                          VAR    BASINP    GEOM    SYMINP    ZMAT    AOBASIS   BASIS     P2S    ABASIS    OPER   
                                         1101     1401     1411     1412     1650     1100     1400     1410     1200     1210   
                                          SR      EKINR    POTR     PVPR    MOLCAS      S      EKIN      POT      H0       H01  
                                         1080     1600   
                                         AOSYM     SMH  

              2       8        9.31       700     1000      520     1800     2100     2101     1001     2102   
                                         GEOM     BASIS   MCVARS    GRID      RKS      RHF     BASIS     RHF  

 PROGRAMS   *        TOTAL       RHF       INT       RHF       RKS       INT
 CPU TIMES  *       124.34      4.32    115.61      0.12      0.54      3.39
 REAL TIME  *       132.87 SEC
 DISK USED  *         6.08 GB      
 SF USED    *         0.16 MB      
 GA USED    *         0.20 MB       (max)       0.00 MB       (current)
 **********************************************************************************************************************************
 SETTING SCF            =    -18413.73855173  AU                              
 SETTING _CC_NORM_MAX   =         2.00000000                                  


 PROGRAM * CCSD (Restricted open-shell coupled cluster)     Authors: C. Hampel, H.-J. Werner, 1991, M. Deegan, P.J. Knowles, 1992


 Convergence thresholds:  THRVAR = 1.00D-08  THRDEN = 1.58D-06

 CCSD(T)     terms to be evaluated (factor= 1.000)


 Number of closed-shell orbitals:  39 (  18   9   9   3 )
 Number of active  orbitals:        1 (   0   0   0   1 )
 Number of external orbitals:     332 ( 133  80  80  39 )

 Memory could be reduced to 693.58 Mwords without degradation in triples

 Number of N-1 electron functions:              79
 Number of N-2 electron functions:            3081
 Number of singly external CSFs:              7948
 Number of doubly external CSFs:          65530884
 Total number of CSFs:                    65538832

 Molecular orbitals read from record     2102.2  Type=RHF/CANONICAL (state 1.4)

 Integral transformation finished. Total CPU:  27.11 sec, npass=  1  Memory used:  76.87 MW

 Starting RMP2 calculation

 Wavefunction is spin-projected

 ITER.      SQ.NORM     CORR.ENERGY   TOTAL ENERGY   ENERGY CHANGE        DEN1      VAR(S)    VAR(P)  DIIS     TIME
   1      1.20051427    -3.39413755-18417.13268928    -3.39413755    -0.00172609  0.24D-05  0.80D-03  1  1    39.79
   2      1.20242435    -3.39595149-18417.13450323    -0.00181394    -0.00000799  0.13D-07  0.61D-05  2  2    57.24
   3      1.20257927    -3.39604054-18417.13459227    -0.00008905    -0.00000004  0.41D-10  0.31D-07  3  3    71.87
   4      1.20258471    -3.39604167-18417.13459341    -0.00000113    -0.00000000  0.63D-12  0.15D-09  4  4   100.26

 Norm of t1 vector:      0.02480274      S-energy:    -0.00248661      T1 diagnostic:  0.00001934
 Norm of t2 vector:      0.44941020      P-energy:    -3.39355506
                                         Alpha-Beta:  -2.17800019
                                         Alpha-Alpha: -0.62059739
                                         Beta-Beta:   -0.59495748

 Spin contamination <S**2-Sz**2-Sz>     0.00000000
  Reference energy                   -18413.7385517349    
  RHF-RMP2 correlation energy          -3.396041673951
 !RHF-RMP2 energy                    -18417.1345934088    
 (NB above energy spin projected)

 Starting RCCSD calculation

 ITER.      SQ.NORM     CORR.ENERGY   TOTAL ENERGY   ENERGY CHANGE        DEN1      VAR(S)    VAR(P)  DIIS     TIME
   1      1.15664562    -3.03098068-18416.76953242    -3.03098068    -0.11545247  0.70D-02  0.77D-02  0  0   272.52
   2      1.18037365    -3.13658657-18416.87513831    -0.10560589    -0.01168324  0.63D-03  0.13D-02  0  0   438.68
   3      1.18540318    -3.10871977-18416.84727150     0.02786681    -0.00189670  0.78D-03  0.15D-03  1  1   621.56
   4      1.19072444    -3.11691988-18416.85547161    -0.00820011    -0.00033054  0.35D-03  0.64D-04  2  2   800.09
   5      1.19972690    -3.11834819-18416.85689992    -0.00142831    -0.00011280  0.14D-03  0.16D-04  3  3   963.39
   6      1.21048469    -3.11943176-18416.85798350    -0.00108358    -0.00002912  0.31D-04  0.50D-05  4  4  1134.53
   7      1.21546794    -3.11947600-18416.85802774    -0.00004424    -0.00000623  0.63D-05  0.97D-06  5  5  1298.10
   8      1.21687008    -3.11947749-18416.85802922    -0.00000149    -0.00000215  0.15D-05  0.56D-06  6  6  1466.20
   9      1.21788534    -3.11953468-18416.85808641    -0.00005719    -0.00000045  0.34D-06  0.11D-06  6  1  1638.37
  10      1.21785277    -3.11953860-18416.85809034    -0.00000393    -0.00000005  0.31D-07  0.15D-07  6  2  1809.26
  11      1.21782538    -3.11953436-18416.85808610     0.00000424    -0.00000001  0.66D-08  0.22D-08  6  3  2000.34
  12      1.21782811    -3.11953498-18416.85808672    -0.00000062    -0.00000000  0.12D-08  0.53D-09  6  4  2169.73

 Norm of t1 vector:      0.19930305      S-energy:    -0.00247075      T1 diagnostic:  0.01568686
                                                                       D1 diagnostic:  0.13275530
 Norm of t2 vector:      0.42202655      P-energy:    -3.11706423
                                         Alpha-Beta:  -2.05124705
                                         Alpha-Alpha: -0.54314646
                                         Beta-Beta:   -0.52267072

 Singles amplitudes (print threshold =  0.500E-01):

         I         SYM. A    A   T(IA) [Alpha-Alpha]

        18         1         1      0.07731354
        18         1         2     -0.05241578
        18         1         4      0.05388366
 
         I         SYM. A    A   T(IA) [Beta-Beta]

        18         1         1      0.08284013
        18         1         2     -0.05122455

 Spin contamination <S**2-Sz**2-Sz>     0.00000000

 Memory could be reduced to 782.14 Mwords without degradation in triples
 

  Correlated core orbitals:             1.1       2.1       3.1       4.1       5.1       6.1       7.1       8.1       9.1      10.1
                                       11.1      12.1      13.1      14.1      15.1       1.2       2.2       3.2       4.2       5.2
                                        6.2       7.2       8.2       1.3       2.3       3.3       4.3       5.3       6.3       7.3
                                        8.3       1.4       2.4       3.4
  Orbital energies:                 -2897.6283 -514.5147 -447.4037 -123.3530 -103.4025  -80.9090  -80.8997  -27.8561  -21.1657  -12.7582
                                      -12.7417   -4.4704   -3.3871   -3.3838   -2.6066 -447.4092 -103.4127  -80.9031  -21.1836  -12.7478
                                       -3.4052   -3.3849   -2.6435 -447.4092 -103.4127  -80.9031  -21.1836  -12.7478   -3.4052   -3.3849
                                       -2.6435  -80.9128  -12.7678   -3.3949
 
  RCCSD core-core energy               -2.446002856377
  RCCSD core-valence energy            -0.345278618295
  RCCSD valence correlation energy     -0.328253505581
 

 RESULTS
 =======

  Reference energy                   -18413.7385517349    
  RCCSD singles energy                 -0.002470752365
  RCCSD pair energy                    -3.117064227887
  RCCSD correlation energy             -3.119534980252
  Triples (T) contribution             -0.046028786001
  Total correlation energy             -3.165563766253
 
  RHF-RCCSD energy                   -18416.8580867151    
  RHF-RCCSD[T] energy                -18416.9078790366    
  RHF-RCCSD-T energy                 -18416.9036191102    
 !RHF-RCCSD(T) energy                -18416.9041155011    

 Program statistics:

 Available memory in ccsd:              1023986700
 Min. memory needed in ccsd:             179530465
 Max. memory used in ccsd:               265131962
 Max. memory used in cckext:             223814441 (12 integral passes)
 Max. memory used in cckint:              76869509 ( 1 integral passes)



 **********************************************************************************************************************************
 DATASETS  * FILE   NREC   LENGTH (MB)   RECORD NAMES
              1      22       22.68       500      610      700      900      950      970     1001      129      960     1700   
                                          VAR    BASINP    GEOM    SYMINP    ZMAT    AOBASIS   BASIS     P2S    ABASIS    OPER   
                                         1101     1401     1411     1412     1650     1100     1400     1410     1200     1210   
                                          SR      EKINR    POTR     PVPR    MOLCAS      S      EKIN      POT      H0       H01  
                                         1080     1600   
                                         AOSYM     SMH  

              2       8        9.31       700     1000      520     1800     2100     2101     1001     2102   
                                         GEOM     BASIS   MCVARS    GRID      RKS      RHF     BASIS     RHF  

 PROGRAMS   *        TOTAL  RCCSD(T)       RHF       INT       RHF       RKS       INT
 CPU TIMES  *      6066.32   5941.92      4.32    115.61      0.12      0.54      3.39
 REAL TIME  *      7220.15 SEC
 DISK USED  *        97.95 GB      
 SF USED    *        16.10 GB      
 GA USED    *         0.20 MB       (max)       0.00 MB       (current)
 **********************************************************************************************************************************
 SETTING CCSD           =    -18416.90411550  AU                              
                                                                                                                                                                                                                                                                

      Z          SCF            CCSD
    1.7   -18413.73855   -18416.90412
                                                  

 RCCSD(T)/USERDEF energy= -18416.904115501133

        RCCSD(T)        RHF-SCF         RHF-SCF         RKS-SCF 
 -18416.90411550 -18413.73855173 -18412.85828500 -18418.41847442
 **********************************************************************************************************************************
 Molpro calculation terminated
 Variable memory released
