/global/cscratch1/sd/bkincaid/cutoffs/W/250-610/runs/scf_500

     Program PWSCF v.6.4.1 starts on 17Jan2022 at 19:50: 2 

     This program is part of the open-source Quantum ESPRESSO suite
     for quantum simulation of materials; please cite
         "P. Giannozzi et al., J. Phys.:Condens. Matter 21 395502 (2009);
         "P. Giannozzi et al., J. Phys.:Condens. Matter 29 465901 (2017);
          URL http://www.quantum-espresso.org", 
     in publications or presentations arising from this work. More details at
     http://www.quantum-espresso.org/quote

     Parallel version (MPI & OpenMP), running on      32 processor cores
     Number of MPI processes:                32
     Threads/MPI process:                     1

     MPI processes distributed on     1 nodes
     R & G space division:  proc/nbgrp/npool/nimage =      32
     Reading input from scf_500.in

     Current dimensions of program PWSCF are:
     Max number of different atomic species (ntypx) = 10
     Max number of k-points (npk) =  40000
     Max angular momentum in pseudopotentials (lmaxx) =  3

     IMPORTANT: XC functional enforced from input :
     Exchange-correlation      = PBE ( 1  4  3  4 0 0)
     Any further DFT definition will be discarded
     Please, verify this is what you really want


     gamma-point specific algorithms are used

     Subspace diagonalization in iterative solution of the eigenvalue problem:
     one sub-group per band group will be used
     scalapack distributed-memory algorithm (size of sub-group:  4*  4 procs)

     Message from routine setup:
     DEPRECATED: symmetry with ibrav=0, use correct ibrav instead
 
     Parallelization info
     --------------------
     sticks:   dense  smooth     PW     G-vecs:    dense   smooth      PW
     Min        2557    2557    638               550426   550426   68790
     Max        2560    2560    640               550434   550434   68800
     Sum       81861   81861  20461             17613727 17613727 2201421
 


     bravais-lattice index     =            0
     lattice parameter (alat)  =      22.6767  a.u.
     unit-cell volume          =   11661.1222 (a.u.)^3
     number of atoms/cell      =            1
     number of atomic types    =            1
     number of electrons       =        14.00 (up:   9.00, down:   5.00)
     number of Kohn-Sham states=           12
     kinetic-energy cutoff     =     500.0000  Ry
     charge density cutoff     =    2000.0000  Ry
     convergence threshold     =      1.0E-06
     mixing beta               =       0.7000
     number of iterations used =            8  plain     mixing
     Exchange-correlation      = PBE ( 1  4  3  4 0 0)

     celldm(1)=  22.676714  celldm(2)=   0.000000  celldm(3)=   0.000000
     celldm(4)=   0.000000  celldm(5)=   0.000000  celldm(6)=   0.000000

     crystal axes: (cart. coord. in units of alat)
               a(1) = (   1.000000   0.000000   0.000000 )  
               a(2) = (   0.000000   1.000000   0.000000 )  
               a(3) = (   0.000000   0.000000   1.000000 )  

     reciprocal axes: (cart. coord. in units 2 pi/alat)
               b(1) = (  1.000000  0.000000  0.000000 )  
               b(2) = (  0.000000  1.000000  0.000000 )  
               b(3) = (  0.000000  0.000000  1.000000 )  


     PseudoPot. # 1 for W  read from file:
     ./W.upf
     MD5 check sum: 4ed05a8c0c5f577ff01fd4795b4ecf91
     Pseudo is Norm-conserving, Zval = 14.0
     Generated by new atomic code, or converted to UPF format
     Using radial grid of 1187 points,  3 beta functions with: 
                l(1) =   0
                l(2) =   2
                l(3) =   3

     atomic species   valence    mass     pseudopotential
        W             14.00   183.85000     W ( 1.00)

     Starting magnetic structure 
     atomic species   magnetization
        W            0.500

     48 Sym. Ops., with inversion, found


                                    s                        frac. trans.

      isym =  1     identity                                     

 cryst.   s( 1) = (     1          0          0      )
                  (     0          1          0      )
                  (     0          0          1      )

 cart.    s( 1) = (  1.0000000  0.0000000  0.0000000 )
                  (  0.0000000  1.0000000  0.0000000 )
                  (  0.0000000  0.0000000  1.0000000 )


      isym =  2     180 deg rotation - cart. axis [0,0,1]        

 cryst.   s( 2) = (    -1          0          0      )
                  (     0         -1          0      )
                  (     0          0          1      )

 cart.    s( 2) = ( -1.0000000  0.0000000  0.0000000 )
                  (  0.0000000 -1.0000000  0.0000000 )
                  (  0.0000000  0.0000000  1.0000000 )


      isym =  3     180 deg rotation - cart. axis [0,1,0]        

 cryst.   s( 3) = (    -1          0          0      )
                  (     0          1          0      )
                  (     0          0         -1      )

 cart.    s( 3) = ( -1.0000000  0.0000000  0.0000000 )
                  (  0.0000000  1.0000000  0.0000000 )
                  (  0.0000000  0.0000000 -1.0000000 )


      isym =  4     180 deg rotation - cart. axis [1,0,0]        

 cryst.   s( 4) = (     1          0          0      )
                  (     0         -1          0      )
                  (     0          0         -1      )

 cart.    s( 4) = (  1.0000000  0.0000000  0.0000000 )
                  (  0.0000000 -1.0000000  0.0000000 )
                  (  0.0000000  0.0000000 -1.0000000 )


      isym =  5     180 deg rotation - cart. axis [1,1,0]        

 cryst.   s( 5) = (     0          1          0      )
                  (     1          0          0      )
                  (     0          0         -1      )

 cart.    s( 5) = (  0.0000000  1.0000000  0.0000000 )
                  (  1.0000000  0.0000000  0.0000000 )
                  (  0.0000000  0.0000000 -1.0000000 )


      isym =  6     180 deg rotation - cart. axis [1,-1,0]       

 cryst.   s( 6) = (     0         -1          0      )
                  (    -1          0          0      )
                  (     0          0         -1      )

 cart.    s( 6) = (  0.0000000 -1.0000000  0.0000000 )
                  ( -1.0000000  0.0000000  0.0000000 )
                  (  0.0000000  0.0000000 -1.0000000 )


      isym =  7      90 deg rotation - cart. axis [0,0,-1]       

 cryst.   s( 7) = (     0         -1          0      )
                  (     1          0          0      )
                  (     0          0          1      )

 cart.    s( 7) = (  0.0000000  1.0000000  0.0000000 )
                  ( -1.0000000  0.0000000  0.0000000 )
                  (  0.0000000  0.0000000  1.0000000 )


      isym =  8      90 deg rotation - cart. axis [0,0,1]        

 cryst.   s( 8) = (     0          1          0      )
                  (    -1          0          0      )
                  (     0          0          1      )

 cart.    s( 8) = (  0.0000000 -1.0000000  0.0000000 )
                  (  1.0000000  0.0000000  0.0000000 )
                  (  0.0000000  0.0000000  1.0000000 )


      isym =  9     180 deg rotation - cart. axis [1,0,1]        

 cryst.   s( 9) = (     0          0          1      )
                  (     0         -1          0      )
                  (     1          0          0      )

 cart.    s( 9) = (  0.0000000  0.0000000  1.0000000 )
                  (  0.0000000 -1.0000000  0.0000000 )
                  (  1.0000000  0.0000000  0.0000000 )


      isym = 10     180 deg rotation - cart. axis [-1,0,1]       

 cryst.   s(10) = (     0          0         -1      )
                  (     0         -1          0      )
                  (    -1          0          0      )

 cart.    s(10) = (  0.0000000  0.0000000 -1.0000000 )
                  (  0.0000000 -1.0000000  0.0000000 )
                  ( -1.0000000  0.0000000  0.0000000 )


      isym = 11      90 deg rotation - cart. axis [0,1,0]        

 cryst.   s(11) = (     0          0         -1      )
                  (     0          1          0      )
                  (     1          0          0      )

 cart.    s(11) = (  0.0000000  0.0000000  1.0000000 )
                  (  0.0000000  1.0000000  0.0000000 )
                  ( -1.0000000  0.0000000  0.0000000 )


      isym = 12      90 deg rotation - cart. axis [0,-1,0]       

 cryst.   s(12) = (     0          0          1      )
                  (     0          1          0      )
                  (    -1          0          0      )

 cart.    s(12) = (  0.0000000  0.0000000 -1.0000000 )
                  (  0.0000000  1.0000000  0.0000000 )
                  (  1.0000000  0.0000000  0.0000000 )


      isym = 13     180 deg rotation - cart. axis [0,1,1]        

 cryst.   s(13) = (    -1          0          0      )
                  (     0          0          1      )
                  (     0          1          0      )

 cart.    s(13) = ( -1.0000000  0.0000000  0.0000000 )
                  (  0.0000000  0.0000000  1.0000000 )
                  (  0.0000000  1.0000000  0.0000000 )


      isym = 14     180 deg rotation - cart. axis [0,1,-1]       

 cryst.   s(14) = (    -1          0          0      )
                  (     0          0         -1      )
                  (     0         -1          0      )

 cart.    s(14) = ( -1.0000000  0.0000000  0.0000000 )
                  (  0.0000000  0.0000000 -1.0000000 )
                  (  0.0000000 -1.0000000  0.0000000 )


      isym = 15      90 deg rotation - cart. axis [-1,0,0]       

 cryst.   s(15) = (     1          0          0      )
                  (     0          0         -1      )
                  (     0          1          0      )

 cart.    s(15) = (  1.0000000  0.0000000  0.0000000 )
                  (  0.0000000  0.0000000  1.0000000 )
                  (  0.0000000 -1.0000000  0.0000000 )


      isym = 16      90 deg rotation - cart. axis [1,0,0]        

 cryst.   s(16) = (     1          0          0      )
                  (     0          0          1      )
                  (     0         -1          0      )

 cart.    s(16) = (  1.0000000  0.0000000  0.0000000 )
                  (  0.0000000  0.0000000 -1.0000000 )
                  (  0.0000000  1.0000000  0.0000000 )


      isym = 17     120 deg rotation - cart. axis [-1,-1,-1]     

 cryst.   s(17) = (     0          0          1      )
                  (     1          0          0      )
                  (     0          1          0      )

 cart.    s(17) = (  0.0000000  1.0000000  0.0000000 )
                  (  0.0000000  0.0000000  1.0000000 )
                  (  1.0000000  0.0000000  0.0000000 )


      isym = 18     120 deg rotation - cart. axis [-1,1,1]       

 cryst.   s(18) = (     0          0         -1      )
                  (    -1          0          0      )
                  (     0          1          0      )

 cart.    s(18) = (  0.0000000 -1.0000000  0.0000000 )
                  (  0.0000000  0.0000000  1.0000000 )
                  ( -1.0000000  0.0000000  0.0000000 )


      isym = 19     120 deg rotation - cart. axis [1,1,-1]       

 cryst.   s(19) = (     0          0         -1      )
                  (     1          0          0      )
                  (     0         -1          0      )

 cart.    s(19) = (  0.0000000  1.0000000  0.0000000 )
                  (  0.0000000  0.0000000 -1.0000000 )
                  ( -1.0000000  0.0000000  0.0000000 )


      isym = 20     120 deg rotation - cart. axis [1,-1,1]       

 cryst.   s(20) = (     0          0          1      )
                  (    -1          0          0      )
                  (     0         -1          0      )

 cart.    s(20) = (  0.0000000 -1.0000000  0.0000000 )
                  (  0.0000000  0.0000000 -1.0000000 )
                  (  1.0000000  0.0000000  0.0000000 )


      isym = 21     120 deg rotation - cart. axis [1,1,1]        

 cryst.   s(21) = (     0          1          0      )
                  (     0          0          1      )
                  (     1          0          0      )

 cart.    s(21) = (  0.0000000  0.0000000  1.0000000 )
                  (  1.0000000  0.0000000  0.0000000 )
                  (  0.0000000  1.0000000  0.0000000 )


      isym = 22     120 deg rotation - cart. axis [-1,1,-1]      

 cryst.   s(22) = (     0         -1          0      )
                  (     0          0         -1      )
                  (     1          0          0      )

 cart.    s(22) = (  0.0000000  0.0000000  1.0000000 )
                  ( -1.0000000  0.0000000  0.0000000 )
                  (  0.0000000 -1.0000000  0.0000000 )


      isym = 23     120 deg rotation - cart. axis [1,-1,-1]      

 cryst.   s(23) = (     0         -1          0      )
                  (     0          0          1      )
                  (    -1          0          0      )

 cart.    s(23) = (  0.0000000  0.0000000 -1.0000000 )
                  ( -1.0000000  0.0000000  0.0000000 )
                  (  0.0000000  1.0000000  0.0000000 )


      isym = 24     120 deg rotation - cart. axis [-1,-1,1]      

 cryst.   s(24) = (     0          1          0      )
                  (     0          0         -1      )
                  (    -1          0          0      )

 cart.    s(24) = (  0.0000000  0.0000000 -1.0000000 )
                  (  1.0000000  0.0000000  0.0000000 )
                  (  0.0000000 -1.0000000  0.0000000 )


      isym = 25     inversion                                    

 cryst.   s(25) = (    -1          0          0      )
                  (     0         -1          0      )
                  (     0          0         -1      )

 cart.    s(25) = ( -1.0000000  0.0000000  0.0000000 )
                  (  0.0000000 -1.0000000  0.0000000 )
                  (  0.0000000  0.0000000 -1.0000000 )


      isym = 26     inv. 180 deg rotation - cart. axis [0,0,1]   

 cryst.   s(26) = (     1          0          0      )
                  (     0          1          0      )
                  (     0          0         -1      )

 cart.    s(26) = (  1.0000000  0.0000000  0.0000000 )
                  (  0.0000000  1.0000000  0.0000000 )
                  (  0.0000000  0.0000000 -1.0000000 )


      isym = 27     inv. 180 deg rotation - cart. axis [0,1,0]   

 cryst.   s(27) = (     1          0          0      )
                  (     0         -1          0      )
                  (     0          0          1      )

 cart.    s(27) = (  1.0000000  0.0000000  0.0000000 )
                  (  0.0000000 -1.0000000  0.0000000 )
                  (  0.0000000  0.0000000  1.0000000 )


      isym = 28     inv. 180 deg rotation - cart. axis [1,0,0]   

 cryst.   s(28) = (    -1          0          0      )
                  (     0          1          0      )
                  (     0          0          1      )

 cart.    s(28) = ( -1.0000000  0.0000000  0.0000000 )
                  (  0.0000000  1.0000000  0.0000000 )
                  (  0.0000000  0.0000000  1.0000000 )


      isym = 29     inv. 180 deg rotation - cart. axis [1,1,0]   

 cryst.   s(29) = (     0         -1          0      )
                  (    -1          0          0      )
                  (     0          0          1      )

 cart.    s(29) = (  0.0000000 -1.0000000  0.0000000 )
                  ( -1.0000000  0.0000000  0.0000000 )
                  (  0.0000000  0.0000000  1.0000000 )


      isym = 30     inv. 180 deg rotation - cart. axis [1,-1,0]  

 cryst.   s(30) = (     0          1          0      )
                  (     1          0          0      )
                  (     0          0          1      )

 cart.    s(30) = (  0.0000000  1.0000000  0.0000000 )
                  (  1.0000000  0.0000000  0.0000000 )
                  (  0.0000000  0.0000000  1.0000000 )


      isym = 31     inv.  90 deg rotation - cart. axis [0,0,-1]  

 cryst.   s(31) = (     0          1          0      )
                  (    -1          0          0      )
                  (     0          0         -1      )

 cart.    s(31) = (  0.0000000 -1.0000000  0.0000000 )
                  (  1.0000000  0.0000000  0.0000000 )
                  (  0.0000000  0.0000000 -1.0000000 )


      isym = 32     inv.  90 deg rotation - cart. axis [0,0,1]   

 cryst.   s(32) = (     0         -1          0      )
                  (     1          0          0      )
                  (     0          0         -1      )

 cart.    s(32) = (  0.0000000  1.0000000  0.0000000 )
                  ( -1.0000000  0.0000000  0.0000000 )
                  (  0.0000000  0.0000000 -1.0000000 )


      isym = 33     inv. 180 deg rotation - cart. axis [1,0,1]   

 cryst.   s(33) = (     0          0         -1      )
                  (     0          1          0      )
                  (    -1          0          0      )

 cart.    s(33) = (  0.0000000  0.0000000 -1.0000000 )
                  (  0.0000000  1.0000000  0.0000000 )
                  ( -1.0000000  0.0000000  0.0000000 )


      isym = 34     inv. 180 deg rotation - cart. axis [-1,0,1]  

 cryst.   s(34) = (     0          0          1      )
                  (     0          1          0      )
                  (     1          0          0      )

 cart.    s(34) = (  0.0000000  0.0000000  1.0000000 )
                  (  0.0000000  1.0000000  0.0000000 )
                  (  1.0000000  0.0000000  0.0000000 )


      isym = 35     inv.  90 deg rotation - cart. axis [0,1,0]   

 cryst.   s(35) = (     0          0          1      )
                  (     0         -1          0      )
                  (    -1          0          0      )

 cart.    s(35) = (  0.0000000  0.0000000 -1.0000000 )
                  (  0.0000000 -1.0000000  0.0000000 )
                  (  1.0000000  0.0000000  0.0000000 )


      isym = 36     inv.  90 deg rotation - cart. axis [0,-1,0]  

 cryst.   s(36) = (     0          0         -1      )
                  (     0         -1          0      )
                  (     1          0          0      )

 cart.    s(36) = (  0.0000000  0.0000000  1.0000000 )
                  (  0.0000000 -1.0000000  0.0000000 )
                  ( -1.0000000  0.0000000  0.0000000 )


      isym = 37     inv. 180 deg rotation - cart. axis [0,1,1]   

 cryst.   s(37) = (     1          0          0      )
                  (     0          0         -1      )
                  (     0         -1          0      )

 cart.    s(37) = (  1.0000000  0.0000000  0.0000000 )
                  (  0.0000000  0.0000000 -1.0000000 )
                  (  0.0000000 -1.0000000  0.0000000 )


      isym = 38     inv. 180 deg rotation - cart. axis [0,1,-1]  

 cryst.   s(38) = (     1          0          0      )
                  (     0          0          1      )
                  (     0          1          0      )

 cart.    s(38) = (  1.0000000  0.0000000  0.0000000 )
                  (  0.0000000  0.0000000  1.0000000 )
                  (  0.0000000  1.0000000  0.0000000 )


      isym = 39     inv.  90 deg rotation - cart. axis [-1,0,0]  

 cryst.   s(39) = (    -1          0          0      )
                  (     0          0          1      )
                  (     0         -1          0      )

 cart.    s(39) = ( -1.0000000  0.0000000  0.0000000 )
                  (  0.0000000  0.0000000 -1.0000000 )
                  (  0.0000000  1.0000000  0.0000000 )


      isym = 40     inv.  90 deg rotation - cart. axis [1,0,0]   

 cryst.   s(40) = (    -1          0          0      )
                  (     0          0         -1      )
                  (     0          1          0      )

 cart.    s(40) = ( -1.0000000  0.0000000  0.0000000 )
                  (  0.0000000  0.0000000  1.0000000 )
                  (  0.0000000 -1.0000000  0.0000000 )


      isym = 41     inv. 120 deg rotation - cart. axis [-1,-1,-1]

 cryst.   s(41) = (     0          0         -1      )
                  (    -1          0          0      )
                  (     0         -1          0      )

 cart.    s(41) = (  0.0000000 -1.0000000  0.0000000 )
                  (  0.0000000  0.0000000 -1.0000000 )
                  ( -1.0000000  0.0000000  0.0000000 )


      isym = 42     inv. 120 deg rotation - cart. axis [-1,1,1]  

 cryst.   s(42) = (     0          0          1      )
                  (     1          0          0      )
                  (     0         -1          0      )

 cart.    s(42) = (  0.0000000  1.0000000  0.0000000 )
                  (  0.0000000  0.0000000 -1.0000000 )
                  (  1.0000000  0.0000000  0.0000000 )


      isym = 43     inv. 120 deg rotation - cart. axis [1,1,-1]  

 cryst.   s(43) = (     0          0          1      )
                  (    -1          0          0      )
                  (     0          1          0      )

 cart.    s(43) = (  0.0000000 -1.0000000  0.0000000 )
                  (  0.0000000  0.0000000  1.0000000 )
                  (  1.0000000  0.0000000  0.0000000 )


      isym = 44     inv. 120 deg rotation - cart. axis [1,-1,1]  

 cryst.   s(44) = (     0          0         -1      )
                  (     1          0          0      )
                  (     0          1          0      )

 cart.    s(44) = (  0.0000000  1.0000000  0.0000000 )
                  (  0.0000000  0.0000000  1.0000000 )
                  ( -1.0000000  0.0000000  0.0000000 )


      isym = 45     inv. 120 deg rotation - cart. axis [1,1,1]   

 cryst.   s(45) = (     0         -1          0      )
                  (     0          0         -1      )
                  (    -1          0          0      )

 cart.    s(45) = (  0.0000000  0.0000000 -1.0000000 )
                  ( -1.0000000  0.0000000  0.0000000 )
                  (  0.0000000 -1.0000000  0.0000000 )


      isym = 46     inv. 120 deg rotation - cart. axis [-1,1,-1] 

 cryst.   s(46) = (     0          1          0      )
                  (     0          0          1      )
                  (    -1          0          0      )

 cart.    s(46) = (  0.0000000  0.0000000 -1.0000000 )
                  (  1.0000000  0.0000000  0.0000000 )
                  (  0.0000000  1.0000000  0.0000000 )


      isym = 47     inv. 120 deg rotation - cart. axis [1,-1,-1] 

 cryst.   s(47) = (     0          1          0      )
                  (     0          0         -1      )
                  (     1          0          0      )

 cart.    s(47) = (  0.0000000  0.0000000  1.0000000 )
                  (  1.0000000  0.0000000  0.0000000 )
                  (  0.0000000 -1.0000000  0.0000000 )


      isym = 48     inv. 120 deg rotation - cart. axis [-1,-1,1] 

 cryst.   s(48) = (     0         -1          0      )
                  (     0          0          1      )
                  (     1          0          0      )

 cart.    s(48) = (  0.0000000  0.0000000  1.0000000 )
                  ( -1.0000000  0.0000000  0.0000000 )
                  (  0.0000000  1.0000000  0.0000000 )


   Cartesian axes

     site n.     atom                  positions (alat units)
         1           W   tau(   1) = (   0.5000000   0.5000000   0.5000000  )

   Crystallographic axes

     site n.     atom                  positions (cryst. coord.)
         1           W   tau(   1) = (  0.5000000  0.5000000  0.5000000  )

     number of k points=     1
                       cart. coord. in units 2pi/alat
        k(    1) = (   0.0000000   0.0000000   0.0000000), wk =   1.0000000

                       cryst. coord.
        k(    1) = (   0.0000000   0.0000000   0.0000000), wk =   1.0000000

     Dense  grid:  8806864 G-vectors     FFT dimensions: ( 324, 324, 324)

     Dynamical RAM for                 wfc:       6.30 MB

     Dynamical RAM for     wfc (w. buffer):      18.90 MB

     Dynamical RAM for           str. fact:       4.20 MB

     Dynamical RAM for           local pot:       0.00 MB

     Dynamical RAM for          nlocal pot:       6.82 MB

     Dynamical RAM for                qrad:       5.17 MB

     Dynamical RAM for          rho,v,vnew:      78.06 MB

     Dynamical RAM for               rhoin:      26.02 MB

     Dynamical RAM for            rho*nmix:     134.38 MB

     Dynamical RAM for           G-vectors:      17.85 MB

     Dynamical RAM for          h,s,v(r/c):       0.00 MB

     Dynamical RAM for          <psi|beta>:       0.00 MB

     Dynamical RAM for                 psi:      25.20 MB

     Dynamical RAM for                hpsi:      25.20 MB

     Dynamical RAM for      wfcinit/wfcrot:      16.80 MB

     Estimated static dynamical RAM per process >     352.66 MB

     Estimated max dynamical RAM per process >     403.05 MB

     Estimated total dynamical RAM >      12.60 GB
     Generating pointlists ...
     new r_m :   0.4125 (alat units)  9.3541 (a.u.) for type    1

     Initial potential from superposition of free atoms

     starting charge   11.30112, renormalised to   14.00000

     negative rho (up, down):  5.635E-03 0.000E+00
     Starting wfcs are   16 randomized atomic wfcs

     total cpu time spent up to now is       12.2 secs

     Self-consistent Calculation

     iteration #  1     ecut=   500.00 Ry     beta= 0.70
     Davidson diagonalization with overlap
     ethr =  1.00E-02,  avg # of iterations = 14.0

     negative rho (up, down):  1.076E-07 1.409E-02

     total cpu time spent up to now is       33.0 secs

     total energy              =    -126.88517781 Ry
     Harris-Foulkes estimate   =    -137.17933688 Ry
     estimated scf accuracy    <      13.25945356 Ry

     total magnetization       =     4.00 Bohr mag/cell
     absolute magnetization    =     4.19 Bohr mag/cell

     iteration #  2     ecut=   500.00 Ry     beta= 0.70
     Davidson diagonalization with overlap
     ethr =  1.00E-02,  avg # of iterations =  7.5

     negative rho (up, down):  6.351E-08 1.345E-02

     total cpu time spent up to now is       49.5 secs

     total energy              =    -134.78379981 Ry
     Harris-Foulkes estimate   =    -139.23414562 Ry
     estimated scf accuracy    <       7.68630107 Ry

     total magnetization       =     4.00 Bohr mag/cell
     absolute magnetization    =     4.00 Bohr mag/cell

     iteration #  3     ecut=   500.00 Ry     beta= 0.70
     Davidson diagonalization with overlap
     ethr =  1.00E-02,  avg # of iterations =  2.5

     negative rho (up, down):  5.724E-08 1.349E-02

     total cpu time spent up to now is       59.7 secs

     total energy              =    -135.01607949 Ry
     Harris-Foulkes estimate   =    -135.22800548 Ry
     estimated scf accuracy    <       1.55911022 Ry

     total magnetization       =     4.00 Bohr mag/cell
     absolute magnetization    =     4.00 Bohr mag/cell

     iteration #  4     ecut=   500.00 Ry     beta= 0.70
     Davidson diagonalization with overlap
     ethr =  1.00E-02,  avg # of iterations =  1.0

     negative rho (up, down):  7.685E-08 1.301E-02

     total cpu time spent up to now is       68.7 secs

     total energy              =    -135.27752817 Ry
     Harris-Foulkes estimate   =    -135.02879173 Ry
     estimated scf accuracy    <       0.91942377 Ry

     total magnetization       =     4.00 Bohr mag/cell
     absolute magnetization    =     4.11 Bohr mag/cell

     iteration #  5     ecut=   500.00 Ry     beta= 0.70
     Davidson diagonalization with overlap
     ethr =  6.57E-03,  avg # of iterations =  1.0

     negative rho (up, down):  7.495E-08 1.317E-02

     total cpu time spent up to now is       77.8 secs

     total energy              =    -135.32351936 Ry
     Harris-Foulkes estimate   =    -135.31529465 Ry
     estimated scf accuracy    <       1.74652188 Ry

     total magnetization       =     4.00 Bohr mag/cell
     absolute magnetization    =     4.00 Bohr mag/cell

     iteration #  6     ecut=   500.00 Ry     beta= 0.70
     Davidson diagonalization with overlap
     ethr =  6.57E-03,  avg # of iterations =  1.0

     negative rho (up, down):  7.410E-08 1.309E-02

     total cpu time spent up to now is       86.9 secs

     total energy              =    -135.32855825 Ry
     Harris-Foulkes estimate   =    -135.32842081 Ry
     estimated scf accuracy    <       1.77589278 Ry

     total magnetization       =     4.00 Bohr mag/cell
     absolute magnetization    =     4.00 Bohr mag/cell

     iteration #  7     ecut=   500.00 Ry     beta= 0.70
     Davidson diagonalization with overlap
     ethr =  6.57E-03,  avg # of iterations =  1.0

     negative rho (up, down):  6.430E-08 1.510E-02

     total cpu time spent up to now is       96.2 secs

     total energy              =    -135.30329464 Ry
     Harris-Foulkes estimate   =    -135.33270852 Ry
     estimated scf accuracy    <       1.78494693 Ry

     total magnetization       =     4.00 Bohr mag/cell
     absolute magnetization    =     4.00 Bohr mag/cell

     iteration #  8     ecut=   500.00 Ry     beta= 0.70
     Davidson diagonalization with overlap
     ethr =  6.57E-03,  avg # of iterations =  1.0

     negative rho (up, down):  1.973E-07 1.262E-02

     total cpu time spent up to now is      105.5 secs

     total energy              =    -135.14860228 Ry
     Harris-Foulkes estimate   =    -135.30584148 Ry
     estimated scf accuracy    <       1.73935626 Ry

     total magnetization       =     4.00 Bohr mag/cell
     absolute magnetization    =     4.00 Bohr mag/cell

     iteration #  9     ecut=   500.00 Ry     beta= 0.70
     Davidson diagonalization with overlap
     ethr =  6.57E-03,  avg # of iterations =  1.0

     negative rho (up, down):  1.595E-07 3.205E-02

     total cpu time spent up to now is      114.8 secs

     total energy              =    -134.62373894 Ry
     Harris-Foulkes estimate   =    -135.16723845 Ry
     estimated scf accuracy    <       1.42414809 Ry

     total magnetization       =     4.00 Bohr mag/cell
     absolute magnetization    =     4.19 Bohr mag/cell

     iteration # 10     ecut=   500.00 Ry     beta= 0.70
     Davidson diagonalization with overlap
     ethr =  6.57E-03,  avg # of iterations =  1.0

     negative rho (up, down):  2.058E-02 3.077E-01

     total cpu time spent up to now is      124.0 secs

     total energy              =    -134.12357579 Ry
     Harris-Foulkes estimate   =    -134.73456493 Ry
     estimated scf accuracy    <       0.77996806 Ry

     total magnetization       =     4.00 Bohr mag/cell
     absolute magnetization    =     4.50 Bohr mag/cell

     iteration # 11     ecut=   500.00 Ry     beta= 0.70
     Davidson diagonalization with overlap
     ethr =  5.57E-03,  avg # of iterations =  2.0

     negative rho (up, down):  1.013E-02 3.113E-01

     total cpu time spent up to now is      133.5 secs

     total energy              =    -134.29621564 Ry
     Harris-Foulkes estimate   =    -134.21162944 Ry
     estimated scf accuracy    <       1.21396827 Ry

     total magnetization       =     4.00 Bohr mag/cell
     absolute magnetization    =     4.26 Bohr mag/cell

     iteration # 12     ecut=   500.00 Ry     beta= 0.70
     Davidson diagonalization with overlap
     ethr =  5.57E-03,  avg # of iterations =  1.0

     negative rho (up, down):  8.870E-01 9.565E-02

     total cpu time spent up to now is      142.7 secs

     total energy              =    -133.04018889 Ry
     Harris-Foulkes estimate   =    -134.31150330 Ry
     estimated scf accuracy    <       0.90252340 Ry

     total magnetization       =     4.00 Bohr mag/cell
     absolute magnetization    =     4.20 Bohr mag/cell

     iteration # 13     ecut=   500.00 Ry     beta= 0.70
     Davidson diagonalization with overlap
     ethr =  5.57E-03,  avg # of iterations =  5.0

     negative rho (up, down):  3.308E-01 4.161E-02

     total cpu time spent up to now is      155.0 secs

     total energy              =    -134.94732314 Ry
     Harris-Foulkes estimate   =    -135.65241264 Ry
     estimated scf accuracy    <       7.48944926 Ry

     total magnetization       =     4.00 Bohr mag/cell
     absolute magnetization    =     4.03 Bohr mag/cell

     iteration # 14     ecut=   500.00 Ry     beta= 0.70
     Davidson diagonalization with overlap
     ethr =  5.57E-03,  avg # of iterations =  2.5

     negative rho (up, down):  3.745E-01 1.330E-02

     total cpu time spent up to now is      165.0 secs

     total energy              =    -134.89607221 Ry
     Harris-Foulkes estimate   =    -135.07078565 Ry
     estimated scf accuracy    <       4.14359414 Ry

     total magnetization       =     4.00 Bohr mag/cell
     absolute magnetization    =     4.02 Bohr mag/cell

     iteration # 15     ecut=   500.00 Ry     beta= 0.70
     Davidson diagonalization with overlap
     ethr =  5.57E-03,  avg # of iterations =  1.0

     negative rho (up, down):  4.176E-01 1.193E-02

     total cpu time spent up to now is      174.1 secs

     total energy              =    -135.07919940 Ry
     Harris-Foulkes estimate   =    -134.92772643 Ry
     estimated scf accuracy    <       3.04599179 Ry

     total magnetization       =     4.00 Bohr mag/cell
     absolute magnetization    =     4.02 Bohr mag/cell

     iteration # 16     ecut=   500.00 Ry     beta= 0.70
     Davidson diagonalization with overlap
     ethr =  5.57E-03,  avg # of iterations =  1.0

     negative rho (up, down):  2.864E-07 6.862E-03

     total cpu time spent up to now is      183.4 secs

     total energy              =    -134.22851206 Ry
     Harris-Foulkes estimate   =    -135.09911593 Ry
     estimated scf accuracy    <       3.26000547 Ry

     total magnetization       =     4.00 Bohr mag/cell
     absolute magnetization    =     4.03 Bohr mag/cell

     iteration # 17     ecut=   500.00 Ry     beta= 0.70
     Davidson diagonalization with overlap
     ethr =  5.57E-03,  avg # of iterations =  2.5

     negative rho (up, down):  8.905E-07 1.475E-02

     total cpu time spent up to now is      193.9 secs

     total energy              =    -134.62446403 Ry
     Harris-Foulkes estimate   =    -134.56542261 Ry
     estimated scf accuracy    <       0.09755220 Ry

     total magnetization       =     4.00 Bohr mag/cell
     absolute magnetization    =     4.03 Bohr mag/cell

     iteration # 18     ecut=   500.00 Ry     beta= 0.70
     Davidson diagonalization with overlap
     ethr =  6.97E-04,  avg # of iterations =  5.5

     negative rho (up, down):  2.074E-07 5.255E-03

     total cpu time spent up to now is      206.4 secs

     total energy              =    -134.68639503 Ry
     Harris-Foulkes estimate   =    -134.70052988 Ry
     estimated scf accuracy    <       0.06243758 Ry

     total magnetization       =     4.00 Bohr mag/cell
     absolute magnetization    =     4.11 Bohr mag/cell

     iteration # 19     ecut=   500.00 Ry     beta= 0.70
     Davidson diagonalization with overlap
     ethr =  4.46E-04,  avg # of iterations =  1.5

     negative rho (up, down):  2.239E-09 1.196E-02

     total cpu time spent up to now is      215.8 secs

     total energy              =    -134.69460687 Ry
     Harris-Foulkes estimate   =    -134.69209886 Ry
     estimated scf accuracy    <       0.01332875 Ry

     total magnetization       =     4.00 Bohr mag/cell
     absolute magnetization    =     4.21 Bohr mag/cell

     iteration # 20     ecut=   500.00 Ry     beta= 0.70
     Davidson diagonalization with overlap
     ethr =  9.52E-05,  avg # of iterations =  8.0

     negative rho (up, down):  2.815E-11 1.206E-03

     total cpu time spent up to now is      227.9 secs

     total energy              =    -134.69812031 Ry
     Harris-Foulkes estimate   =    -134.69754177 Ry
     estimated scf accuracy    <       0.00658213 Ry

     total magnetization       =     4.00 Bohr mag/cell
     absolute magnetization    =     4.30 Bohr mag/cell

     iteration # 21     ecut=   500.00 Ry     beta= 0.70
     Davidson diagonalization with overlap
     ethr =  4.70E-05,  avg # of iterations =  1.0

     negative rho (up, down):  8.989E-07 9.620E-02

     total cpu time spent up to now is      237.0 secs

     total energy              =    -134.69787353 Ry
     Harris-Foulkes estimate   =    -134.69841274 Ry
     estimated scf accuracy    <       0.00433991 Ry

     total magnetization       =     4.00 Bohr mag/cell
     absolute magnetization    =     4.30 Bohr mag/cell

     iteration # 22     ecut=   500.00 Ry     beta= 0.70
     Davidson diagonalization with overlap
     ethr =  3.10E-05,  avg # of iterations =  1.5

     negative rho (up, down):  1.623E-06 7.685E-02

     total cpu time spent up to now is      246.3 secs

     total energy              =    -134.69810718 Ry
     Harris-Foulkes estimate   =    -134.69818016 Ry
     estimated scf accuracy    <       0.00161393 Ry

     total magnetization       =     4.00 Bohr mag/cell
     absolute magnetization    =     4.31 Bohr mag/cell

     iteration # 23     ecut=   500.00 Ry     beta= 0.70
     Davidson diagonalization with overlap
     ethr =  1.15E-05,  avg # of iterations =  4.0

     negative rho (up, down):  4.641E-06 1.752E-01

     total cpu time spent up to now is      256.7 secs

     total energy              =    -134.69807894 Ry
     Harris-Foulkes estimate   =    -134.69824625 Ry
     estimated scf accuracy    <       0.00082334 Ry

     total magnetization       =     4.00 Bohr mag/cell
     absolute magnetization    =     4.32 Bohr mag/cell

     iteration # 24     ecut=   500.00 Ry     beta= 0.70
     Davidson diagonalization with overlap
     ethr =  5.88E-06,  avg # of iterations =  3.5

     negative rho (up, down):  3.943E-06 1.902E-01

     total cpu time spent up to now is      268.3 secs

     total energy              =    -134.69856668 Ry
     Harris-Foulkes estimate   =    -134.69856398 Ry
     estimated scf accuracy    <       0.00003447 Ry

     total magnetization       =     4.00 Bohr mag/cell
     absolute magnetization    =     4.35 Bohr mag/cell

     iteration # 25     ecut=   500.00 Ry     beta= 0.70
     Davidson diagonalization with overlap
     ethr =  2.46E-07,  avg # of iterations =  5.5

     negative rho (up, down):  0.000E+00 5.218E-03

     total cpu time spent up to now is      280.2 secs

     total energy              =    -134.69859624 Ry
     Harris-Foulkes estimate   =    -134.69858809 Ry
     estimated scf accuracy    <       0.00000544 Ry

     total magnetization       =     4.00 Bohr mag/cell
     absolute magnetization    =     4.35 Bohr mag/cell

     iteration # 26     ecut=   500.00 Ry     beta= 0.70
     Davidson diagonalization with overlap
     ethr =  3.88E-08,  avg # of iterations =  3.0

     total cpu time spent up to now is      290.4 secs

     total energy              =    -134.69860091 Ry
     Harris-Foulkes estimate   =    -134.69860064 Ry
     estimated scf accuracy    <       0.00000342 Ry

     total magnetization       =     4.00 Bohr mag/cell
     absolute magnetization    =     4.36 Bohr mag/cell

     iteration # 27     ecut=   500.00 Ry     beta= 0.70
     Davidson diagonalization with overlap
     ethr =  2.44E-08,  avg # of iterations =  2.5
 
     Magnetic moment per site:
     atom:    1    charge:   13.9994    magn:    4.0002    constr:    0.0000

     total cpu time spent up to now is      299.3 secs

     End of self-consistent calculation

 ------ SPIN UP ------------


          k = 0.0000 0.0000 0.0000 (****** PWs)   bands (ev):

   -77.8192 -42.9056 -42.8766 -42.8764  -5.7630  -4.7931  -4.7928  -4.7744
    -4.7739  -3.9277  -1.2476  -1.2474

     occupation numbers 
     1.0000   1.0000   1.0000   1.0000   1.0000   1.0000   1.0000   1.0000
     1.0000   0.0000   0.0000   0.0000

 ------ SPIN DOWN ----------


          k = 0.0000 0.0000 0.0000 (****** PWs)   bands (ev):

   -76.2722 -41.3593 -40.5173 -40.5163  -4.4839  -2.8904  -2.2466  -2.2460
    -1.7669  -1.7661  -0.8660  -0.2312

     occupation numbers 
     1.0000   1.0000   1.0000   1.0000   1.0000   0.0000   0.0000   0.0000
     0.0000   0.0000   0.0000   0.0000

     highest occupied, lowest unoccupied level (ev):    -4.4839   -3.9277

!    total energy              =    -134.69860214 Ry
     Harris-Foulkes estimate   =    -134.69860154 Ry
     estimated scf accuracy    <       0.00000030 Ry

     The total energy is the sum of the following terms:

     one-electron contribution =    -177.77958046 Ry
     hartree contribution      =      82.76509518 Ry
     xc contribution           =     -15.16070857 Ry
     ewald contribution        =     -24.52340829 Ry

     total magnetization       =     4.00 Bohr mag/cell
     absolute magnetization    =     4.36 Bohr mag/cell

     convergence has been achieved in  27 iterations

     Writing output data file pwscf.save/
 
     init_run     :     11.64s CPU     12.08s WALL (       1 calls)
     electrons    :    280.11s CPU    288.04s WALL (       1 calls)

     Called by init_run:
     wfcinit      :      2.37s CPU      2.46s WALL (       1 calls)
     wfcinit:atom :      0.04s CPU      0.05s WALL (       2 calls)
     wfcinit:wfcr :      2.25s CPU      2.31s WALL (       2 calls)
     potinit      :      2.81s CPU      2.98s WALL (       1 calls)
     hinit0       :      0.25s CPU      0.34s WALL (       1 calls)

     Called by electrons:
     c_bands      :    138.47s CPU    140.40s WALL (      27 calls)
     sum_band     :     44.65s CPU     44.78s WALL (      27 calls)
     v_of_rho     :     73.29s CPU     76.49s WALL (      28 calls)
     v_h          :      5.55s CPU      5.58s WALL (      28 calls)
     v_xc         :     67.74s CPU     70.90s WALL (      28 calls)
     mix_rho      :     23.63s CPU     25.85s WALL (      27 calls)

     Called by c_bands:
     init_us_2    :      1.41s CPU      1.42s WALL (     110 calls)
     regterg      :    135.90s CPU    137.80s WALL (      54 calls)

     Called by sum_band:

     Called by *egterg:
     h_psi        :    124.85s CPU    125.23s WALL (     220 calls)
     g_psi        :      0.41s CPU      0.41s WALL (     164 calls)
     rdiaghg      :      0.22s CPU      0.23s WALL (     218 calls)
     regterg:over :      2.87s CPU      2.88s WALL (     164 calls)
     regterg:upda :      5.58s CPU      5.68s WALL (     164 calls)
     regterg:last :      1.84s CPU      1.85s WALL (      63 calls)
     rdiaghg:chol :      0.03s CPU      0.04s WALL (     218 calls)
     rdiaghg:inve :      0.01s CPU      0.01s WALL (     218 calls)
     rdiaghg:para :      0.03s CPU      0.03s WALL (     436 calls)

     Called by h_psi:
     h_psi:pot    :    124.00s CPU    124.38s WALL (     220 calls)
     h_psi:calbec :      0.79s CPU      0.81s WALL (     220 calls)
     vloc_psi     :    122.15s CPU    122.51s WALL (     220 calls)
     add_vuspsi   :      1.06s CPU      1.06s WALL (     220 calls)

     General routines
     calbec       :      0.79s CPU      0.81s WALL (     220 calls)
     fft          :     59.73s CPU     60.22s WALL (     416 calls)
     ffts         :      6.42s CPU      6.47s WALL (      54 calls)
     fftw         :    119.85s CPU    120.21s WALL (    2170 calls)
 
     Parallel routines
     fft_scatt_xy :     33.45s CPU     33.52s WALL (    2640 calls)
     fft_scatt_yz :     68.16s CPU     68.69s WALL (    2640 calls)
 
     PWSCF        :   4m52.50s CPU   5m 2.07s WALL

 
   This run was terminated on:  19:55: 4  17Jan2022            

=------------------------------------------------------------------------------=
   JOB DONE.
=------------------------------------------------------------------------------=
