<?xml version="1.0"?>
<molpro xmlns="http://www.molpro.net/schema/molpro-output"
  xmlns:xsd="http://www.w3.org/1999/XMLSchema"
  xmlns:cml="http://www.xml-cml.org/schema"
  xmlns:stm="http://www.xml-cml.org/schema"
  xmlns:xhtml="http://www.w3.org/1999/xhtml">
 <!--

 Nodes     nprocs
 nid01404    11
 Number of processes for MPI-2 version of Molpro:   nprocs(total)=   12   nprocs(compute)=   11   nprocs(helper)=    1

 Using customized tuning parameters: mindgm=7; mindgv=16; mindgc=1; mindgr=1; noblas=0; minvec=7
 default implementation of scratch files=sf

 --><job>
  <!--

 Variables initialized (889), CPU time= 0.03 sec
 Commands  initialized (702), CPU time= 0.01 sec, 572 directives.
 Default parameters read. Elapsed time= 0.18 sec

 Checking input...
 Passed
1


                                         ***  PROGRAM SYSTEM MOLPRO  ***
                                       Copyright, TTI GmbH Stuttgart, 2015
                                    Version 2015.1 linked Dec 29 2018 15:55:43


 **********************************************************************************************************************************
 LABEL *   Calculation for IrO groundstate
  64 bit mpp version                                                                     DATE: 14-Jun-21          TIME: 12:27:40
 **********************************************************************************************************************************

 SHA1:             19cd028119e0e09f93f0674bd8af7968d9b3eff6
 **********************************************************************************************************************************
  -->
  <!--

 THRESHOLDS:

 ZERO    =  1.00D-12  ONEINT  =  1.00D-12  TWOINT  =  1.00D-15  PREFAC  =  1.00D-14  LOCALI  =  1.00D-09  EORDER  =  1.00D-04
 ENERGY  =  0.00D+00  ETEST   =  0.00D+00  EDENS   =  0.00D+00  THRDEDEF=  1.00D-06  GRADIENT=  1.00D-02  STEP    =  1.00D-03
 ORBITAL =  1.00D-05  CIVEC   =  1.00D-05  COEFF   =  1.00D-04  PRINTCI =  5.00D-02  PUNCHCI =  9.90D+01  OPTGRAD =  3.00D-04
 OPTENERG=  1.00D-06  OPTSTEP =  3.00D-04  THRGRAD =  1.00D-10  COMPRESS=  1.00D-11  VARMIN  =  1.00D-07  VARMAX  =  1.00D-03
 THRDOUB =  0.00D+00  THRDIV  =  1.00D-05  THRRED  =  1.00D-07  THRPSP  =  1.00D+00  THRDC   =  1.00D-10  THRCS   =  1.00D-10
 THRNRM  =  1.00D-08  THREQ   =  0.00D+00  THRDE   =  1.00D+00  THRREF  =  1.00D-05  SPARFAC =  1.00D+00  THRDLP  =  1.00D-07
 THRDIA  =  1.00D-10  THRDLS  =  1.00D-07  THRGPS  =  0.00D+00  THRKEX  =  0.00D+00  THRDIS  =  2.00D-01  THRVAR  =  1.00D-10
 THRLOC  =  1.00D-06  THRGAP  =  1.00D-06  THRLOCT = -1.00D+00  THRGAPT = -1.00D+00  THRORB  =  1.00D-06  THRMLTP =  0.00D+00
 THRCPQCI=  1.00D-10  KEXTA   =  0.00D+00  THRCOARS=  0.00D+00  SYMTOL  =  1.00D-06  GRADTOL =  1.00D-06  THROVL  =  1.00D-08
 THRORTH =  1.00D-08  GRID    =  1.00D-06  GRIDMAX =  1.00D-03  DTMAX   =  0.00D+00  THROCCDE=  1.00D-01  THROCCDE=  1.00D-01



 THRESHOLDS:

 ZERO    =  1.00D-12  ONEINT  =  1.00D-12  TWOINT  =  1.00D-15  PREFAC  =  1.00D-14  LOCALI  =  1.00D-09  EORDER  =  1.00D-04
 ENERGY  =  0.00D+00  ETEST   =  0.00D+00  EDENS   =  0.00D+00  THRDEDEF=  1.00D-06  GRADIENT=  1.00D-02  STEP    =  1.00D-03
 ORBITAL =  1.00D-05  CIVEC   =  1.00D-05  COEFF   =  1.00D-04  PRINTCI =  5.00D-02  PUNCHCI =  9.90D+01  OPTGRAD =  3.00D-04
 OPTENERG=  1.00D-06  OPTSTEP =  3.00D-04  THRGRAD =  1.00D-10  COMPRESS=  1.00D-11  VARMIN  =  1.00D-07  VARMAX  =  1.00D-03
 THRDOUB =  0.00D+00  THRDIV  =  1.00D-05  THRRED  =  1.00D-07  THRPSP  =  1.00D+00  THRDC   =  1.00D-10  THRCS   =  1.00D-10
 THRNRM  =  1.00D-08  THREQ   =  0.00D+00  THRDE   =  1.00D+00  THRREF  =  1.00D-05  SPARFAC =  1.00D+00  THRDLP  =  1.00D-07
 THRDIA  =  1.00D-10  THRDLS  =  1.00D-07  THRGPS  =  0.00D+00  THRKEX  =  0.00D+00  THRDIS  =  2.00D-01  THRVAR  =  1.00D-10
 THRLOC  =  1.00D-06  THRGAP  =  1.00D-06  THRLOCT = -1.00D+00  THRGAPT = -1.00D+00  THRORB  =  1.00D-06  THRMLTP =  0.00D+00
 THRCPQCI=  1.00D-10  KEXTA   =  0.00D+00  THRCOARS=  0.00D+00  SYMTOL  =  1.00D-06  GRADTOL =  1.00D-06  THROVL  =  1.00D-15
 THRORTH =  1.00D-08  GRID    =  1.00D-06  GRIDMAX =  1.00D-03  DTMAX   =  0.00D+00  THROCCDE=  1.00D-01  THROCCDE=  1.00D-01



 Variable memory set to 1024000000 words,  buffer space   230000 words

 SETTING BASIS          =    USERDEF
 SETTING NE             =        23.00000000
 SETTING A1             =         6.00000000
 SETTING B1             =         3.00000000
 SETTING B2             =         3.00000000
 SETTING A2             =         1.00000000

 DO I                   =         1.00000000
 SETTING Z(1)           =         1.40000000

Geometry recognized as XYZ

  --><jobstep command="RHF-SCF" commandset="SCFPRO">
   <!--


 Recomputing integrals since basis changed


 Using spherical harmonics



 PROGRAM * SEWARD (Integral evaluation for generally contracted gaussian basis sets)     Author: Roland Lindh, 1990

 Geometry written to block  1 of record 700


 Point group  C2v


   --><cml:molecule>
    <cml:symmetry pointGroup="C2v"/>
    <cml:atomArray>
     <cml:atom id="a1" elementType="Ir" x3="0.0" y3="0.0" z3="0.0"/>
     <cml:atom id="a2" elementType="O" x3="0.0" y3="0.0" z3="1.4"/>
    </cml:atomArray>
    <cml:bondArray>
     <cml:bond atomRefs2="a1 a2"/>
    </cml:bondArray>
   </cml:molecule><!--

 ATOMIC COORDINATES

 NR  ATOM    CHARGE       X              Y              Z

   1  IR     17.00    0.000000000    0.000000000    0.000000000
   2  O       6.00    0.000000000    0.000000000    2.645616574

 Bond lengths in Bohr (Angstrom)

 1-2  2.645616574
     ( 1.400000000)

 NUCLEAR CHARGE:                   23
 NUMBER OF PRIMITIVE AOS:         541
 NUMBER OF SYMMETRY AOS:          446
 NUMBER OF CONTRACTIONS:          446   ( 185A1  + 106B1  + 106B2  +  49A2  )
 NUMBER OF CORE ORBITALS:           4   (   2A1  +   1B1  +   1B2  +   0A2  )
 NUMBER OF VALENCE ORBITALS:       10   (   5A1  +   2B1  +   2B2  +   1A2  )


 NUCLEAR REPULSION ENERGY   38.55433965

 EXTRA SYMMETRY OF AOS IN SYMMETRY 1:   1 1 1 1 1 1 1 1 1 1   1 1 1 1 1 1 1 1 1 1   1 1 1 1 1 1 1 1 1 1   1 1 1 1 1 1 1 1 1 1
                                        1 1 1 1 1 1 1 1 1 1   1 1 1 1 1 1 1 1 1 1   1 1 1 1 1 1 1 1 1 1   2 1 2 1 2 1 2 1 2 1
                                        2 1 2 1 2 1 2 1 2 1   2 1 2 1 2 1 2 1 2 1   2 1 2 1 2 1 2 1 2 1   2 1 2 1 2 1 2 1 2 1
                                        2 1 2 1 2 1 2 1 2 1   2 1 2 1 2 1 2 1 2 1   2 1 2 1 3 2 1 3 2 1   3 2 1 1 1 1 1 1 1 1
                                        1 1 1 1 1 1 1 1 1 1   1 1 1 1 2 1 2 1 2 1   2 1 2 1 2
 EXTRA SYMMETRY OF AOS IN SYMMETRY 2:   1 1 1 1 1 1 1 1 1 1   1 1 1 1 1 1 1 1 1 1   1 1 1 1 1 1 1 1 1 1   1 1 1 1 1 1 1 1 1 1
                                        1 1 1 1 1 1 1 1 1 1   1 1 1 1 1 2 1 2 1 2   1 2 1 2 1 2 1 2 1 2   1 2 1 2 1 2 1 2 1 2
                                        1 2 1 2 1 2 1 2 1 2   1 1 1 1 1 1 1 1 1 1   1 1 1 2 1 2
 EXTRA SYMMETRY OF AOS IN SYMMETRY 3:   1 1 1 1 1 1 1 1 1 1   1 1 1 1 1 1 1 1 1 1   1 1 1 1 1 1 1 1 1 1   1 1 1 1 1 1 1 1 1 1
                                        1 1 1 1 1 1 1 1 1 1   1 1 1 1 1 2 1 2 1 2   1 2 1 2 1 2 1 2 1 2   1 2 1 2 1 2 1 2 1 2
                                        1 2 1 2 1 2 1 2 1 2   1 1 1 1 1 1 1 1 1 1   1 1 1 2 1 2
 EXTRA SYMMETRY OF AOS IN SYMMETRY 4:   1 1 1 1 1 1 1 1 1 1   1 1 1 1 1 1 1 1 1 1   1 1 1 1 1 1 1 1 1 1   1 1 1 1 1 1 1 1 2 1
                                        2 1 2 1 1 1 1 1 1

 Eigenvalues of metric

         1 0.156E-06 0.347E-06 0.744E-06 0.805E-06 0.137E-05 0.442E-05 0.506E-05 0.112E-04
         2 0.171E-06 0.796E-06 0.510E-05 0.116E-04 0.260E-04 0.493E-04 0.547E-04 0.554E-04
         3 0.171E-06 0.796E-06 0.510E-05 0.116E-04 0.260E-04 0.493E-04 0.547E-04 0.554E-04
         4 0.805E-06 0.267E-04 0.544E-04 0.165E-03 0.628E-03 0.982E-03 0.214E-02 0.552E-02


 Contracted 2-electron integrals neglected if value below      1.0D-15
 AO integral compression algorithm  1   Integral accuracy      1.0D-15

     4777.574 MB (compressed) written to integral file ( 40.8%)

     Node minimum: 264.765 MB, node maximum: 838.337 MB


 NUMBER OF SORTED TWO-ELECTRON INTEGRALS:  115846798.     BUFFER LENGTH:  32768
 NUMBER OF SEGMENTS:   4  SEGMENT LENGTH:   31977973      RECORD LENGTH: 524288

 Memory used in sort:      32.54 MW

 SORT1 READ  1465035727. AND WROTE    46684243. INTEGRALS IN    136 RECORDS. CPU TIME:    22.31 SEC, REAL TIME:    30.00 SEC
 SORT2 READ   520233352. AND WROTE  1273302750. INTEGRALS IN  11704 RECORDS. CPU TIME:     1.82 SEC, REAL TIME:     3.16 SEC

 Node minimum:   115641882.  Node maximum:   115920125. integrals

 OPERATOR DM      FOR CENTER  0  COORDINATES:    0.000000    0.000000    0.000000


 **********************************************************************************************************************************
 DATASETS  * FILE   NREC   LENGTH (MB)   RECORD NAMES
              1      19       22.42       500      610      700      900      950      970     1000      129      960     1100
                                          VAR    BASINP    GEOM    SYMINP    ZMAT    AOBASIS   BASIS     P2S    ABASIS      S
                                         1400     1410     1420     1200     1210     1080     1600     1650     1700
                                           T        V       ECP      H0       H01     AOSYM     SMH    MOLCAS    OPER

 PROGRAMS   *        TOTAL       INT
 CPU TIMES  *       170.92    170.44
 REAL TIME  *       182.26 SEC
 DISK USED  *        11.04 GB
 GA USED    *         0.00 MB       (max)       0.00 MB       (current)
 **********************************************************************************************************************************


 PROGRAM * RHF-SCF (CLOSED SHELL)       Authors: W. Meyer, H.-J. Werner


 NUMBER OF ELECTRONS:      10+   10-    SPACE SYMMETRY=1    SPIN SYMMETRY: Singlet
 CONVERGENCE THRESHOLDS:    1.00E-05 (Density)    1.00E-07 (Energy)
 MAX. NUMBER OF ITERATIONS:       60
 INTERPOLATION TYPE:            DIIS
 INTERPOLATION STEPS:              2 (START)      1 (STEP)
 LEVEL SHIFTS:                 -1.00 (CLOSED) -0.50 (OPEN)

 Number of closed-shell orbitals:   10 (   6   2   2   0 )


 Orbital guess generated from atomic densities. Full valence occupancy:    7   3   3   1

 Molecular orbital dump at record        2100.2

 ITERATION    DDIFF          GRAD             ENERGY        2-EL.EN.            DIPOLE MOMENTS         DIIS   ORB.
    1      0.000D+00      0.000D+00      -116.99596286    190.996631    0.00000    0.00000    0.03706    0    start
    2      0.000D+00      0.165D-01      -117.34164148    199.607524    0.00000    0.00000    0.88243    1    diag
    3      0.154D-01      0.561D-02      -117.38990226    200.790277    0.00000    0.00000    0.67424    2    diag
    4      0.559D-02      0.267D-02      -117.41033831    201.832021    0.00000    0.00000    0.71963    3    diag
    5      0.532D-02      0.139D-02      -117.41848064    202.303643    0.00000    0.00000    0.62840    4    diag
    6      0.347D-02      0.865D-03      -117.42332666    202.607009    0.00000    0.00000    0.56568    5    diag
    7      0.179D-02      0.550D-03      -117.42617848    202.842191    0.00000    0.00000    0.49844    6    diag
    8      0.142D-02      0.256D-03      -117.42676920    202.960218    0.00000    0.00000    0.47273    7    diag
    9      0.852D-03      0.944D-04      -117.42682536    202.992248    0.00000    0.00000    0.46849    8    diag
   10      0.270D-03      0.360D-04      -117.42682921    202.995777    0.00000    0.00000    0.46772    9    orth
   11      0.772D-04      0.263D-04      -117.42683023    202.996015    0.00000    0.00000    0.46731   10    diag
   12      0.821D-04      0.163D-04      -117.42683048    202.996640    0.00000    0.00000    0.46701   11    diag
   13      0.360D-04      0.166D-04      -117.42683054    202.996738    0.00000    0.00000    0.46685   12    diag
   14      0.470D-04      0.287D-04      -117.42683055    202.996711    0.00000    0.00000    0.46685   13    diag
   15      0.656D-04      0.227D-04      -117.42683057    202.996785    0.00000    0.00000    0.46678   14    diag
   16      0.520D-04      0.230D-04      -117.42683058    202.996832    0.00000    0.00000    0.46674   15    diag
   17      0.211D-04      0.166D-04      -117.42683059    202.996803    0.00000    0.00000    0.46672   16    diag
   18      0.109D-04      0.205D-04      -117.42683059    202.996753    0.00000    0.00000    0.46672   17    diag
   19      0.277D-04      0.911D-05      -117.42683061    202.996777    0.00000    0.00000    0.46666   18    diag
   20      0.171D-04      0.864D-05      -117.42683064    202.996783    0.00000    0.00000    0.46653   19    orth
   21      0.881D-05      0.573D-05      -117.42683064    202.996794    0.00000    0.00000    0.46648    0    orth

 Final occupancy:   6   2   2   0

 !RHF STATE 1.1 Energy               -117.426830635447
   --><property name="Energy" method="RHF" principal="true" stateSymmetry="1" stateNumber="1"
     value="-117.426830635447"/><!--
 Nuclear energy                        38.55433965
 One-electron energy                 -257.47956744
 Two-electron energy                  101.49839715
 Virial quotient                       -2.69515618
 !RHF STATE 1.1 Dipole moment           0.00000000     0.00000000     0.46648282
 Dipole moment /Debye                   0.00000000     0.00000000     1.18560341
   --><property name="Dipole moment" method="RHF" principal="true" stateSymmetry="1"
     stateNumber="1" value="0.0 0.0 0.466482821934036"/><!--

 Orbital energies:

         1.1          2.1          3.1          4.1          5.1          6.1          7.1          8.1
     -5.486049    -3.778960    -2.421898    -1.781946    -1.613777    -1.345506    -0.789551    -0.485856

         1.2          2.2          3.2          4.2
     -3.672404    -1.734222    -0.967277    -0.630786

         1.3          2.3          3.3          4.3
     -3.672403    -1.734222    -0.967277    -0.630786

         1.4          2.4
     -1.065614    -0.377746

 HOMO      6.1    -1.345506 =     -36.6131eV
 LUMO      1.4    -1.065614 =     -28.9968eV
 LUMO-HOMO         0.279892 =       7.6163eV


 **********************************************************************************************************************************
 DATASETS  * FILE   NREC   LENGTH (MB)   RECORD NAMES
              1      19       22.50       500      610      700      900      950      970     1000      129      960     1100
                                          VAR    BASINP    GEOM    SYMINP    ZMAT    AOBASIS   BASIS     P2S    ABASIS      S
                                         1400     1410     1420     1200     1210     1080     1600     1650     1700
                                           T        V       ECP      H0       H01     AOSYM     SMH    MOLCAS    OPER

              2       4        4.02       700     1000      520     2100
                                         GEOM     BASIS   MCVARS     RHF

 PROGRAMS   *        TOTAL       RHF       INT
 CPU TIMES  *       182.84     11.91    170.44
 REAL TIME  *       195.18 SEC
 DISK USED  *        11.47 GB
 SF USED    *         0.24 MB
 GA USED    *         0.00 MB       (max)       0.00 MB       (current)
 **********************************************************************************************************************************
   -->
   <time start="12:27:40" end="12:30:55" cpu="182.84" system="11.39" real="195.18"/>
   <storage units="megabyte" memory="8193.84" sf="0.24" df="431.72" eaf="11036.26" ga="0.0"/>
  </jobstep><!--
  --><jobstep command="RHF-SCF" commandset="SCFPRO">
   <!--


 PROGRAM * RHF-SCF (OPEN SHELL)       Authors: W. Meyer, H.-J. Werner


 NUMBER OF ELECTRONS:      13+   10-    SPACE SYMMETRY=1    SPIN SYMMETRY: Quartet
 CONVERGENCE THRESHOLDS:    1.00E-05 (Density)    1.00E-07 (Energy)
 MAX. NUMBER OF ITERATIONS:       60
 INTERPOLATION TYPE:            DIIS
 INTERPOLATION STEPS:              2 (START)      1 (STEP)
 LEVEL SHIFTS:                 -1.00 (CLOSED) -0.50 (OPEN)

 Number of closed-shell orbitals:   10 (   6   2   2   0 )
 Number of open-shell orbitals:      3 (   0   1   1   1 )


 Molecular orbitals read from record     2100.2  Type=RHF/CANONICAL (state 1.1)

 Molecular orbital dump at record        2101.2

 ITERATION    DDIFF          GRAD             ENERGY        2-EL.EN.            DIPOLE MOMENTS         DIIS   ORB.
    1      0.000D+00      0.000D+00      -119.11127614    264.480460    0.00000    0.00000   -1.21185    0    start
    2      0.000D+00      0.148D-01      -119.37197611    240.104027    0.00000    0.00000   -0.37835    1    diag,B
    3      0.217D-01      0.117D-01      -119.52832917    248.952522    0.00000    0.00000   -0.90394    2    diag,B
    4      0.891D-02      0.129D-02      -119.53890643    248.518874    0.00000    0.00000   -0.75681    3    diag,B
    5      0.212D-02      0.769D-03      -119.54105925    248.620477    0.00000    0.00000   -0.80806    4    diag,B
    6      0.770D-03      0.465D-03      -119.54234490    248.617702    0.00000    0.00000   -0.80023    5    diag,B
    7      0.483D-03      0.355D-03      -119.54353580    248.529867    0.00000    0.00000   -0.78196    6    diag,B
    8      0.373D-03      0.266D-03      -119.54453581    248.315952    0.00000    0.00000   -0.70561    7    orth
    9      0.494D-03      0.135D-03      -119.54474523    248.236539    0.00000    0.00000   -0.65354    8    diag,B
   10      0.276D-03      0.752D-04      -119.54481211    248.241503    0.00000    0.00000   -0.62598    9    diag,B
   11      0.193D-03      0.458D-04      -119.54482698    248.239928    0.00000    0.00000   -0.61665   10    diag,B
   12      0.925D-04      0.344D-04      -119.54483528    248.235765    0.00000    0.00000   -0.60902   11    diag,B
   13      0.574D-04      0.302D-04      -119.54483753    248.234760    0.00000    0.00000   -0.60689   12    diag,B
   14      0.332D-04      0.199D-04      -119.54483970    248.232408    0.00000    0.00000   -0.60407   13    diag,B
   15      0.730D-04      0.138D-04      -119.54484061    248.230051    0.00000    0.00000   -0.60272   14    diag,B
   16      0.527D-04      0.146D-04      -119.54484083    248.229190    0.00000    0.00000   -0.60249   15    diag,B
   17      0.238D-04      0.952D-05      -119.54484100    248.228140    0.00000    0.00000   -0.60216   16    diag,B
   18      0.182D-04      0.107D-04      -119.54484107    248.227661    0.00000    0.00000   -0.60196   17    orth
   19      0.186D-04      0.952D-05      -119.54484111    248.227354    0.00000    0.00000   -0.60186   18    diag,B
   20      0.443D-04      0.166D-04      -119.54484094    248.227528    0.00000    0.00000   -0.60180   19    diag,B
   21      0.156D-03      0.234D-04      -119.54484075    248.227561    0.00000    0.00000   -0.60176   20    diag,B
   22      0.324D-03      0.249D-04      -119.54484110    248.227596    0.00000    0.00000   -0.60188   21    diag,B
   23      0.293D-03      0.693D-05      -119.54484112    248.227100    0.00000    0.00000   -0.60176   22    diag,B
   24      0.323D-04      0.675D-05      -119.54484115    248.226902    0.00000    0.00000   -0.60172   23    diag,B
   25      0.304D-04      0.112D-04      -119.54484115    248.226841    0.00000    0.00000   -0.60170   24    diag,B
   26      0.890D-04      0.167D-04      -119.54484109    248.226893    0.00000    0.00000   -0.60174   25    diag,B
   27      0.899D-04      0.135D-04      -119.54484054    248.224775    0.00000    0.00000   -0.60191   26    fixocc
   28      0.439D-03      0.234D-04      -119.54484091    248.230114    0.00000    0.00000   -0.60149   27    orth
   29      0.527D-03      0.161D-04      -119.54484114    248.227108    0.00000    0.00000   -0.60194   28    diag,B
   30      0.112D-03      0.272D-04      -119.54484099    248.229391    0.00000    0.00000   -0.60313   29    diag,B
   31      0.683D-04      0.122D-04      -119.54484116    248.226721    0.00000    0.00000   -0.60179   30    diag,B
   32      0.731D-04      0.467D-05      -119.54484116    248.226820    0.00000    0.00000   -0.60170   31    diag,B
   33      0.531D-04      0.251D-04      -119.54484116    248.226852    0.00000    0.00000   -0.60172   32    diag,B
   34      0.342D-04      0.626D-05      -119.54484117    248.226740    0.00000    0.00000   -0.60168   33    diag,B
   35      0.114D-04      0.763D-05      -119.54484117    248.226671    0.00000    0.00000   -0.60164   34    diag,B
   36      0.179D-04      0.886D-05      -119.54484109    248.225416    0.00000    0.00000   -0.60180   34    diag,B
   37      0.166D-03      0.170D-04      -119.54484117    248.226484    0.00000    0.00000   -0.60164   34    diag,B
   38      0.171D-03      0.901D-05      -119.54484011    248.223574    0.00000    0.00000   -0.59573   34    orth
   39      0.153D-03      0.258D-04      -119.54484117    248.226480    0.00000    0.00000   -0.60154   34    diag,B
   40      0.152D-03      0.556D-05      -119.54484116    248.226371    0.00000    0.00000   -0.60152   34    diag,B
   41      0.799D-04      0.162D-04      -119.54484117    248.226317    0.00000    0.00000   -0.60156   34    diag,B
   42      0.789D-04      0.801D-05      -119.54484118    248.226448    0.00000    0.00000   -0.60154   34    diag,B
   43      0.346D-04      0.892D-05      -119.54484118    248.226427    0.00000    0.00000   -0.60155   34    diag,B
   44      0.116D-04      0.495D-05      -119.54484109    248.226513    0.00000    0.00000   -0.60172   34    diag,B
   45      0.746D-04      0.174D-04      -119.54484116    248.226389    0.00000    0.00000   -0.60151   34    diag,B
   46      0.824D-04      0.240D-04      -119.54484118    248.226371    0.00000    0.00000   -0.60153   34    diag,B
   47      0.378D-04      0.105D-04      -119.54484052    248.227347    0.00000    0.00000   -0.60165   34    diag,B
   48      0.444D-03      0.208D-04      -119.54484117    248.226252    0.00000    0.00000   -0.60160   34    orth
   49      0.400D-03      0.169D-04      -119.54484117    248.226395    0.00000    0.00000   -0.60159   34    diag,B
   50      0.117D-03      0.210D-04      -119.54484116    248.226491    0.00000    0.00000   -0.60169   34    diag,B
   51      0.119D-03      0.189D-04      -119.54484062    248.226143    0.00000    0.00000   -0.60171   34    diag,B
   52      0.700D-03      0.285D-04      -119.54484118    248.226233    0.00000    0.00000   -0.60159   34    diag,B
   53      0.660D-03      0.817D-05      -119.54484118    248.226356    0.00000    0.00000   -0.60158   34    diag,B
   54      0.214D-04      0.180D-04      -119.54484118    248.226326    0.00000    0.00000   -0.60152   34    diag,B
   55      0.235D-04      0.114D-04      -119.54484118    248.226345    0.00000    0.00000   -0.60151   34    diag,B
   56      0.159D-04      0.651D-05      -119.54484118    248.226370    0.00000    0.00000   -0.60157   34    diag,B
   57      0.327D-04      0.742D-05      -119.54484095    248.224646    0.00000    0.00000   -0.60162   34    diag,B
   58      0.215D-03      0.188D-04      -119.54484116    248.226816    0.00000    0.00000   -0.60147   34    orth
   59      0.266D-03      0.444D-05      -119.54484113    248.226376    0.00000    0.00000   -0.60156   34    orth
   60      0.109D-03      0.149D-04      -119.54484118    248.226346    0.00000    0.00000   -0.60146    0    orth

 Final alpha occupancy:   6   3   3   1
 Final beta  occupancy:   6   2   2   0

 !RHF STATE 1.1 Energy               -119.544841177559
   --><property name="Energy" method="RHF" principal="true" stateSymmetry="1" stateNumber="1"
     value="-119.544841177559"/><!--
 Nuclear energy                        38.55433965
 One-electron energy                 -282.21235406
 Two-electron energy                  124.11317323
 Virial quotient                       -2.57886470
 !RHF STATE 1.1 Dipole moment           0.00000000     0.00000000    -0.60146405
 Dipole moment /Debye                   0.00000000     0.00000000    -1.52866901
   --><property name="Dipole moment" method="RHF" principal="true" stateSymmetry="1"
     stateNumber="1" value="0.0 0.0 -0.601464051987437"/><!--

 ELECTRON ORBITALS
 =================


   Orb  Occ    Energy  Couls-En    Coefficients

                                   1 1s      1 1s      1 1s      1 1s      1 1s      1 1s      1 1s      1 1s      1 1s      1 1s
                                   1 1s      1 1s      1 1s      1 1s      1 1s      1 1s      1 1s      1 1s      1 1s      1 1s
                                   1 1s      1 1s      1 1s      1 1s      1 1s      1 1s      1 1s      1 1s      1 1s      1 1s
                                   1 1s      1 1s      1 1s      1 1s      1 1s      1 1s      1 1s      1 2pz     1 2pz     1 2pz
                                   1 2pz     1 2pz     1 2pz     1 2pz     1 2pz     1 2pz     1 2pz     1 2pz     1 2pz     1 2pz
                                   1 2pz     1 2pz     1 2pz     1 2pz     1 2pz     1 2pz     1 2pz     1 2pz     1 2pz     1 2pz
                                   1 2pz     1 2pz     1 2pz     1 2pz     1 2pz     1 2pz     1 2pz     1 2pz     1 2pz     1 3d0
                                   1 3d2+    1 3d0     1 3d2+    1 3d0     1 3d2+    1 3d0     1 3d2+    1 3d0     1 3d2+    1 3d0
                                   1 3d2+    1 3d0     1 3d2+    1 3d0     1 3d2+    1 3d0     1 3d2+    1 3d0     1 3d2+    1 3d0
                                   1 3d2+    1 3d0     1 3d2+    1 3d0     1 3d2+    1 3d0     1 3d2+    1 3d0     1 3d2+    1 3d0
                                   1 3d2+    1 3d0     1 3d2+    1 3d0     1 3d2+    1 3d0     1 3d2+    1 3d0     1 3d2+    1 3d0
                                   1 3d2+    1 3d0     1 3d2+    1 4f0     1 4f2+    1 4f0     1 4f2+    1 4f0     1 4f2+    1 4f0
                                   1 4f2+    1 4f0     1 4f2+    1 4f0     1 4f2+    1 4f0     1 4f2+    1 4f0     1 4f2+    1 4f0
                                   1 4f2+    1 4f0     1 4f2+    1 4f0     1 4f2+    1 4f0     1 4f2+    1 4f0     1 4f2+    1 4f0
                                   1 4f2+    1 4f0     1 4f2+    1 5g0     1 5g4+    1 5g2+    1 5g0     1 5g4+    1 5g2+    1 5g0
                                   1 5g4+    1 5g2+    2 1s      2 1s      2 1s      2 1s      2 1s      2 1s      2 1s      2 1s
                                   2 1s      2 1s      2 1s      2 1s      2 1s      2 2pz     2 2pz     2 2pz     2 2pz     2 2pz
                                   2 2pz     2 2pz     2 2pz     2 3d0     2 3d2+    2 3d0     2 3d2+    2 3d0     2 3d2+    2 3d0
                                   2 3d2+    2 4f0     2 4f2+    2 4f0     2 4f2+

   1.1   2    -4.3216  -21.2784  0.000000 -0.000000  0.000000 -0.000000  0.000000 -0.000000  0.000000 -0.000000  0.000000 -0.000000
                                 0.000001 -0.000002  0.000007 -0.000018  0.000053 -0.000194  0.001458 -0.003165  0.003100 -0.003153
                                 0.006070 -0.014851  0.048764 -0.302945  0.782376 -0.800162  0.624340 -0.523131 -1.183540  0.938626
                                 0.479228  0.508859  0.203902  0.044782 -0.029346 -0.002085  0.000033  0.000000 -0.000000  0.000000
                                -0.000000  0.000000 -0.000000  0.000000 -0.000000  0.000000 -0.000000  0.000000 -0.000002  0.000011
                                -0.000042  0.000047 -0.000034  0.000053 -0.000099  0.000183 -0.000407  0.000780 -0.010616  0.026056
                                -0.065933  0.074216 -0.033883  0.031814 -0.000538 -0.023702  0.005021 -0.010503 -0.000049 -0.000000
                                 0.000000  0.000000 -0.000000 -0.000000  0.000000  0.000000 -0.000000 -0.000002  0.000000  0.000005
                                -0.000000 -0.000016  0.000000  0.000042 -0.000000 -0.000104  0.000000  0.000258 -0.000000 -0.000796
                                 0.000000  0.004584 -0.000000 -0.026334 -0.000001  0.041225  0.000002 -0.046660 -0.000003  0.035673
                                 0.000003 -0.021274 -0.000002  0.062553  0.000004 -0.048504 -0.000003  0.001491  0.000000  0.000054
                                -0.000000 -0.001936  0.000000  0.000000 -0.000000 -0.000000  0.000000  0.000001 -0.000000 -0.000002
                                 0.000000  0.000006 -0.000000 -0.000015  0.000000  0.000048 -0.000001 -0.000173  0.000005  0.000431
                                -0.000019  0.000140  0.000031 -0.004350 -0.000029  0.009660  0.000018 -0.013037 -0.000007  0.005609
                                 0.000002 -0.000475 -0.000000 -0.001272  0.000461 -0.000000  0.003529 -0.000851  0.000000 -0.002448
                                 0.001436 -0.000000 -0.000000  0.000000 -0.000001  0.000004 -0.000053 -0.000278 -0.003250  0.020317
                                 0.001682  0.008841 -0.002144  0.000687  0.019953 -0.000196 -0.002185 -0.007111 -0.019102 -0.007427
                                -0.000247  0.000049 -0.004060  0.002564  0.000000  0.008935 -0.000000  0.000093  0.000000  0.001999
                                 0.000000 -0.001405 -0.000000 -0.001936 -0.000000

   2.1   2    -2.6380  -17.6259 -0.000000  0.000000 -0.000000  0.000000 -0.000000  0.000000 -0.000000  0.000000 -0.000000  0.000000
                                -0.000000  0.000000 -0.000001  0.000001 -0.000004  0.000015 -0.000112  0.000242 -0.000237  0.000240
                                -0.000457  0.001108 -0.003542  0.021328 -0.054111  0.054740 -0.044637  0.067870 -0.114106  0.152035
                                -0.187444  0.277852 -0.225882 -0.045026 -0.035734 -0.015075  0.002497 -0.000000  0.000000 -0.000000
                                 0.000000 -0.000000  0.000000 -0.000000  0.000000 -0.000000  0.000001 -0.000002  0.000008 -0.000050
                                 0.000183 -0.000208  0.000179 -0.000390  0.000908 -0.003824  0.012662 -0.080849  0.652132 -0.891669
                                 0.148063 -0.059796  0.310052  0.563890  0.027863  0.185574 -0.002339 -0.020373 -0.001040 -0.000000
                                 0.000000  0.000000 -0.000000 -0.000000  0.000000  0.000000 -0.000000 -0.000001  0.000000  0.000005
                                -0.000000 -0.000014  0.000000  0.000037 -0.000000 -0.000093  0.000001  0.000232 -0.000003 -0.000758
                                 0.000007  0.004630 -0.000023 -0.028741  0.000070  0.046237 -0.000075 -0.054532  0.000039  0.042854
                                -0.000017 -0.031923  0.000001  0.098860  0.000004 -0.073900 -0.000005 -0.001991  0.000001 -0.007140
                                -0.000000 -0.002812 -0.000000  0.000000 -0.000000 -0.000001  0.000000  0.000005 -0.000000 -0.000016
                                 0.000000  0.000047 -0.000000 -0.000131  0.000000  0.000311 -0.000000 -0.001030  0.000001  0.005017
                                -0.000005 -0.007357  0.000010  0.006902 -0.000009  0.012026  0.000005 -0.015686  0.000000  0.005225
                                -0.000001 -0.002394  0.000000 -0.001202 -0.000010 -0.000001  0.006300  0.000022  0.000001 -0.003447
                                -0.000045 -0.000000 -0.000000  0.000001 -0.000011  0.000070 -0.000720 -0.010936 -0.034212  0.103643
                                 0.024915  0.083826  0.002675  0.010224  0.045780 -0.000994 -0.011241 -0.037362 -0.074867 -0.046534
                                -0.001160  0.000247 -0.007530  0.008435 -0.000000  0.025944  0.000000  0.000305  0.000000  0.009026
                                 0.000000 -0.004547  0.000000 -0.004994 -0.000000

   3.1   2    -1.3554  -13.0754 -0.000000  0.000000 -0.000000  0.000000 -0.000000  0.000000 -0.000000  0.000000 -0.000000  0.000000
                                -0.000000  0.000000 -0.000001  0.000002 -0.000007  0.000027 -0.000202  0.000438 -0.000429  0.000438
                                -0.000849  0.002091 -0.006994  0.044603 -0.117717  0.123586 -0.105703  0.126811  0.070746 -0.035122
                                -0.188680 -0.002706 -0.082748 -0.038944 -0.090539 -0.023890  0.003544  0.000000 -0.000000  0.000000
                                -0.000000  0.000000 -0.000000  0.000000 -0.000000  0.000000 -0.000000  0.000002 -0.000007  0.000045
                                -0.000164  0.000185 -0.000147  0.000271 -0.000577  0.001937 -0.005970  0.035162 -0.316606  0.490467
                                -0.337799  0.323218 -0.284132 -0.107422 -0.076816 -0.083351 -0.079620 -0.040680 -0.002112 -0.000000
                                 0.000000  0.000000 -0.000000 -0.000000  0.000000  0.000000  0.000000 -0.000000 -0.000000  0.000001
                                 0.000000 -0.000004 -0.000000  0.000007  0.000000 -0.000014 -0.000000 -0.000043  0.000000 -0.000350
                                -0.000001  0.002642  0.000005 -0.039322 -0.000030  0.065579  0.000049 -0.068719 -0.000057  0.037248
                                 0.000045  0.046206 -0.000030  0.065967  0.000076  0.059434 -0.000066  0.060537  0.000010 -0.019350
                                -0.000004 -0.004656  0.000001  0.000000  0.000000 -0.000001 -0.000000  0.000003  0.000000 -0.000011
                                -0.000000  0.000030  0.000000 -0.000093 -0.000000  0.000159  0.000000 -0.000639 -0.000001  0.001767
                                 0.000008  0.005047 -0.000017 -0.007009  0.000023  0.026439 -0.000022 -0.014273  0.000017  0.014649
                                -0.000014 -0.006637  0.000006  0.001219 -0.000118  0.000000  0.003796  0.000338  0.000000  0.001215
                                -0.000383 -0.000001 -0.000001  0.000006 -0.000047  0.000311 -0.003234 -0.048335 -0.158251  0.552257
                                 0.143633  0.445803 -0.003165  0.046736  0.104673 -0.001138 -0.011440 -0.033874 -0.088659 -0.095890
                                -0.000664  0.000302 -0.017533  0.004814 -0.000000  0.026938 -0.000000  0.000125 -0.000000  0.016371
                                 0.000001 -0.003168  0.000000 -0.005183 -0.000002

   4.1   2    -0.6936  -11.4484  0.000000 -0.000000  0.000000 -0.000000  0.000000 -0.000000  0.000000 -0.000000  0.000000 -0.000000
                                 0.000000 -0.000000  0.000001 -0.000002  0.000006 -0.000021  0.000154 -0.000335  0.000327 -0.000332
                                 0.000637 -0.001550  0.005027 -0.030907  0.079732 -0.082215  0.070791 -0.116958  0.197612 -0.259515
                                 0.337330 -0.455537  0.365722  0.048112  0.101363  0.040081 -0.007370 -0.000000  0.000000 -0.000000
                                 0.000000 -0.000000  0.000000 -0.000000  0.000000 -0.000000  0.000000 -0.000002  0.000007 -0.000043
                                 0.000159 -0.000178  0.000136 -0.000232  0.000471 -0.001307  0.003754 -0.019312  0.190152 -0.325897
                                 0.373952 -0.407709  0.281265 -0.070486  0.077280  0.086842  0.045496  0.048104  0.002338  0.000000
                                 0.000000 -0.000000 -0.000000  0.000000 -0.000000 -0.000000  0.000000  0.000001 -0.000000 -0.000004
                                 0.000000  0.000012 -0.000000 -0.000025  0.000000  0.000056 -0.000001  0.000027  0.000002  0.000896
                                -0.000007 -0.006310  0.000036  0.087440 -0.000182 -0.148049  0.000273  0.167743 -0.000292 -0.105507
                                 0.000221 -0.073374 -0.000139 -0.200749  0.000355 -0.066881 -0.000311 -0.174656  0.000049 -0.042423
                                -0.000018  0.005892  0.000005 -0.000000  0.000000  0.000001 -0.000000 -0.000006  0.000000  0.000023
                                -0.000000 -0.000064  0.000000  0.000193 -0.000000 -0.000427  0.000001  0.001671 -0.000002 -0.009223
                                 0.000013  0.010671 -0.000036 -0.008935  0.000064 -0.031000 -0.000075  0.030095  0.000071 -0.021596
                                -0.000064 -0.000926  0.000031  0.001049  0.000476 -0.000002 -0.011337 -0.000799  0.000005  0.001564
                                 0.000865 -0.000005 -0.000000  0.000002 -0.000012  0.000078 -0.000812 -0.012329 -0.040822  0.131936
                                 0.047458  0.154341 -0.000702  0.011855 -0.070491  0.006907  0.073839  0.242487  0.402992  0.248014
                                 0.004995 -0.001791  0.027420 -0.015637 -0.000000 -0.051898 -0.000001 -0.000567 -0.000000 -0.021279
                                 0.000004  0.007427  0.000001  0.010973 -0.000009

   5.1   2    -0.4917  -11.6423  0.000000 -0.000000  0.000000 -0.000000  0.000000 -0.000000  0.000000 -0.000000  0.000000 -0.000000
                                 0.000000 -0.000000  0.000000 -0.000000  0.000000 -0.000000  0.000000 -0.000000  0.000000 -0.000000
                                 0.000000 -0.000000  0.000000 -0.000000  0.000001 -0.000001  0.000001 -0.000002  0.000001 -0.000002
                                 0.000004 -0.000003  0.000005 -0.000008 -0.000027 -0.000018  0.000003 -0.000000  0.000000 -0.000000
                                -0.000000  0.000000 -0.000000  0.000000 -0.000000  0.000000 -0.000000  0.000000 -0.000000  0.000000
                                -0.000000  0.000000 -0.000000  0.000000 -0.000000  0.000000 -0.000000 -0.000000  0.000001 -0.000001
                                -0.000001  0.000002  0.000000  0.000003 -0.000002  0.000001 -0.000011 -0.000015 -0.000004 -0.000000
                                 0.000000 -0.000000 -0.000000  0.000000  0.000000 -0.000000 -0.000000  0.000000  0.000002 -0.000000
                                -0.000005  0.000000  0.000016 -0.000000 -0.000056  0.000000  0.000154 -0.000000 -0.000686  0.000000
                                 0.000454 -0.000000 -0.001405  0.000001 -0.078482 -0.000002  0.138462  0.000002 -0.145915 -0.000002
                                 0.061402  0.000001  0.252044 -0.000003  0.003196  0.000003  0.403524 -0.000001  0.347876 -0.000003
                                 0.169458 -0.000003  0.025363 -0.000000 -0.000000  0.000000  0.000000 -0.000000 -0.000001  0.000000
                                 0.000002 -0.000000 -0.000006  0.000000  0.000014 -0.000000 -0.000046  0.000000  0.000106 -0.000000
                                -0.000676  0.000000  0.002807 -0.000000 -0.003363  0.000000  0.004030 -0.000000  0.000754 -0.000000
                                -0.000758 -0.000001 -0.003565 -0.000000 -0.000000  0.002668  0.000000 -0.000000 -0.004265 -0.000000
                                -0.000000  0.007026 -0.000000  0.000000 -0.000000  0.000000 -0.000000 -0.000000 -0.000000 -0.000001
                                 0.000000  0.000012  0.000000  0.000000  0.000045  0.000000  0.000001  0.000002  0.000003 -0.000006
                                 0.000000 -0.000000 -0.000008 -0.000000  0.003330  0.000000  0.010923 -0.000000  0.000165  0.000001
                                 0.005693  0.000000 -0.002428 -0.000000 -0.003247

   6.1   2    -0.3327   -8.6119 -0.000000  0.000000 -0.000000  0.000000 -0.000000  0.000000 -0.000000  0.000000 -0.000000  0.000000
                                -0.000000  0.000001 -0.000002  0.000005 -0.000015  0.000054 -0.000406  0.000882 -0.000865  0.000883
                                -0.001721  0.004248 -0.014349  0.092626 -0.246728  0.261644 -0.229789  0.286684  0.194515 -0.153121
                                -0.344273 -0.139924 -0.286557  0.311224  0.648659  0.205308 -0.003678 -0.000000  0.000000 -0.000000
                                 0.000000 -0.000000  0.000000 -0.000000  0.000000 -0.000000  0.000000 -0.000000  0.000001 -0.000007
                                 0.000025 -0.000028  0.000021 -0.000033  0.000062 -0.000122  0.000278 -0.000632  0.005304 -0.010298
                                 0.018264 -0.014992  0.000321  0.006903 -0.025399  0.019867 -0.030831 -0.034977 -0.009696  0.000000
                                -0.000000 -0.000000  0.000000  0.000000 -0.000000 -0.000000  0.000000  0.000000 -0.000000 -0.000001
                                 0.000000  0.000002 -0.000000 -0.000002  0.000000  0.000000 -0.000000  0.000092  0.000001  0.000232
                                -0.000002 -0.001700  0.000001  0.036432  0.000024 -0.061685 -0.000054  0.065673  0.000085 -0.033818
                                -0.000073 -0.072588  0.000054 -0.011324 -0.000142 -0.124394  0.000124 -0.108360 -0.000020 -0.065934
                                 0.000008 -0.019441 -0.000002  0.000000 -0.000000 -0.000000  0.000000  0.000000 -0.000000 -0.000001
                                 0.000000  0.000001 -0.000000 -0.000008  0.000000  0.000003 -0.000000 -0.000087  0.000001  0.000833
                                -0.000010 -0.001034  0.000025  0.004689 -0.000039 -0.002764  0.000041  0.006897 -0.000035  0.004815
                                 0.000030  0.005892 -0.000015 -0.000254  0.000802  0.000000  0.000594 -0.000452 -0.000000 -0.001629
                                 0.000643  0.000001  0.000000 -0.000001  0.000005 -0.000036  0.000363  0.006104  0.017767 -0.056729
                                -0.017202 -0.095977 -0.003018 -0.005346 -0.079499 -0.002172 -0.022568 -0.072237 -0.115628 -0.103857
                                -0.001219  0.000573 -0.019235 -0.003044  0.000000 -0.006557  0.000000 -0.000159  0.000000  0.001419
                                -0.000002  0.001449 -0.000001  0.000297  0.000004

   7.1   0     0.0221   -3.5812  0.000000 -0.000000  0.000000 -0.000000  0.000000 -0.000000  0.000000 -0.000000  0.000000 -0.000000
                                 0.000000 -0.000000  0.000001 -0.000003  0.000009 -0.000032  0.000237 -0.000514  0.000502 -0.000508
                                 0.000960 -0.002312  0.007265 -0.042811  0.107234 -0.107557  0.089599 -0.164705  0.365466 -0.419049
                                 0.386839 -0.564369  0.564405 -0.599804 -0.682237 -2.478318  1.981480 -0.000000  0.000000 -0.000000
                                 0.000000 -0.000000  0.000000 -0.000000  0.000000 -0.000000  0.000000 -0.000002  0.000006 -0.000040
                                 0.000148 -0.000165  0.000126 -0.000214  0.000432 -0.001181  0.003342 -0.016874  0.159835 -0.265874
                                 0.265860 -0.268186  0.184386 -0.045807  0.237829 -0.178768 -0.353776 -0.822556 -0.502317 -0.000000
                                 0.000000  0.000000 -0.000000 -0.000000 -0.000000  0.000000  0.000000 -0.000001 -0.000000  0.000003
                                 0.000000 -0.000008 -0.000000  0.000018  0.000000 -0.000042  0.000000  0.000051 -0.000000 -0.000443
                                 0.000000  0.002683  0.000001 -0.029968 -0.000013  0.049069  0.000025 -0.052010 -0.000033  0.029966
