
 Primary working directories    : /global/cscratch1/sd/gwang18
 Secondary working directories  : /global/cscratch1/sd/gwang18
 Wavefunction directory         : /global/homes/g/gwang18/wfu/
 Main file repository           : /global/cscratch1/sd/gwang18/

 SHA1      : 19cd028119e0e09f93f0674bd8af7968d9b3eff6
 NAME      : 2015.1.36
 ARCHNAME  : linux/x86_64
 FC        : /opt/cray/pe/craype/2.5.14/bin/ftn
 BLASLIB   : -L/opt/intel/compilers_and_libraries_2018.1.163/linux/mkl/lib/intel64 -Wl,-_start-group -lmkl_intel_ilp64 -lmkl_intel_thread -lmkl_core -Wl,-_end-group -liomp5
 id        : lbl

 Nodes     nprocs
 nid01225    23
 Number of processes for MPI-2 version of Molpro:   nprocs(total)=   24   nprocs(compute)=   23   nprocs(helper)=    1

 Using customized tuning parameters: mindgm=7; mindgv=16; mindgc=1; mindgr=1; noblas=0; minvec=7
 default implementation of scratch files=sf  

 ***,Calculation for Ag atom, singlet and triplet
 memory,512,m
 
 gthresh,twoint=1.e-15
 gthresh,oneint=1.e-15
 
 geometry={
 1
 Ag
 Ag  0.0 0.0 0.0
 }
 
 basis={
 Including file /global/u2/g/gwang18/projects/ag-ecp/atom/ae/dkh/basis/aug-cc-pCVTZ.basis
 }
 
 set,dkroll=1,dkho=10,dkhp=4
 
 Including file /global/u2/g/gwang18/projects/ag-ecp/atom/ae/dkh/basis/states.proc
 
 do i=1,18
     if (i.eq.1) then
         Is1dten
     else if (i.eq.2) then
         As2dten
     else if (i.eq.3) then
         Ip1dten
     else if (i.eq.4) then
         Is2d9
     else if (i.eq.5) then
         IIdten
     else if (i.eq.6) then
         IIs1d9
     else if (i.eq.7) then
         IIId9
     else if (i.eq.8) then
         IVd8
     else if (i.eq.9) then
         Vd7
     else if (i.eq.10) then
         VId6
     else if (i.eq.11) then
         VIId5
     else if (i.eq.12) then
         VIIId4
     else if (i.eq.13) then
         IXd3
     else if (i.eq.14) then
         Xd2
     else if (i.eq.15) then
         XId1
     else if (i.eq.16) then
         XIIKr
     else if (i.eq.17) then
         XVp3
     else if (i.eq.18) then
         XVIIIs2
     endif
     scf(i)=energy
     _CC_NORM_MAX=2.0
     {rccsd(t),maxit=100;core}
     ccsd(i)=energy
 enddo
 
 table,scf,ccsd
 type,csv
 save

 Variables initialized (889), CPU time= 0.01 sec
 Commands  initialized (702), CPU time= 0.02 sec, 572 directives.
 Default parameters read. Elapsed time= 0.29 sec

 Checking input...
 Passed
1


                                         ***  PROGRAM SYSTEM MOLPRO  ***
                                       Copyright, TTI GmbH Stuttgart, 2015
                                    Version 2015.1 linked Dec 29 2018 15:55:43


 **********************************************************************************************************************************
 LABEL *   Calculation for Ag atom, singlet and triplet                                  
  64 bit mpp version                                                                     DATE: 02-Jul-19          TIME: 13:24:35  
 **********************************************************************************************************************************

 SHA1:             19cd028119e0e09f93f0674bd8af7968d9b3eff6
 **********************************************************************************************************************************

 THRESHOLDS:

 ZERO    =  1.00D-12  ONEINT  =  1.00D-12  TWOINT  =  1.00D-15  PREFAC  =  1.00D-14  LOCALI  =  1.00D-09  EORDER  =  1.00D-04
 ENERGY  =  0.00D+00  ETEST   =  0.00D+00  EDENS   =  0.00D+00  THRDEDEF=  1.00D-06  GRADIENT=  1.00D-02  STEP    =  1.00D-03
 ORBITAL =  1.00D-05  CIVEC   =  1.00D-05  COEFF   =  1.00D-04  PRINTCI =  5.00D-02  PUNCHCI =  9.90D+01  OPTGRAD =  3.00D-04
 OPTENERG=  1.00D-06  OPTSTEP =  3.00D-04  THRGRAD =  1.00D-10  COMPRESS=  1.00D-11  VARMIN  =  1.00D-07  VARMAX  =  1.00D-03
 THRDOUB =  0.00D+00  THRDIV  =  1.00D-05  THRRED  =  1.00D-07  THRPSP  =  1.00D+00  THRDC   =  1.00D-10  THRCS   =  1.00D-10
 THRNRM  =  1.00D-08  THREQ   =  0.00D+00  THRDE   =  1.00D+00  THRREF  =  1.00D-05  SPARFAC =  1.00D+00  THRDLP  =  1.00D-07
 THRDIA  =  1.00D-10  THRDLS  =  1.00D-07  THRGPS  =  0.00D+00  THRKEX  =  0.00D+00  THRDIS  =  2.00D-01  THRVAR  =  1.00D-10
 THRLOC  =  1.00D-06  THRGAP  =  1.00D-06  THRLOCT = -1.00D+00  THRGAPT = -1.00D+00  THRORB  =  1.00D-06  THRMLTP =  0.00D+00
 THRCPQCI=  1.00D-10  KEXTA   =  0.00D+00  THRCOARS=  0.00D+00  SYMTOL  =  1.00D-06  GRADTOL =  1.00D-06  THROVL  =  1.00D-08
 THRORTH =  1.00D-08  GRID    =  1.00D-06  GRIDMAX =  1.00D-03  DTMAX   =  0.00D+00  THROCCDE=  1.00D-01  THROCCDE=  1.00D-01



 THRESHOLDS:

 ZERO    =  1.00D-12  ONEINT  =  1.00D-15  TWOINT  =  1.00D-15  PREFAC  =  1.00D-14  LOCALI  =  1.00D-09  EORDER  =  1.00D-04
 ENERGY  =  0.00D+00  ETEST   =  0.00D+00  EDENS   =  0.00D+00  THRDEDEF=  1.00D-06  GRADIENT=  1.00D-02  STEP    =  1.00D-03
 ORBITAL =  1.00D-05  CIVEC   =  1.00D-05  COEFF   =  1.00D-04  PRINTCI =  5.00D-02  PUNCHCI =  9.90D+01  OPTGRAD =  3.00D-04
 OPTENERG=  1.00D-06  OPTSTEP =  3.00D-04  THRGRAD =  1.00D-10  COMPRESS=  1.00D-11  VARMIN  =  1.00D-07  VARMAX  =  1.00D-03
 THRDOUB =  0.00D+00  THRDIV  =  1.00D-05  THRRED  =  1.00D-07  THRPSP  =  1.00D+00  THRDC   =  1.00D-10  THRCS   =  1.00D-10
 THRNRM  =  1.00D-08  THREQ   =  0.00D+00  THRDE   =  1.00D+00  THRREF  =  1.00D-05  SPARFAC =  1.00D+00  THRDLP  =  1.00D-07
 THRDIA  =  1.00D-10  THRDLS  =  1.00D-07  THRGPS  =  0.00D+00  THRKEX  =  0.00D+00  THRDIS  =  2.00D-01  THRVAR  =  1.00D-10
 THRLOC  =  1.00D-06  THRGAP  =  1.00D-06  THRLOCT = -1.00D+00  THRGAPT = -1.00D+00  THRORB  =  1.00D-06  THRMLTP =  0.00D+00
 THRCPQCI=  1.00D-10  KEXTA   =  0.00D+00  THRCOARS=  0.00D+00  SYMTOL  =  1.00D-06  GRADTOL =  1.00D-06  THROVL  =  1.00D-08
 THRORTH =  1.00D-08  GRID    =  1.00D-06  GRIDMAX =  1.00D-03  DTMAX   =  0.00D+00  THROCCDE=  1.00D-01  THROCCDE=  1.00D-01



Geometry recognized as XYZ


 Variable memory set to  512000000 words,  buffer space   230000 words

 SETTING BASIS          =    USERDEF
 SETTING DKROLL         =         1.00000000                                  
 SETTING DKHO           =        10.00000000                                  
 SETTING DKHP           =         4.00000000                                  

 DO I                   =         1.00000000   

 Running procedure=IS1DTEN


 Recomputing integrals since basis changed


 Using spherical harmonics



 PROGRAM * SEWARD (Integral evaluation for generally contracted gaussian basis sets)     Author: Roland Lindh, 1990

 Geometry written to block  1 of record 700

 Orientation using atomic masses  
 Molecule type: Atom
 Symmetry elements: X,Y,Z
 Rotational constants:       0.0000000      0.0000000      0.0000000 GHz  (calculated with average atomic masses)

 Point group  D2h 



 ATOMIC COORDINATES

 NR  ATOM    CHARGE       X              Y              Z

   1  AG     47.00    0.000000000    0.000000000    0.000000000

 NUCLEAR CHARGE:                   47
 NUMBER OF PRIMITIVE AOS:         292
 NUMBER OF SYMMETRY AOS:          245
 NUMBER OF CONTRACTIONS:          245   (  73Ag  +  33B3u +  33B2u +  23B1g +  33B1u +  23B2g +  23B3g +   4Au  )
 NUMBER OF CORE ORBITALS:          18   (   6Ag  +   3B3u +   3B2u +   1B1g +   3B1u +   1B2g +   1B3g +   0Au  )
 NUMBER OF VALENCE ORBITALS:        6   (   3Ag  +   0B3u +   0B2u +   1B1g +   0B1u +   1B2g +   1B3g +   0Au  )


 NUCLEAR REPULSION ENERGY    0.00000000

 One-electron integrals computed with SEWARD

 10nd-order Douglas-Kroll-Hess method activated. McWeeny DKH parametrization is used.

 Computing Douglas-Kroll / X2C integrals

 AO integral compression algorithm  1   Integral accuracy      1.0D-15

     544.735 MB (compressed) written to integral file ( 56.5%)

     Node minimum: 4.981 MB, node maximum: 68.157 MB


 NUMBER OF SORTED TWO-ELECTRON INTEGRALS:    2584110.     BUFFER LENGTH:  32768
 NUMBER OF SEGMENTS:   1  SEGMENT LENGTH:    2584110      RECORD LENGTH: 524288

 Memory used in sort:       3.14 MW

 SORT1 READ   120427051. AND WROTE     1762035. INTEGRALS IN      6 RECORDS. CPU TIME:     3.59 SEC, REAL TIME:     5.11 SEC
 SORT2 READ    40927937. AND WROTE    59797874. INTEGRALS IN   1679 RECORDS. CPU TIME:     0.15 SEC, REAL TIME:     0.36 SEC

 Node minimum:     2574456.  Node maximum:     2631174. integrals

 OPERATOR DM      FOR CENTER  0  COORDINATES:    0.000000    0.000000    0.000000

 EXTRA SYMMETRY OF AOS IN SYMMETRY 1:   1 1 1 1 1 1 1 1 1 1   1 1 1 1 1 1 1 1 1 1   1 1 1 1 1 1 1 1 1 1   2 3 2 3 2 3 2 3 2 3
                                        2 3 2 3 2 3 2 3 2 3   2 3 2 3 2 3 2 3 2 3   2 3 2 3 4 5 6 4 5 6   4 5 6
 EXTRA SYMMETRY OF AOS IN SYMMETRY 2:   1 1 1 1 1 1 1 1 1 1   1 1 1 1 1 1 1 1 1 1   1 1 1 1 1 2 3 2 3 2   3 2 3
 EXTRA SYMMETRY OF AOS IN SYMMETRY 3:   1 1 1 1 1 1 1 1 1 1   1 1 1 1 1 1 1 1 1 1   1 1 1 1 1 2 3 2 3 2   3 2 3
 EXTRA SYMMETRY OF AOS IN SYMMETRY 4:   1 1 1 1 1 1 1 1 1 1   1 1 1 1 1 1 1 2 3 2   3 2 3
 EXTRA SYMMETRY OF AOS IN SYMMETRY 5:   1 1 1 1 1 1 1 1 1 1   1 1 1 1 1 1 1 1 1 1   1 1 1 1 1 2 3 2 3 2   3 2 3
 EXTRA SYMMETRY OF AOS IN SYMMETRY 6:   1 1 1 1 1 1 1 1 1 1   1 1 1 1 1 1 1 2 3 2   3 2 3
 EXTRA SYMMETRY OF AOS IN SYMMETRY 7:   1 1 1 1 1 1 1 1 1 1   1 1 1 1 1 1 1 2 3 2   3 2 3

 Eigenvalues of metric

         1 0.163E-05 0.280E-04 0.112E-03 0.352E-03 0.352E-03 0.562E-03 0.723E-03 0.111E-02
         2 0.973E-05 0.151E-03 0.119E-02 0.441E-02 0.615E-02 0.102E-01 0.163E-01 0.236E-01
         3 0.973E-05 0.151E-03 0.119E-02 0.441E-02 0.615E-02 0.102E-01 0.163E-01 0.236E-01
         4 0.352E-03 0.207E-02 0.808E-02 0.192E-01 0.341E-01 0.615E-01 0.104E+00 0.188E+00
         5 0.973E-05 0.151E-03 0.119E-02 0.441E-02 0.615E-02 0.102E-01 0.163E-01 0.236E-01
         6 0.352E-03 0.207E-02 0.808E-02 0.192E-01 0.341E-01 0.615E-01 0.104E+00 0.188E+00
         7 0.352E-03 0.207E-02 0.808E-02 0.192E-01 0.341E-01 0.615E-01 0.104E+00 0.188E+00
         8 0.254E+00 0.593E+00 0.126E+01 0.189E+01


 **********************************************************************************************************************************
 DATASETS  * FILE   NREC   LENGTH (MB)   RECORD NAMES
              1      22       20.66       500      610      700      900      950      970     1000      129      960     1700   
                                          VAR    BASINP    GEOM    SYMINP    ZMAT    AOBASIS   BASIS     P2S    ABASIS    OPER   
                                         1101     1401     1411     1412     1650     1100     1400     1410     1200     1210   
                                          SR      EKINR    POTR     PVPR    MOLCAS      S      EKIN      POT      H0       H01  
                                         1080     1600   
                                         AOSYM     SMH  

 PROGRAMS   *        TOTAL       INT
 CPU TIMES  *        31.79     31.08
 REAL TIME  *        41.62 SEC
 DISK USED  *         1.08 GB      
 GA USED    *         0.00 MB       (max)       0.00 MB       (current)
 **********************************************************************************************************************************


 PROGRAM * RHF-SCF (OPEN SHELL)       Authors: W. Meyer, H.-J. Werner


 NUMBER OF ELECTRONS:      24+   23-    SPACE SYMMETRY=1    SPIN SYMMETRY: Doublet 
 CONVERGENCE THRESHOLDS:    1.00E-05 (Density)    1.00E-07 (Energy)
 MAX. NUMBER OF ITERATIONS:       60
 INTERPOLATION TYPE:            DIIS
 INTERPOLATION STEPS:              2 (START)      1 (STEP)
 LEVEL SHIFTS:                 -0.60 (CLOSED) -0.30 (OPEN) 


 Singly occupied orbitals:      9.1
 
 Extra symmetries of mos in symmetry 1:   1   1   1   1   3   2   3   2   1
 Orbital guess generated from atomic densities. Full valence occupancy:    9   3   3   2   3   2   2   0


 Molecular orbital dump at record        4202.2

 ITERATION    DDIFF          GRAD             ENERGY        2-EL.EN.            DIPOLE MOMENTS         DIIS   ORB.
    1      0.000D+00      0.000D+00     -5287.12521987   3455.103270    0.00000    0.00000    0.00000    0    start
    2      0.000D+00      0.118D+00     -5304.28907531   4358.233876    0.00000    0.00000    0.00000    1    diag,B
    3      0.115D+01      0.171D+00     -5310.14077585   4209.069482    0.00000    0.00000    0.00000    2    diag,B
    4      0.598D-01      0.767D-01     -5312.52914517   4093.041698    0.00000    0.00000    0.00000    3    diag,B
    5      0.473D-01      0.215D-01     -5312.86292030   4046.198572    0.00000    0.00000    0.00000    4    diag,B
    6      0.222D-01      0.356D-02     -5312.89360426   4033.316452    0.00000    0.00000    0.00000    5    diag,B
    7      0.106D-01      0.234D-02     -5312.89927329   4034.330649    0.00000    0.00000    0.00000    6    fixocc
    8      0.566D-02      0.997D-03     -5312.90139943   4035.089095    0.00000    0.00000    0.00000    7    diag,B
    9      0.266D-02      0.257D-03     -5312.90194644   4035.179316    0.00000    0.00000    0.00000    8    diag,B
   10      0.211D-02      0.762D-04     -5312.90203344   4035.067243    0.00000    0.00000    0.00000    9    orth
   11      0.650D-03      0.266D-04     -5312.90203808   4035.015025    0.00000    0.00000    0.00000    9    diag,B
   12      0.241D-03      0.114D-04     -5312.90203978   4034.980753    0.00000    0.00000    0.00000    9    diag,B
   13      0.174D-03      0.147D-05     -5312.90203981   4034.979493    0.00000    0.00000    0.00000    9    diag,B
   14      0.314D-04      0.251D-06     -5312.90203981   4034.979532    0.00000    0.00000    0.00000    9    diag,B
   15      0.450D-05      0.114D-06     -5312.90203981   4034.979551    0.00000    0.00000    0.00000    0    orth

 Final alpha occupancy:   9   3   3   2   3   2   2   0
 Final beta  occupancy:   8   3   3   2   3   2   2   0

 !RHF STATE 1.1 Energy              -5312.902039812371
 Nuclear energy                         0.00000000
 One-electron energy                -7330.39181536
 Two-electron energy                 2017.48977554
 Virial quotient                       -0.88090853
 !RHF STATE 1.1 Dipole moment           0.00000000     0.00000000     0.00000000
 Dipole moment /Debye                   0.00000000     0.00000000     0.00000000

 ELECTRON ORBITALS
 =================


   Orb  Occ    Energy  Couls-En    Coefficients

                                   1 1s      1 1s      1 1s      1 1s      1 1s      1 1s      1 1s      1 1s      1 1s      1 1s   
                                   1 1s      1 1s      1 1s      1 1s      1 1s      1 1s      1 1s      1 1s      1 1s      1 1s   
                                   1 1s      1 1s      1 1s      1 1s      1 1s      1 1s      1 1s      1 1s      1 1s      1 1s   
                                   1 3d0     1 3d2+    1 3d0     1 3d2+    1 3d0     1 3d2+    1 3d0     1 3d2+    1 3d0     1 3d2+ 
                                   1 3d0     1 3d2+    1 3d0     1 3d2+    1 3d0     1 3d2+    1 3d0     1 3d2+    1 3d0     1 3d2+ 
                                   1 3d0     1 3d2+    1 3d0     1 3d2+    1 3d0     1 3d2+    1 3d0     1 3d2+    1 3d0     1 3d2+ 
                                   1 3d0     1 3d2+    1 3d0     1 3d2+    1 5g0     1 5g4+    1 5g2+    1 5g0     1 5g4+    1 5g2+ 
                                   1 5g0     1 5g4+    1 5g2+ 

   1.1   2  -942.4333-2081.2686  0.000310 -0.000148  0.000601  0.000262  0.001185  0.001606  0.003486  0.006306  0.012789  0.025974
                                 0.055018  0.116646  0.228500  0.352504  0.297836  0.073259  0.000246  0.000930 -0.000483 -0.000085
                                 0.000183 -0.000493  0.000699 -0.000656  0.000440 -0.000094  0.000021 -0.000008  0.000003 -0.000001
                                -0.000000  0.000000 -0.000000 -0.000000 -0.000000  0.000000 -0.000000 -0.000000 -0.000000  0.000000
                                 0.000000 -0.000000 -0.000000  0.000000  0.000000 -0.000000 -0.000000  0.000000  0.000000 -0.000000
                                -0.000000  0.000000  0.000000 -0.000000 -0.000000  0.000000  0.000000 -0.000000  0.000000  0.000000
                                 0.000000 -0.000000  0.000000  0.000000 -0.000000  0.000000 -0.000000  0.000000 -0.000000  0.000000
                                 0.000000 -0.000000  0.000000

   2.1   2  -141.9199 -426.3430 -0.000105  0.000050 -0.000204 -0.000089 -0.000403 -0.000546 -0.001195 -0.002161 -0.004452 -0.009092
                                -0.019941 -0.043849 -0.095584 -0.176606 -0.208863  0.100011  0.637905  0.430217 -0.038559  0.060258
                                -0.033071  0.044813 -0.056688  0.047852 -0.030866  0.006336 -0.001338  0.000489 -0.000178  0.000042
                                -0.000000 -0.000000  0.000000  0.000000 -0.000000 -0.000000  0.000000  0.000000  0.000000 -0.000000
                                 0.000000  0.000000  0.000000 -0.000000 -0.000000  0.000000  0.000000 -0.000000 -0.000000  0.000000
                                 0.000000 -0.000000 -0.000000  0.000000  0.000000 -0.000000 -0.000000  0.000000  0.000000 -0.000000
                                -0.000000  0.000000 -0.000000 -0.000000 -0.000000  0.000000 -0.000000  0.000000 -0.000000  0.000000
                                -0.000000  0.000000 -0.000000

   3.1   2   -27.3736 -145.4530  0.000046 -0.000022  0.000089  0.000039  0.000176  0.000238  0.000521  0.000942  0.001943  0.003979
                                 0.008751  0.019396  0.042827  0.081698  0.102075 -0.062004 -0.513191 -0.531018  0.364218  0.569885
                                 0.487790  0.092114 -0.024616 -0.006519  0.011179 -0.003377  0.000972 -0.000386  0.000142 -0.000035
                                 0.000000 -0.000000 -0.000000  0.000000  0.000000 -0.000000 -0.000000  0.000000 -0.000000 -0.000000
                                -0.000000 -0.000000 -0.000000 -0.000000  0.000000 -0.000000  0.000000 -0.000000  0.000000 -0.000000
                                 0.000000 -0.000000 -0.000000 -0.000000  0.000000  0.000000  0.000000  0.000000  0.000000 -0.000000
                                 0.000000  0.000000  0.000000 -0.000000  0.000000  0.000000  0.000000 -0.000000 -0.000000 -0.000000
                                -0.000000  0.000000 -0.000000

   4.1   2    -4.2727  -57.9493 -0.000019  0.000009 -0.000037 -0.000016 -0.000073 -0.000099 -0.000217 -0.000394 -0.000812 -0.001664
                                -0.003658 -0.008131 -0.017974 -0.034565 -0.043544  0.027432  0.243842  0.270680 -0.199059 -0.513869
                                -0.520277  0.274340  0.394622  0.509151  0.116163  0.112347 -0.002859  0.002861 -0.000851  0.000254
                                 0.000000  0.000000  0.000000  0.000000  0.000000 -0.000000  0.000000  0.000000  0.000000  0.000000
                                 0.000000  0.000000  0.000000  0.000000  0.000000  0.000000  0.000000  0.000000  0.000000  0.000000
                                -0.000000  0.000000 -0.000000  0.000000 -0.000000  0.000000 -0.000000  0.000000  0.000000 -0.000000
                                -0.000000  0.000000 -0.000000 -0.000000  0.000000 -0.000000  0.000000 -0.000000 -0.000000 -0.000000
                                 0.000000  0.000000  0.000000

   5.1   2   -14.4794 -123.9999  0.000000 -0.000000  0.000000 -0.000000  0.000000 -0.000000  0.000000  0.000000 -0.000000  0.000000
                                -0.000000  0.000000 -0.000000  0.000000 -0.000000  0.000000 -0.000000  0.000000 -0.000000  0.000000
                                -0.000000  0.000000 -0.000000  0.000000 -0.000000  0.000000 -0.000000  0.000000 -0.000000  0.000000
                                 0.000000  0.000046  0.000000  0.000236  0.000000  0.000775  0.000000  0.005354  0.000001  0.020801
                                 0.000002  0.092046  0.000005  0.211390  0.000006  0.238483  0.000008  0.347254  0.000004  0.147265
                                 0.000004  0.168836 -0.000000 -0.005222  0.000001  0.020912 -0.000000 -0.005403  0.000000  0.002270
                                -0.000000 -0.000911  0.000000  0.000284 -0.000000 -0.000000 -0.000000  0.000000 -0.000000  0.000000
                                 0.000000 -0.000000  0.000000

   6.1   2   -14.4794 -123.9999 -0.000000  0.000000 -0.000000 -0.000000 -0.000000 -0.000000 -0.000000 -0.000000 -0.000000 -0.000000
                                -0.000000 -0.000000 -0.000000 -0.000000 -0.000000  0.000000  0.000000  0.000000 -0.000000 -0.000000
                                 0.000000  0.000000 -0.000000  0.000000 -0.000000  0.000000 -0.000000 -0.000000 -0.000000 -0.000000
                                 0.000046 -0.000000  0.000236 -0.000000  0.000775 -0.000000  0.005354 -0.000000  0.020801 -0.000001
                                 0.092046 -0.000002  0.211390 -0.000005  0.238483 -0.000006  0.347254 -0.000008  0.147265 -0.000004
                                 0.168836 -0.000004 -0.005222  0.000000  0.020912 -0.000001 -0.005403  0.000000  0.002270 -0.000000
                                -0.000911  0.000000  0.000284 -0.000000 -0.000000  0.000000 -0.000000  0.000000 -0.000000  0.000000
                                 0.000000 -0.000000  0.000000

   7.1   2    -0.5113  -38.6471  0.000000 -0.000000  0.000000 -0.000000  0.000000  0.000000  0.000000  0.000000  0.000000  0.000000
                                 0.000000  0.000000  0.000000  0.000000  0.000000 -0.000000 -0.000000 -0.000000  0.000000 -0.000000
                                 0.000000 -0.000000  0.000000 -0.000000  0.000000 -0.000000  0.000000 -0.000000  0.000000 -0.000000
                                -0.000000 -0.000014 -0.000000 -0.000078 -0.000000 -0.000240 -0.000000 -0.001736 -0.000000 -0.006634
                                -0.000000 -0.030137 -0.000000 -0.068996 -0.000000 -0.078859 -0.000001 -0.099619 -0.000000 -0.038077
                                 0.000001  0.095872  0.000001  0.203032  0.000002  0.279637  0.000002  0.374640  0.000001  0.224643
                                 0.000000  0.074738  0.000000  0.001934 -0.000000  0.000000  0.000000  0.000000  0.000000 -0.000000
                                -0.000000 -0.000000  0.000000

   8.1   2    -0.5113  -38.6472  0.000000 -0.000000  0.000000  0.000000  0.000000  0.000000  0.000000  0.000000  0.000000  0.000000
                                 0.000000  0.000000  0.000000  0.000000  0.000000 -0.000000 -0.000001 -0.000001  0.000001  0.000002
                                 0.000002 -0.000003 -0.000001 -0.000006  0.000001 -0.000003  0.000007  0.000007  0.000005 -0.000002
                                -0.000014  0.000000 -0.000078  0.000000 -0.000240  0.000000 -0.001736  0.000000 -0.006634  0.000000
                                -0.030137  0.000000 -0.068996  0.000000 -0.078859  0.000000 -0.099619  0.000001 -0.038077  0.000000
                                 0.095872 -0.000001  0.203032 -0.000001  0.279637 -0.000002  0.374640 -0.000002  0.224643 -0.000001
                                 0.074738 -0.000000  0.001933 -0.000000  0.000000  0.000000 -0.000000 -0.000000 -0.000000  0.000000
                                 0.000000 -0.000000  0.000000

   9.1   +    -0.2369  -16.4745  0.000004 -0.000002  0.000008  0.000004  0.000016  0.000022  0.000049  0.000088  0.000181  0.000372
                                 0.000817  0.001817  0.004016  0.007735  0.009754 -0.006177 -0.055603 -0.062308  0.045846  0.132327
                                 0.133303 -0.104872 -0.120848 -0.204963 -0.076122 -0.098040  0.178481  0.561622  0.416074  0.027895
                                 0.000000  0.000000  0.000000  0.000000  0.000000  0.000000  0.000000  0.000000  0.000000  0.000000
                                 0.000000  0.000000  0.000001  0.000000  0.000001  0.000000  0.000001  0.000000  0.000001  0.000000
                                -0.000001 -0.000000 -0.000002 -0.000000 -0.000003 -0.000000 -0.000004 -0.000000 -0.000004 -0.000000
                                -0.000002 -0.000000 -0.000008 -0.000000  0.000000  0.000000 -0.000000 -0.000000 -0.000000  0.000000
                                -0.000000 -0.000000  0.000000

  10.1   0     0.0343   -5.3799 -0.000001  0.000001 -0.000002 -0.000001 -0.000004 -0.000006 -0.000013 -0.000023 -0.000050 -0.000097
                                -0.000229 -0.000471 -0.001131 -0.001975 -0.002919  0.002432  0.012619  0.029727 -0.042132  0.028346
                                -0.145408  0.666983 -1.313904  2.630573 -2.642078  1.369470 -1.123337  1.401096 -2.760298  2.422817
                                -0.000000  0.000000 -0.000000 -0.000000 -0.000000  0.000000 -0.000000  0.000000 -0.000000  0.000000
                                -0.000000  0.000000 -0.000000  0.000000 -0.000000 -0.000000 -0.000000  0.000000 -0.000000 -0.000000
                                 0.000000  0.000000  0.000000 -0.000000  0.000001  0.000000  0.000001 -0.000000  0.000001  0.000000
                                 0.000000 -0.000000  0.000001  0.000000 -0.000000 -0.000000 -0.000000  0.000000  0.000000  0.000000
                                 0.000000  0.000000  0.000000

  11.1   0     0.1425   -7.6541  0.000000 -0.000000  0.000000  0.000000  0.000000  0.000000  0.000000  0.000000  0.000000  0.000000
                                 0.000000  0.000000  0.000000  0.000000  0.000000  0.000000 -0.000000  0.000000 -0.000000  0.000000
                                -0.000000  0.000000 -0.000000  0.000000 -0.000000  0.000000 -0.000000  0.000000 -0.000000  0.000000
                                -0.000000  0.000003 -0.000000  0.000003 -0.000000  0.000042 -0.000000  0.000136 -0.000000  0.000838
                                -0.000000  0.002763 -0.000000  0.009239 -0.000000  0.002588 -0.000000  0.027269  0.000000 -0.027122
                                -0.000000  0.034383  0.000001 -0.112442 -0.000001  0.083716  0.000001 -0.158838 -0.000001  0.174651
                                 0.000003 -0.445265 -0.000007  1.242053 -0.000000 -0.000000  0.000000  0.000000  0.000000 -0.000000
                                 0.000000  0.000000 -0.000000

                                   1 2px     1 2px     1 2px     1 2px     1 2px     1 2px     1 2px     1 2px     1 2px     1 2px  
                                   1 2px     1 2px     1 2px     1 2px     1 2px     1 2px     1 2px     1 2px     1 2px     1 2px  
                                   1 2px     1 2px     1 2px     1 2px     1 2px     1 4f1+    1 4f3+    1 4f1+    1 4f3+    1 4f1+ 
                                   1 4f3+    1 4f1+    1 4f3+ 

   1.2   2  -127.0970 -404.8541  0.000029  0.000004  0.000077  0.000110  0.000349  0.000882  0.002782  0.009009  0.031300  0.101490
                                 0.272350  0.450927  0.295830 -0.004791  0.108254 -0.124267  0.090875 -0.060464  0.021765 -0.008831
                                 0.004220 -0.000950  0.000411 -0.000173  0.000049  0.000000  0.000000  0.000000 -0.000000 -0.000000
                                 0.000000  0.000000 -0.000000

   2.2   2   -22.3712 -136.5612 -0.000013 -0.000002 -0.000035 -0.000051 -0.000156 -0.000409 -0.001251 -0.004196 -0.014444 -0.049080
                                -0.136568 -0.246119 -0.044800  0.560395 -0.114998  0.680922 -0.189335  0.232261 -0.074874  0.035424
                                -0.017250  0.004161 -0.001838  0.000784 -0.000224 -0.000000  0.000000 -0.000000 -0.000000  0.000000
                                 0.000000  0.000000 -0.000000

   3.2   2    -2.7435  -52.0565  0.000005  0.000001  0.000014  0.000020  0.000061  0.000162  0.000493  0.001662  0.005720  0.019580
                                 0.054932  0.100577  0.005673 -0.310026  0.051424 -0.422604  0.269262  0.019619  0.584414  0.292523
                                 0.118029  0.022838 -0.003290  0.001596 -0.000440 -0.000000  0.000000 -0.000000  0.000000  0.000000
                                -0.000000 -0.000000  0.000000

   4.2   0     0.0204   -6.1120 -0.000000 -0.000000 -0.000001 -0.000001 -0.000003 -0.000009 -0.000026 -0.000092 -0.000303 -0.001073
                                -0.002924 -0.005578  0.000285  0.013006  0.021327 -0.019314  0.049977 -0.082338  0.025862 -0.103965
                                 0.079852 -0.059727  0.294667 -0.266691  1.085779 -0.000000 -0.000000  0.000000 -0.000000 -0.000000
                                 0.000000  0.000000 -0.000000

   5.2   0     0.0692   -8.2111 -0.000001 -0.000000 -0.000001 -0.000002 -0.000007 -0.000016 -0.000053 -0.000163 -0.000602 -0.001953
                                -0.005754 -0.009899 -0.001979  0.046138 -0.078285  0.176615 -0.235573  0.236538 -0.271167  0.207083
                                -0.276732  0.356460 -0.419133  1.850067 -1.329053 -0.000000 -0.000000  0.000000 -0.000000 -0.000000
                                 0.000000  0.000000 -0.000000

                                   1 2py     1 2py     1 2py     1 2py     1 2py     1 2py     1 2py     1 2py     1 2py     1 2py  
                                   1 2py     1 2py     1 2py     1 2py     1 2py     1 2py     1 2py     1 2py     1 2py     1 2py  
                                   1 2py     1 2py     1 2py     1 2py     1 2py     1 4f1-    1 4f3-    1 4f1-    1 4f3-    1 4f1- 
                                   1 4f3-    1 4f1-    1 4f3- 

   1.3   2  -127.0970 -404.8541  0.000029  0.000004  0.000077  0.000110  0.000349  0.000882  0.002782  0.009009  0.031300  0.101490
                                 0.272350  0.450927  0.295830 -0.004791  0.108254 -0.124267  0.090875 -0.060464  0.021765 -0.008831
                                 0.004220 -0.000950  0.000411 -0.000173  0.000049  0.000000 -0.000000  0.000000  0.000000 -0.000000
                                -0.000000  0.000000  0.000000

   2.3   2   -22.3712 -136.5612 -0.000013 -0.000002 -0.000035 -0.000051 -0.000156 -0.000409 -0.001251 -0.004196 -0.014444 -0.049080
                                -0.136568 -0.246119 -0.044800  0.560395 -0.114998  0.680922 -0.189335  0.232261 -0.074874  0.035424
                                -0.017250  0.004161 -0.001838  0.000784 -0.000224 -0.000000 -0.000000 -0.000000  0.000000  0.000000
                                -0.000000  0.000000 -0.000000

   3.3   2    -2.7435  -52.0565  0.000005  0.000001  0.000014  0.000020  0.000061  0.000162  0.000493  0.001662  0.005720  0.019580
                                 0.054932  0.100577  0.005673 -0.310026  0.051424 -0.422604  0.269262  0.019619  0.584414  0.292523
                                 0.118029  0.022838 -0.003290  0.001596 -0.000440 -0.000000  0.000000 -0.000000  0.000000  0.000000
                                -0.000000 -0.000000 -0.000000

   4.3   0     0.0204   -6.1120 -0.000000 -0.000000 -0.000001 -0.000001 -0.000003 -0.000009 -0.000026 -0.000092 -0.000303 -0.001073
                                -0.002924 -0.005578  0.000285  0.013006  0.021327 -0.019314  0.049977 -0.082338  0.025862 -0.103965
                                 0.079852 -0.059727  0.294667 -0.266691  1.085779 -0.000000  0.000000  0.000000  0.000000 -0.000000
                                -0.000000  0.000000  0.000000

   5.3   0     0.0692   -8.2111 -0.000001 -0.000000 -0.000001 -0.000002 -0.000007 -0.000016 -0.000053 -0.000163 -0.000602 -0.001953
                                -0.005754 -0.009899 -0.001979  0.046138 -0.078285  0.176615 -0.235573  0.236538 -0.271167  0.207083
                                -0.276732  0.356460 -0.419133  1.850067 -1.329053 -0.000000  0.000000  0.000000  0.000000 -0.000000
                                 0.000000  0.000000  0.000000

                                   1 3d2-    1 3d2-    1 3d2-    1 3d2-    1 3d2-    1 3d2-    1 3d2-    1 3d2-    1 3d2-    1 3d2- 
                                   1 3d2-    1 3d2-    1 3d2-    1 3d2-    1 3d2-    1 3d2-    1 3d2-    1 5g2-    1 5g4-    1 5g2- 
                                   1 5g4-    1 5g2-    1 5g4- 

   1.4   2   -14.4794 -123.9999  0.000046  0.000236  0.000775  0.005354  0.020801  0.092046  0.211390  0.238483  0.347254  0.147265
                                 0.168836 -0.005222  0.020912 -0.005403  0.002270 -0.000911  0.000284 -0.000000  0.000000  0.000000
                                -0.000000  0.000000 -0.000000

   2.4   2    -0.5113  -38.6471 -0.000014 -0.000078 -0.000240 -0.001736 -0.006634 -0.030137 -0.068996 -0.078859 -0.099619 -0.038077
                                 0.095872  0.203032  0.279637  0.374640  0.224643  0.074738  0.001934  0.000000  0.000000 -0.000000
                                 0.000000  0.000000 -0.000000

   3.4   0     0.1425   -7.6541  0.000003  0.000003  0.000042  0.000136  0.000838  0.002763  0.009239  0.002588  0.027269 -0.027122
                                 0.034383 -0.112442  0.083716 -0.158838  0.174651 -0.445265  1.242053  0.000000 -0.000000 -0.000000
                                 0.000000 -0.000000  0.000000

   4.4   0     0.4780  -12.3065  0.000000  0.000042  0.000022  0.000700  0.001671  0.010882  0.015759  0.043098 -0.021494  0.110019
                                -0.176060  0.221831 -0.461236  0.270258 -0.791840  1.941229 -0.950131  0.000000 -0.000000 -0.000000
                                 0.000000 -0.000000  0.000000

                                   1 2pz     1 2pz     1 2pz     1 2pz     1 2pz     1 2pz     1 2pz     1 2pz     1 2pz     1 2pz  
                                   1 2pz     1 2pz     1 2pz     1 2pz     1 2pz     1 2pz     1 2pz     1 2pz     1 2pz     1 2pz  
                                   1 2pz     1 2pz     1 2pz     1 2pz     1 2pz     1 4f0     1 4f2+    1 4f0     1 4f2+    1 4f0  
                                   1 4f2+    1 4f0     1 4f2+ 

   1.5   2  -127.0970 -404.8541  0.000029  0.000004  0.000077  0.000110  0.000349  0.000882  0.002782  0.009009  0.031300  0.101490
                                 0.272350  0.450927  0.295830 -0.004791  0.108254 -0.124267  0.090875 -0.060464  0.021765 -0.008831
                                 0.004220 -0.000950  0.000411 -0.000173  0.000049 -0.000000 -0.000000  0.000000 -0.000000 -0.000000
                                -0.000000  0.000000 -0.000000

   2.5   2   -22.3712 -136.5612 -0.000013 -0.000002 -0.000035 -0.000051 -0.000156 -0.000409 -0.001251 -0.004196 -0.014444 -0.049080
                                -0.136568 -0.246119 -0.044800  0.560395 -0.114998  0.680922 -0.189335  0.232261 -0.074874  0.035424
                                -0.017250  0.004161 -0.001838  0.000784 -0.000224 -0.000000  0.000000 -0.000000  0.000000  0.000000
                                 0.000000  0.000000 -0.000000

   3.5   2    -2.7435  -52.0565  0.000005  0.000001  0.000014  0.000020  0.000061  0.000162  0.000493  0.001662  0.005720  0.019580
                                 0.054932  0.100577  0.005673 -0.310026  0.051424 -0.422604  0.269262  0.019618  0.584414  0.292523
                                 0.118030  0.022838 -0.003290  0.001596 -0.000440  0.000000  0.000000 -0.000000  0.000000  0.000000
                                -0.000000  0.000000  0.000000

   4.5   0     0.0204   -6.1119 -0.000000 -0.000000 -0.000001 -0.000001 -0.000003 -0.000009 -0.000026 -0.000092 -0.000303 -0.001073
                                -0.002924 -0.005578  0.000285  0.013006  0.021328 -0.019315  0.049979 -0.082339  0.025864 -0.103966
                                 0.079854 -0.059730  0.294668 -0.266707  1.085792 -0.000000 -0.000000  0.000000  0.000000 -0.000000
                                -0.000000 -0.000000 -0.000000

   5.5   0     0.0692   -8.2112 -0.000001 -0.000000 -0.000001 -0.000002 -0.000007 -0.000016 -0.000053 -0.000163 -0.000602 -0.001953
                                -0.005754 -0.009899 -0.001979  0.046138 -0.078285  0.176615 -0.235574  0.236539 -0.271168  0.207084
                                -0.276733  0.356461 -0.419137  1.850072 -1.329045 -0.000000 -0.000000  0.000000 -0.000000 -0.000000
                                 0.000000 -0.000000 -0.000000

                                   1 3d1+    1 3d1+    1 3d1+    1 3d1+    1 3d1+    1 3d1+    1 3d1+    1 3d1+    1 3d1+    1 3d1+ 
                                   1 3d1+    1 3d1+    1 3d1+    1 3d1+    1 3d1+    1 3d1+    1 3d1+    1 5g1+    1 5g3+    1 5g1+ 
                                   1 5g3+    1 5g1+    1 5g3+ 

   1.6   2   -14.4794 -123.9999  0.000046  0.000236  0.000775  0.005354  0.020801  0.092046  0.211390  0.238483  0.347254  0.147265
                                 0.168836 -0.005222  0.020912 -0.005403  0.002270 -0.000911  0.000284 -0.000000  0.000000  0.000000
                                -0.000000  0.000000 -0.000000

   2.6   2    -0.5113  -38.6471 -0.000014 -0.000078 -0.000240 -0.001736 -0.006634 -0.030137 -0.068996 -0.078859 -0.099619 -0.038077
                                 0.095872  0.203032  0.279637  0.374640  0.224643  0.074739  0.001933  0.000000  0.000000 -0.000000
                                 0.000000  0.000000 -0.000000

   3.6   0     0.1425   -7.6541  0.000003  0.000003  0.000042  0.000136  0.000838  0.002763  0.009239  0.002588  0.027269 -0.027122
                                 0.034383 -0.112443  0.083716 -0.158838  0.174651 -0.445266  1.242053  0.000000 -0.000000 -0.000000
                                 0.000000 -0.000000  0.000000

   4.6   0     0.4780  -12.3065  0.000000  0.000042  0.000022  0.000700  0.001671  0.010882  0.015759  0.043098 -0.021494  0.110019
                                -0.176060  0.221832 -0.461237  0.270259 -0.791841  1.941229 -0.950130  0.000000 -0.000000 -0.000000
                                 0.000000 -0.000000  0.000000

                                   1 3d1-    1 3d1-    1 3d1-    1 3d1-    1 3d1-    1 3d1-    1 3d1-    1 3d1-    1 3d1-    1 3d1- 
                                   1 3d1-    1 3d1-    1 3d1-    1 3d1-    1 3d1-    1 3d1-    1 3d1-    1 5g1-    1 5g3-    1 5g1- 
                                   1 5g3-    1 5g1-    1 5g3- 

   1.7   2   -14.4794 -123.9999  0.000046  0.000236  0.000775  0.005354  0.020801  0.092046  0.211390  0.238483  0.347254  0.147265
                                 0.168836 -0.005222  0.020912 -0.005403  0.002270 -0.000911  0.000284 -0.000000  0.000000  0.000000
                                -0.000000  0.000000 -0.000000

   2.7   2    -0.5113  -38.6471 -0.000014 -0.000078 -0.000240 -0.001736 -0.006634 -0.030137 -0.068996 -0.078859 -0.099619 -0.038077
                                 0.095872  0.203032  0.279637  0.374640  0.224643  0.074739  0.001933  0.000000  0.000000 -0.000000
                                 0.000000  0.000000 -0.000000

   3.7   0     0.1425   -7.6541  0.000003  0.000003  0.000042  0.000136  0.000838  0.002763  0.009239  0.002588  0.027269 -0.027122
                                 0.034383 -0.112443  0.083716 -0.158838  0.174651 -0.445266  1.242053  0.000000 -0.000000 -0.000000
                                 0.000000 -0.000000  0.000000

   4.7   0     0.4780  -12.3065  0.000000  0.000042  0.000022  0.000700  0.001671  0.010882  0.015759  0.043098 -0.021494  0.110019
                                -0.176060  0.221832 -0.461237  0.270259 -0.791841  1.941229 -0.950130  0.000000 -0.000000 -0.000000
                                 0.000000 -0.000000  0.000000

                                   1 4f2-    1 4f2-    1 4f2-    1 4f2- 

   1.8   0     0.9995  -16.2005  0.079117 -0.061412  1.026972  0.009519

   2.8   0     2.3140  -27.1730 -0.232613 -1.083620  0.706300 -0.080069

 HOMO      9.1    -0.236939 =      -6.4475eV
 LUMO      4.2     0.020386 =       0.5547eV
 LUMO-HOMO         0.257326 =       7.0022eV


 **********************************************************************************************************************************
 DATASETS  * FILE   NREC   LENGTH (MB)   RECORD NAMES
              1      22       20.66       500      610      700      900      950      970     1000      129      960     1700   
                                          VAR    BASINP    GEOM    SYMINP    ZMAT    AOBASIS   BASIS     P2S    ABASIS    OPER   
                                         1101     1401     1411     1412     1650     1100     1400     1410     1200     1210   
                                          SR      EKINR    POTR     PVPR    MOLCAS      S      EKIN      POT      H0       H01  
                                         1080     1600   
                                         AOSYM     SMH  

              2       5        5.66       200      700     1000      520     4202   
                                        OPTIONS   GEOM     BASIS   MCVARS     RHF  

 PROGRAMS   *        TOTAL       RHF       INT
 CPU TIMES  *        32.96      1.17     31.08
 REAL TIME  *        43.48 SEC
 DISK USED  *         1.73 GB      
 SF USED    *         0.04 MB      
 GA USED    *         0.00 MB       (max)       0.00 MB       (current)
 **********************************************************************************************************************************


 PROGRAM * POP (Mulliken population analysis)

 
 Density matrix read from record         4202.2  Type=RHF/CHARGE (state 1.1)
 
 Population analysis by basis function type

 Unique atom        s        p        d        f        g    Total    Charge
   1  AG      9.00000 18.00000 20.00000  0.00000  0.00000 47.00000  + 0.00000


 **********************************************************************************************************************************
 DATASETS  * FILE   NREC   LENGTH (MB)   RECORD NAMES
              1      22       20.66       500      610      700      900      950      970     1000      129      960     1700   
                                          VAR    BASINP    GEOM    SYMINP    ZMAT    AOBASIS   BASIS     P2S    ABASIS    OPER   
                                         1101     1401     1411     1412     1650     1100     1400     1410     1200     1210   
                                          SR      EKINR    POTR     PVPR    MOLCAS      S      EKIN      POT      H0       H01  
                                         1080     1600   
                                         AOSYM     SMH  

              2       5        5.66       200      700     1000      520     4202   
                                        OPTIONS   GEOM     BASIS   MCVARS     RHF  

 PROGRAMS   *        TOTAL       POP       RHF       INT
 CPU TIMES  *        32.97      0.00      1.17     31.08
 REAL TIME  *        43.62 SEC
 DISK USED  *         1.73 GB      
 SF USED    *         0.04 MB      
 GA USED    *         0.00 MB       (max)       0.00 MB       (current)
 **********************************************************************************************************************************


 PROGRAM * MULTI (Direct Multiconfiguration SCF)       Authors: P.J. Knowles, H.-J. Werner (1984)     S.T. Elbert (1988)


 Number of closed-shell orbitals:  23 (   8   3   3   2   3   2   2   0 )
 Number of active  orbitals:        1 (   1   0   0   0   0   0   0   0 )
 Number of external orbitals:     221 (  64  30  30  21  30  21  21   4 )

 State symmetry 1

 Orbital occupancy restrictions for symmetry 1
  1      1       2                               

 Number of electrons:     1    Spin symmetry=Doublet   Space symmetry=1
 Number of states:        1
 Number of CSFs:          1
 
 Maximum number of shells:             1
 Maximum number of spin couplings:     1

 Storage for configuration lists       2, coupling coefficients      1, address lists      7

 Molecular orbitals read from record     4202.2  Type=RHF/CANONICAL (state 1.1)
 *** IN SYMMETRY 1 ORBITAL  5 SYMMETRY CONTAMINATION OF 0.244D-04 HAS BEEN REMOVED
 *** IN SYMMETRY 1 ORBITAL  6 SYMMETRY CONTAMINATION OF 0.246D-04 HAS BEEN REMOVED
 *** IN SYMMETRY 1 ORBITAL  8 SYMMETRY CONTAMINATION OF 0.339D-04 HAS BEEN REMOVED
 *** IN SYMMETRY 1 ORBITAL  9 SYMMETRY CONTAMINATION OF 0.123D-04 HAS BEEN REMOVED

 EXTRA SYMMETRY OF MOS IN SYMMETRY 1:   1 1 1 1 3 2 3 2 1 1   3 2 1 3 2 1 3 2 1 5   6 4 3 2 1 1 5 6 4 3   2 1 3 2 4 6 5 1 2 3
                                        1 2 3 2 3 1 2 3 1 2   3 1 2 3 1 2 3 1 3 2   1 2 3 1 1 1 1 1 1 1   1 1 1
 EXTRA SYMMETRY OF MOS IN SYMMETRY 2:   1 1 1 1 1 1 1 3 2 1   3 2 1 3 2 1 2 3 1 1   1 1 1 1 1 1 1 1 1 1   1 1 1
 EXTRA SYMMETRY OF MOS IN SYMMETRY 3:   1 1 1 1 1 1 1 3 2 1   3 2 1 3 2 1 2 3 1 1   1 1 1 1 1 1 1 1 1 1   1 1 1
 EXTRA SYMMETRY OF MOS IN SYMMETRY 4:   1 1 1 1 1 3 2 1 3 2   1 1 2 3 1 1 1 1 1 1   1 1 1
 EXTRA SYMMETRY OF MOS IN SYMMETRY 5:   1 1 1 1 1 1 1 3 2 1   3 2 1 3 2 1 2 3 1 1   1 1 1 1 1 1 1 1 1 1   1 1 1
 EXTRA SYMMETRY OF MOS IN SYMMETRY 6:   1 1 1 1 1 3 2 1 3 2   1 1 2 3 1 1 1 1 1 1   1 1 1
 EXTRA SYMMETRY OF MOS IN SYMMETRY 7:   1 1 1 1 1 3 2 1 3 2   1 1 2 3 1 1 1 1 1 1   1 1 1

 Wavefunction dump at record             5202.2

 Convergence thresholds  0.10E-01 (gradient)  0.10E-05 (energy)  0.10E-02 (step length)

 Number of orbital rotations:      980   (     8 Core/Active    908 Core/Virtual   0 Active/Active     64 Active/Virtual)
 Total number of variables:        981


 ITER. MIC  NCI  NEG     ENERGY(VAR)     ENERGY(PROJ)   ENERGY CHANGE     GRAD(0)  GRAD(ORB)   GRAD(CI)     STEP       TIME

   1   27    4    0   -5312.90203981   -5312.90203981   -0.00000000    0.00000297 0.00000000 0.00000000  0.54D-05      0.78

 ** WVFN ****  CONVERGENCE REACHED, FINAL GRADIENT:  0.73D-10


 First order charge density matrix for state 1.1 saved on record  5202.2 (density set 1)

 Results for state 1.1
 =====================

 !MCSCF STATE 1.1 Energy            -5312.902039812439
 Nuclear energy                         0.00000000
 Kinetic energy                      6031.16200715
 One electron energy                -7330.39184688
 Two electron energy                 2017.48980707
 Virial ratio                           1.88090853

 !MCSCF STATE 1.1 Dipole moment         0.00000000     0.00000000     0.00000000
 Dipole moment /Debye                   0.00000000     0.00000000     0.00000000


 NATURAL ORBITALS
 ================

   Orb     Occ        Energy       Coefficients

                                   1 1s      1 1s      1 1s      1 1s      1 1s      1 1s      1 1s      1 1s      1 1s      1 1s   
                                   1 1s      1 1s      1 1s      1 1s      1 1s      1 1s      1 1s      1 1s      1 1s      1 1s   
                                   1 1s      1 1s      1 1s      1 1s      1 1s      1 1s      1 1s      1 1s      1 1s      1 1s   
                                   1 3d0     1 3d2+    1 3d0     1 3d2+    1 3d0     1 3d2+    1 3d0     1 3d2+    1 3d0     1 3d2+ 
                                   1 3d0     1 3d2+    1 3d0     1 3d2+    1 3d0     1 3d2+    1 3d0     1 3d2+    1 3d0     1 3d2+ 
                                   1 3d0     1 3d2+    1 3d0     1 3d2+    1 3d0     1 3d2+    1 3d0     1 3d2+    1 3d0     1 3d2+ 
                                   1 3d0     1 3d2+    1 3d0     1 3d2+    1 5g0     1 5g4+    1 5g2+    1 5g0     1 5g4+    1 5g2+ 
                                   1 5g0     1 5g4+    1 5g2+ 

   1.1  2.00000  -942.433276     0.000310 -0.000148  0.000601  0.000262  0.001185  0.001606  0.003486  0.006306  0.012789  0.025974
                                 0.055018  0.116646  0.228500  0.352504  0.297836  0.073259  0.000246  0.000930 -0.000483 -0.000085
                                 0.000183 -0.000493  0.000699 -0.000656  0.000440 -0.000094  0.000021 -0.000008  0.000003 -0.000001
                                 0.000000  0.000000  0.000000  0.000000  0.000000  0.000000  0.000000  0.000000  0.000000  0.000000
                                 0.000000  0.000000  0.000000  0.000000  0.000000  0.000000  0.000000  0.000000  0.000000  0.000000
                                 0.000000  0.000000  0.000000  0.000000  0.000000  0.000000  0.000000  0.000000  0.000000  0.000000
                                 0.000000  0.000000  0.000000  0.000000  0.000000  0.000000  0.000000  0.000000  0.000000  0.000000
                                 0.000000  0.000000  0.000000

   2.1  2.00000  -141.919913    -0.000105  0.000050 -0.000204 -0.000089 -0.000403 -0.000546 -0.001195 -0.002161 -0.004452 -0.009092
                                -0.019941 -0.043849 -0.095584 -0.176606 -0.208863  0.100011  0.637905  0.430217 -0.038559  0.060258
                                -0.033071  0.044813 -0.056688  0.047852 -0.030866  0.006336 -0.001338  0.000489 -0.000178  0.000042
                                 0.000000  0.000000  0.000000  0.000000  0.000000  0.000000  0.000000  0.000000  0.000000  0.000000
                                 0.000000  0.000000  0.000000  0.000000  0.000000  0.000000  0.000000  0.000000  0.000000  0.000000
                                 0.000000  0.000000  0.000000  0.000000  0.000000  0.000000  0.000000  0.000000  0.000000  0.000000
                                 0.000000  0.000000  0.000000  0.000000  0.000000  0.000000  0.000000  0.000000  0.000000  0.000000
                                 0.000000  0.000000  0.000000

   3.1  2.00000   -27.373597     0.000046 -0.000022  0.000089  0.000039  0.000176  0.000238  0.000521  0.000942  0.001943  0.003979
                                 0.008751  0.019396  0.042827  0.081698  0.102075 -0.062004 -0.513191 -0.531018  0.364218  0.569885
                                 0.487790  0.092114 -0.024616 -0.006519  0.011179 -0.003377  0.000972 -0.000386  0.000142 -0.000035
                                 0.000000  0.000000  0.000000  0.000000  0.000000  0.000000  0.000000  0.000000  0.000000  0.000000
                                 0.000000  0.000000  0.000000  0.000000  0.000000  0.000000  0.000000  0.000000  0.000000  0.000000
                                 0.000000  0.000000  0.000000  0.000000  0.000000  0.000000  0.000000  0.000000  0.000000  0.000000
                                 0.000000  0.000000  0.000000  0.000000  0.000000  0.000000  0.000000  0.000000  0.000000  0.000000
                                 0.000000  0.000000  0.000000

   4.1  2.00000   -14.479400     0.000000 -0.000000  0.000000  0.000000  0.000000  0.000000  0.000000  0.000000  0.000000  0.000000
                                 0.000000  0.000000  0.000000  0.000000  0.000000 -0.000000 -0.000000 -0.000000 -0.000000 -0.000000
                                -0.000000  0.000000  0.000000  0.000000  0.000000  0.000000 -0.000000  0.000000 -0.000000  0.000000
                                 0.000046  0.000000  0.000236  0.000000  0.000775  0.000000  0.005354  0.000000  0.020801  0.000000
                                 0.092046  0.000000  0.211390  0.000000  0.238483  0.000000  0.347254  0.000000  0.147265  0.000000
                                 0.168836 -0.000000 -0.005222 -0.000000  0.020912 -0.000000 -0.005403 -0.000000  0.002270 -0.000000
                                -0.000911 -0.000000  0.000284 -0.000000  0.000000  0.000000  0.000000  0.000000  0.000000  0.000000
                                 0.000000  0.000000  0.000000

   5.1  2.00000   -14.479400     0.000000 -0.000000  0.000000  0.000000  0.000000  0.000000  0.000000  0.000000  0.000000  0.000000
                                 0.000000  0.000000  0.000000  0.000000  0.000000 -0.000000 -0.000000 -0.000000  0.000000  0.000000
                                 0.000000 -0.000000 -0.000000 -0.000000 -0.000000 -0.000000  0.000000 -0.000000  0.000000 -0.000000
                                 0.000000  0.000046  0.000000  0.000236  0.000000  0.000775  0.000000  0.005354  0.000000  0.020801
                                 0.000000  0.092046  0.000000  0.211390  0.000000  0.238483  0.000000  0.347254  0.000000  0.147265
                                 0.000000  0.168836 -0.000000 -0.005222  0.000000  0.020912 -0.000000 -0.005403  0.000000  0.002270
                                -0.000000 -0.000911  0.000000  0.000284  0.000000  0.000000  0.000000  0.000000  0.000000  0.000000
                                 0.000000  0.000000  0.000000

   6.1  2.00000    -4.272707    -0.000019  0.000009 -0.000037 -0.000016 -0.000073 -0.000099 -0.000217 -0.000394 -0.000812 -0.001664
                                -0.003658 -0.008131 -0.017974 -0.034565 -0.043544  0.027432  0.243842  0.270680 -0.199059 -0.513869
                                -0.520277  0.274340  0.394622  0.509151  0.116163  0.112347 -0.002859  0.002861 -0.000851  0.000254
                                 0.000000  0.000000  0.000000  0.000000  0.000000  0.000000  0.000000  0.000000  0.000000  0.000000
                                 0.000000  0.000000  0.000000  0.000000  0.000000  0.000000  0.000000  0.000000  0.000000  0.000000
                                 0.000000  0.000000  0.000000  0.000000  0.000000  0.000000  0.000000  0.000000  0.000000  0.000000
                                 0.000000  0.000000  0.000000  0.000000  0.000000  0.000000  0.000000  0.000000  0.000000  0.000000
                                 0.000000  0.000000  0.000000

   7.1  2.00000    -0.511259    -0.000000  0.000000 -0.000000 -0.000000 -0.000000 -0.000000 -0.000000 -0.000000 -0.000000 -0.000000
                                -0.000000 -0.000000 -0.000000 -0.000000 -0.000000  0.000000  0.000000  0.000000 -0.000000  0.000000
                                 0.000000 -0.000000 -0.000000 -0.000000 -0.000000 -0.000000  0.000000 -0.000000  0.000000 -0.000000
                                -0.000000 -0.000014 -0.000000 -0.000078 -0.000000 -0.000240 -0.000000 -0.001736 -0.000000 -0.006634
                                -0.000000 -0.030137 -0.000000 -0.068996 -0.000000 -0.078859 -0.000000 -0.099619 -0.000000 -0.038077
                                 0.000000  0.095872  0.000000  0.203032  0.000000  0.279637  0.000000  0.374640  0.000000  0.224643
                                 0.000000  0.074739  0.000000  0.001933  0.000000  0.000000  0.000000  0.000000  0.000000  0.000000
                                 0.000000  0.000000  0.000000

   8.1  2.00000    -0.511259    -0.000000  0.000000 -0.000000 -0.000000 -0.000000 -0.000000 -0.000000 -0.000000 -0.000000 -0.000000
                                -0.000000 -0.000000 -0.000000 -0.000000 -0.000000  0.000000  0.000000  0.000000 -0.000000 -0.000000
                                -0.000000  0.000000  0.000000  0.000000  0.000000  0.000000 -0.000000  0.000000 -0.000000  0.000000
                                -0.000014  0.000000 -0.000078  0.000000 -0.000240  0.000000 -0.001736  0.000000 -0.006634  0.000000
                                -0.030137  0.000000 -0.068996  0.000000 -0.078859  0.000000 -0.099619  0.000000 -0.038077  0.000000
                                 0.095872 -0.000000  0.203032 -0.000000  0.279637 -0.000000  0.374640 -0.000000  0.224643 -0.000000
                                 0.074739 -0.000000  0.001933 -0.000000  0.000000  0.000000  0.000000  0.000000  0.000000  0.000000
                                 0.000000  0.000000  0.000000

   9.1  1.00000    -0.105700     0.000004 -0.000002  0.000008  0.000004  0.000016  0.000022  0.000049  0.000088  0.000181  0.000372
                                 0.000817  0.001817  0.004016  0.007735  0.009755 -0.006177 -0.055604 -0.062307  0.045846  0.132329
                                 0.133301 -0.104857 -0.120879 -0.204903 -0.076186 -0.098007  0.178452  0.561664  0.416038  0.027906
                                -0.000000  0.000000 -0.000000  0.000000 -0.000000  0.000000 -0.000000  0.000000 -0.000000  0.000000
                                -0.000000  0.000000 -0.000000  0.000000 -0.000000  0.000000 -0.000000  0.000000 -0.000000  0.000000
                                -0.000000  0.000000 -0.000000  0.000000 -0.000000  0.000000 -0.000000  0.000000 -0.000000  0.000000
                                -0.000000  0.000000 -0.000000  0.000000  0.000000  0.000000  0.000000  0.000000  0.000000  0.000000
                                 0.000000  0.000000  0.000000

                                   1 2px     1 2px     1 2px     1 2px     1 2px     1 2px     1 2px     1 2px     1 2px     1 2px  
                                   1 2px     1 2px     1 2px     1 2px     1 2px     1 2px     1 2px     1 2px     1 2px     1 2px  
                                   1 2px     1 2px     1 2px     1 2px     1 2px     1 4f1+    1 4f3+    1 4f1+    1 4f3+    1 4f1+ 
                                   1 4f3+    1 4f1+    1 4f3+ 

   1.2  2.00000  -127.096965     0.000029  0.000004  0.000077  0.000110  0.000349  0.000882  0.002782  0.009009  0.031300  0.101490
                                 0.272350  0.450927  0.295830 -0.004791  0.108254 -0.124267  0.090875 -0.060464  0.021765 -0.008831
                                 0.004220 -0.000950  0.000411 -0.000173  0.000049  0.000000  0.000000  0.000000  0.000000  0.000000
                                 0.000000  0.000000  0.000000

   2.2  2.00000   -22.371175    -0.000013 -0.000002 -0.000035 -0.000051 -0.000156 -0.000409 -0.001251 -0.004196 -0.014444 -0.049080
                                -0.136568 -0.246119 -0.044800  0.560395 -0.114998  0.680922 -0.189335  0.232261 -0.074874  0.035424
                                -0.017250  0.004161 -0.001838  0.000784 -0.000224  0.000000  0.000000  0.000000  0.000000  0.000000
                                 0.000000  0.000000  0.000000

   3.2  2.00000    -2.743480     0.000005  0.000001  0.000014  0.000020  0.000061  0.000162  0.000493  0.001662  0.005720  0.019580
                                 0.054932  0.100577  0.005673 -0.310026  0.051424 -0.422604  0.269262  0.019619  0.584414  0.292523
                                 0.118030  0.022838 -0.003290  0.001596 -0.000440  0.000000  0.000000  0.000000  0.000000  0.000000
                                 0.000000  0.000000  0.000000

                                   1 2py     1 2py     1 2py     1 2py     1 2py     1 2py     1 2py     1 2py     1 2py     1 2py  
                                   1 2py     1 2py     1 2py     1 2py     1 2py     1 2py     1 2py     1 2py     1 2py     1 2py  
                                   1 2py     1 2py     1 2py     1 2py     1 2py     1 4f1-    1 4f3-    1 4f1-    1 4f3-    1 4f1- 
                                   1 4f3-    1 4f1-    1 4f3- 

   1.3  2.00000  -127.096965     0.000029  0.000004  0.000077  0.000110  0.000349  0.000882  0.002782  0.009009  0.031300  0.101490
                                 0.272350  0.450927  0.295830 -0.004791  0.108254 -0.124267  0.090875 -0.060464  0.021765 -0.008831
                                 0.004220 -0.000950  0.000411 -0.000173  0.000049  0.000000  0.000000  0.000000  0.000000  0.000000
                                 0.000000  0.000000  0.000000

   2.3  2.00000   -22.371175    -0.000013 -0.000002 -0.000035 -0.000051 -0.000156 -0.000409 -0.001251 -0.004196 -0.014444 -0.049080
                                -0.136568 -0.246119 -0.044800  0.560395 -0.114998  0.680922 -0.189335  0.232261 -0.074874  0.035424
                                -0.017250  0.004161 -0.001838  0.000784 -0.000224  0.000000  0.000000  0.000000  0.000000  0.000000
                                 0.000000  0.000000  0.000000

   3.3  2.00000    -2.743480     0.000005  0.000001  0.000014  0.000020  0.000061  0.000162  0.000493  0.001662  0.005720  0.019580
                                 0.054932  0.100577  0.005673 -0.310026  0.051424 -0.422604  0.269262  0.019619  0.584414  0.292523
                                 0.118030  0.022838 -0.003290  0.001596 -0.000440  0.000000  0.000000  0.000000  0.000000  0.000000
                                 0.000000  0.000000  0.000000

                                   1 3d2-    1 3d2-    1 3d2-    1 3d2-    1 3d2-    1 3d2-    1 3d2-    1 3d2-    1 3d2-    1 3d2- 
                                   1 3d2-    1 3d2-    1 3d2-    1 3d2-    1 3d2-    1 3d2-    1 3d2-    1 5g2-    1 5g4-    1 5g2- 
                                   1 5g4-    1 5g2-    1 5g4- 

   1.4  2.00000   -14.479400     0.000046  0.000236  0.000775  0.005354  0.020801  0.092046  0.211390  0.238483  0.347254  0.147265
                                 0.168836 -0.005222  0.020912 -0.005403  0.002270 -0.000911  0.000284  0.000000  0.000000  0.000000
                                 0.000000  0.000000  0.000000

   2.4  2.00000    -0.511259    -0.000014 -0.000078 -0.000240 -0.001736 -0.006634 -0.030137 -0.068996 -0.078859 -0.099619 -0.038077
                                 0.095872  0.203032  0.279637  0.374640  0.224643  0.074739  0.001933  0.000000  0.000000  0.000000
                                 0.000000  0.000000  0.000000

                                   1 2pz     1 2pz     1 2pz     1 2pz     1 2pz     1 2pz     1 2pz     1 2pz     1 2pz     1 2pz  
                                   1 2pz     1 2pz     1 2pz     1 2pz     1 2pz     1 2pz     1 2pz     1 2pz     1 2pz     1 2pz  
                                   1 2pz     1 2pz     1 2pz     1 2pz     1 2pz     1 4f0     1 4f2+    1 4f0     1 4f2+    1 4f0  
                                   1 4f2+    1 4f0     1 4f2+ 

   1.5  2.00000  -127.096965     0.000029  0.000004  0.000077  0.000110  0.000349  0.000882  0.002782  0.009009  0.031300  0.101490
                                 0.272350  0.450927  0.295830 -0.004791  0.108254 -0.124267  0.090875 -0.060464  0.021765 -0.008831
                                 0.004220 -0.000950  0.000411 -0.000173  0.000049  0.000000  0.000000  0.000000  0.000000  0.000000
                                 0.000000  0.000000  0.000000

   2.5  2.00000   -22.371175    -0.000013 -0.000002 -0.000035 -0.000051 -0.000156 -0.000409 -0.001251 -0.004196 -0.014444 -0.049080
                                -0.136568 -0.246119 -0.044800  0.560395 -0.114998  0.680922 -0.189335  0.232261 -0.074874  0.035424
                                -0.017250  0.004161 -0.001838  0.000784 -0.000224  0.000000  0.000000  0.000000  0.000000  0.000000
                                 0.000000  0.000000  0.000000

   3.5  2.00000    -2.743480     0.000005  0.000001  0.000014  0.000020  0.000061  0.000162  0.000493  0.001662  0.005720  0.019580
                                 0.054932  0.100577  0.005673 -0.310026  0.051424 -0.422604  0.269262  0.019619  0.584414  0.292523
                                 0.118030  0.022838 -0.003290  0.001596 -0.000440  0.000000  0.000000  0.000000  0.000000  0.000000
                                 0.000000  0.000000  0.000000

                                   1 3d1+    1 3d1+    1 3d1+    1 3d1+    1 3d1+    1 3d1+    1 3d1+    1 3d1+    1 3d1+    1 3d1+ 
                                   1 3d1+    1 3d1+    1 3d1+    1 3d1+    1 3d1+    1 3d1+    1 3d1+    1 5g1+    1 5g3+    1 5g1+ 
                                   1 5g3+    1 5g1+    1 5g3+ 

   1.6  2.00000   -14.479400     0.000046  0.000236  0.000775  0.005354  0.020801  0.092046  0.211390  0.238483  0.347254  0.147265
                                 0.168836 -0.005222  0.020912 -0.005403  0.002270 -0.000911  0.000284  0.000000  0.000000  0.000000
                                 0.000000  0.000000  0.000000

   2.6  2.00000    -0.511259    -0.000014 -0.000078 -0.000240 -0.001736 -0.006634 -0.030137 -0.068996 -0.078859 -0.099619 -0.038077
                                 0.095872  0.203032  0.279637  0.374640  0.224643  0.074739  0.001933  0.000000  0.000000  0.000000
                                 0.000000  0.000000  0.000000

                                   1 3d1-    1 3d1-    1 3d1-    1 3d1-    1 3d1-    1 3d1-    1 3d1-    1 3d1-    1 3d1-    1 3d1- 
                                   1 3d1-    1 3d1-    1 3d1-    1 3d1-    1 3d1-    1 3d1-    1 3d1-    1 5g1-    1 5g3-    1 5g1- 
                                   1 5g3-    1 5g1-    1 5g3- 

   1.7  2.00000   -14.479400     0.000046  0.000236  0.000775  0.005354  0.020801  0.092046  0.211390  0.238483  0.347254  0.147265
                                 0.168836 -0.005222  0.020912 -0.005403  0.002270 -0.000911  0.000284  0.000000  0.000000  0.000000
                                 0.000000  0.000000  0.000000

   2.7  2.00000    -0.511259    -0.000014 -0.000078 -0.000240 -0.001736 -0.006634 -0.030137 -0.068996 -0.078859 -0.099619 -0.038077
                                 0.095872  0.203032  0.279637  0.374640  0.224643  0.074739  0.001933  0.000000  0.000000  0.000000
                                 0.000000  0.000000  0.000000
 

 EXTRA SYMMETRY OF MOS IN SYMMETRY 1:   1 1 1 2 3 1 3 2 1 1   2 3 1 3 2 1 2 3 1 4   5 6 2 3 1 1 5 6 4 3   2 1 3 2 5 6 4 1 3 2
                                        1 3 2 3 2 1 2 3 1 2   3 1 3 2 1 3 2 1 2 3   1 2 3 1 1 1 1 1 1 1   1 1 1
 EXTRA SYMMETRY OF MOS IN SYMMETRY 2:   1 1 1 1 1 1 1 3 2 1   3 2 1 2 3 1 2 3 1 1   1 1 1 1 1 1 1 1 1 1   1 1 1
 EXTRA SYMMETRY OF MOS IN SYMMETRY 3:   1 1 1 1 1 1 1 3 2 1   3 2 1 2 3 1 2 3 1 1   1 1 1 1 1 1 1 1 1 1   1 1 1
 EXTRA SYMMETRY OF MOS IN SYMMETRY 4:   1 1 1 1 1 3 2 1 2 3   1 1 2 3 1 1 1 1 1 1   1 1 1
 EXTRA SYMMETRY OF MOS IN SYMMETRY 5:   1 1 1 1 1 1 1 3 2 1   2 3 1 3 2 1 2 3 1 1   1 1 1 1 1 1 1 1 1 1   1 1 1
 EXTRA SYMMETRY OF MOS IN SYMMETRY 6:   1 1 1 1 1 2 3 1 2 3   1 1 2 3 1 1 1 1 1 1   1 1 1
 EXTRA SYMMETRY OF MOS IN SYMMETRY 7:   1 1 1 1 1 2 3 1 2 3   1 1 3 2 1 1 1 1 1 1   1 1 1

 Natural orbital dump at molpro section  5202.2    (Orbital set 2)


 CI vector
 =========

 /             1.0000000


 **********************************************************************************************************************************
 DATASETS  * FILE   NREC   LENGTH (MB)   RECORD NAMES
              1      23       49.76       500      610      700      900      950      970     1000      129      960     1700   
                                          VAR    BASINP    GEOM    SYMINP    ZMAT    AOBASIS   BASIS     P2S    ABASIS    OPER   
                                         1101     1401     1411     1412     1650     1100     1400     1410     1200     1210   
                                          SR      EKINR    POTR     PVPR    MOLCAS      S      EKIN      POT      H0       H01  
                                         1080     1600     1380   
                                         AOSYM     SMH     JKOP   

              2       6        8.52       200      700     1000      520     4202     5202   
                                        OPTIONS   GEOM     BASIS   MCVARS     RHF     MCSCF   

 PROGRAMS   *        TOTAL     MULTI       POP       RHF       INT
 CPU TIMES  *        35.36      2.39      0.00      1.17     31.08
 REAL TIME  *        48.86 SEC
 DISK USED  *         1.73 GB      
 SF USED    *       116.33 MB      
 GA USED    *         0.00 MB       (max)       0.00 MB       (current)
 **********************************************************************************************************************************


 PROGRAM * RHF-SCF (OPEN SHELL)       Authors: W. Meyer, H.-J. Werner


 NUMBER OF ELECTRONS:      24+   23-    SPACE SYMMETRY=1    SPIN SYMMETRY: Doublet 
 CONVERGENCE THRESHOLDS:    1.00E-05 (Density)    1.00E-07 (Energy)
 MAX. NUMBER OF ITERATIONS:        0
 INTERPOLATION TYPE:            DIIS
 INTERPOLATION STEPS:              2 (START)      1 (STEP)
 LEVEL SHIFTS:                 -0.60 (CLOSED) -0.30 (OPEN) 


 Singly occupied orbitals:      9.1
 Molecular orbitals read from record     5202.2  Type=MCSCF/NATURAL (state 1.1)

 Molecular orbital dump at record        2103.2

 ITERATION    DDIFF          GRAD             ENERGY        2-EL.EN.            DIPOLE MOMENTS         DIIS   ORB.
    1      0.000D+00      0.000D+00     -5312.90203981   4034.979614    0.00000    0.00000    0.00000    0    start

 Final alpha occupancy:   9   3   3   2   3   2   2   0
 Final beta  occupancy:   8   3   3   2   3   2   2   0

 !RHF STATE 1.1 Energy              -5312.902039812441
 Nuclear energy                         0.00000000
 One-electron energy                -7330.39184688
 Two-electron energy                 2017.48980707
 Virial quotient                       -0.88090853
 !RHF STATE 1.1 Dipole moment           0.00000000     0.00000000     0.00000000
 Dipole moment /Debye                   0.00000000     0.00000000     0.00000000

 Orbital energies:

         1.1          2.1          3.1          4.1          5.1          6.1          7.1          8.1          9.1         10.1
   -942.433276  -141.919913   -27.373597   -14.479400   -14.479400    -4.272707    -0.511259    -0.511259    -0.105700     0.036641

        11.1
      0.145627

         1.2          2.2          3.2          4.2          5.2
   -127.096965   -22.371175    -2.743480     0.024487     0.081654

         1.3          2.3          3.3          4.3          5.3
   -127.096965   -22.371175    -2.743480     0.024487     0.081654

         1.4          2.4          3.4          4.4
    -14.479400    -0.511259     0.145627     0.485887

         1.5          2.5          3.5          4.5          5.5
   -127.096965   -22.371175    -2.743480     0.024487     0.081654

         1.6          2.6          3.6          4.6
    -14.479400    -0.511259     0.145627     0.485887

         1.7          2.7          3.7          4.7
    -14.479400    -0.511259     0.145627     0.485887

         1.8          2.8
      1.008148     2.315994

 HOMO      9.1    -0.105700 =      -2.8762eV
 LUMO      4.2     0.024487 =       0.6663eV
 LUMO-HOMO         0.130187 =       3.5426eV


 **********************************************************************************************************************************
 DATASETS  * FILE   NREC   LENGTH (MB)   RECORD NAMES
              1      23       49.76       500      610      700      900      950      970     1000      129      960     1700   
                                          VAR    BASINP    GEOM    SYMINP    ZMAT    AOBASIS   BASIS     P2S    ABASIS    OPER   
                                         1101     1401     1411     1412     1650     1100     1400     1410     1200     1210   
                                          SR      EKINR    POTR     PVPR    MOLCAS      S      EKIN      POT      H0       H01  
                                         1080     1600     1380   
                                         AOSYM     SMH     JKOP   

              2       7       11.35       200      700     1000      520     4202     5202     2103   
                                        OPTIONS   GEOM     BASIS   MCVARS     RHF     MCSCF     RHF  

 PROGRAMS   *        TOTAL       RHF     MULTI       POP       RHF       INT
 CPU TIMES  *        36.21      0.84      2.39      0.00      1.17     31.08
 REAL TIME  *        50.31 SEC
 DISK USED  *         1.73 GB      
 SF USED    *       116.33 MB      
 GA USED    *         0.00 MB       (max)       0.00 MB       (current)
 **********************************************************************************************************************************
 SETTING SCF(1)         =     -5312.90203981  AU                              
 SETTING _CC_NORM_MAX   =         2.00000000                                  


 PROGRAM * CCSD (Restricted open-shell coupled cluster)     Authors: C. Hampel, H.-J. Werner, 1991, M. Deegan, P.J. Knowles, 1992


 Convergence thresholds:  THRVAR = 1.00D-08  THRDEN = 1.00D-06

 CCSD(T)     terms to be evaluated (factor= 1.000)


 Number of closed-shell orbitals:  23 (   8   3   3   2   3   2   2   0 )
 Number of active  orbitals:        1 (   1   0   0   0   0   0   0   0 )
 Number of external orbitals:     221 (  64  30  30  21  30  21  21   4 )

 Memory could be reduced to 65.22 Mwords without degradation in triples

 Number of N-1 electron functions:              47
 Number of N-2 electron functions:            1081
 Number of singly external CSFs:              1897
 Number of doubly external CSFs:           5252842
 Total number of CSFs:                     5254739

 Molecular orbitals read from record     2103.2  Type=RHF/CANONICAL (state 1.1)

 Integral transformation finished. Total CPU:   2.21 sec, npass=  1  Memory used:  12.49 MW

 Starting RMP2 calculation

 Wavefunction is spin-projected

 ITER.      SQ.NORM     CORR.ENERGY   TOTAL ENERGY   ENERGY CHANGE        DEN1      VAR(S)    VAR(P)  DIIS     TIME
   1      1.13845483    -1.80141861 -5314.70345842    -1.80141861    -0.00111111  0.25D-05  0.36D-03  1  1     3.78
   2      1.13928939    -1.80257939 -5314.70461920    -0.00116078    -0.00000241  0.23D-07  0.14D-05  2  2     5.07
   3      1.13933296    -1.80261098 -5314.70465079    -0.00003159    -0.00000001  0.11D-09  0.60D-08  3  3     6.58
   4      1.13933427    -1.80261127 -5314.70465108    -0.00000029    -0.00000000  0.40D-12  0.24D-10  4  4     8.35

 Norm of t1 vector:      0.01377153      S-energy:    -0.00028156      T1 diagnostic:  0.00001069
 Norm of t2 vector:      0.37302093      P-energy:    -1.80232971
                                         Alpha-Beta:  -1.19133128
                                         Alpha-Alpha: -0.31427991
                                         Beta-Beta:   -0.29671852

 Spin contamination <S**2-Sz**2-Sz>     0.00000000
  Reference energy                  -5312.902039812441
  RHF-RMP2 correlation energy          -1.802611266843
 !RHF-RMP2 energy                   -5314.704651079284
 (NB above energy spin projected)

 Starting RCCSD calculation

 ITER.      SQ.NORM     CORR.ENERGY   TOTAL ENERGY   ENERGY CHANGE        DEN1      VAR(S)    VAR(P)  DIIS     TIME
   1      1.11206840    -1.68141581 -5314.58345562    -1.68141581    -0.02836501  0.34D-02  0.30D-02  0  0    17.45
   2      1.12278637    -1.70798568 -5314.61002549    -0.02656987    -0.00168723  0.39D-03  0.35D-03  1  1    26.80
   3      1.12464342    -1.70536690 -5314.60740671     0.00261878    -0.00024253  0.25D-03  0.25D-04  2  2    35.68
   4      1.12755886    -1.70636231 -5314.60840212    -0.00099541    -0.00005172  0.62D-04  0.54D-05  3  3    44.50
   5      1.12987601    -1.70692450 -5314.60896432    -0.00056220    -0.00000469  0.56D-05  0.49D-06  4  4    53.36
   6      1.13048726    -1.70696598 -5314.60900579    -0.00004147    -0.00000023  0.27D-06  0.37D-07  5  5    62.66
   7      1.13058920    -1.70697456 -5314.60901437    -0.00000858    -0.00000002  0.25D-07  0.34D-08  6  6    72.19
   8      1.13060169    -1.70697552 -5314.60901533    -0.00000096    -0.00000000  0.27D-08  0.48D-09  6  1    81.60

 Norm of t1 vector:      0.10850871      S-energy:    -0.00033815      T1 diagnostic:  0.01106994
                                                                       D1 diagnostic:  0.06638558
 Norm of t2 vector:      0.34471372      P-energy:    -1.70663737
                                         Alpha-Beta:  -1.15399274
                                         Alpha-Alpha: -0.28437989
                                         Beta-Beta:   -0.26826474

 Singles amplitudes (print threshold =  0.500E-01):

         I         SYM. A    A   T(IA) [Alpha-Alpha]

         9         1         5      0.06783988

 Spin contamination <S**2-Sz**2-Sz>     0.00000000

 Memory could be reduced to 71.93 Mwords without degradation in triples
 

  Correlated core orbitals:             1.1       2.1       3.1       4.1       5.1       6.1       1.2       2.2       3.2       1.3
                                        2.3       3.3       1.4       1.5       2.5       3.5       1.6       1.7
  Orbital energies:                  -942.4340 -141.9208  -27.3752  -14.4798  -14.4798   -4.2773 -127.0973  -22.3719   -2.7458 -127.0973
                                      -22.3719   -2.7458  -14.4798 -127.0973  -22.3719   -2.7458  -14.4798  -14.4798
 
  RCCSD core-core energy               -1.002881315275
  RCCSD core-valence energy            -0.338494463966
  RCCSD valence correlation energy     -0.365599736075
 

 RESULTS
 =======

  Reference energy                  -5312.902039812441
  RCCSD singles energy                 -0.000338147931
  RCCSD pair energy                    -1.706637367386
  RCCSD correlation energy             -1.706975515317
  Triples (T) contribution             -0.030784765731
  Total correlation energy             -1.737760281048
 
  RHF-RCCSD energy                  -5314.609015327758
  RHF-RCCSD[T] energy               -5314.640821821171
  RHF-RCCSD-T energy                -5314.639522395411
 !RHF-RCCSD(T) energy               -5314.639800093489

 Program statistics:

 Available memory in ccsd:               511995052
 Min. memory needed in ccsd:              14590878
 Max. memory used in ccsd:                21340574
 Max. memory used in cckext:              17646724 ( 8 integral passes)
 Max. memory used in cckint:              12490356 ( 1 integral passes)



 **********************************************************************************************************************************
 DATASETS  * FILE   NREC   LENGTH (MB)   RECORD NAMES
              1      23       49.76       500      610      700      900      950      970     1000      129      960     1700   
                                          VAR    BASINP    GEOM    SYMINP    ZMAT    AOBASIS   BASIS     P2S    ABASIS    OPER   
                                         1101     1401     1411     1412     1650     1100     1400     1410     1200     1210   
                                          SR      EKINR    POTR     PVPR    MOLCAS      S      EKIN      POT      H0       H01  
                                         1080     1600     1380   
                                         AOSYM     SMH     JKOP   

              2       7       11.35       200      700     1000      520     4202     5202     2103   
                                        OPTIONS   GEOM     BASIS   MCVARS     RHF     MCSCF     RHF  

 PROGRAMS   *        TOTAL  RCCSD(T)       RHF     MULTI       POP       RHF       INT
 CPU TIMES  *       203.97    167.65      0.84      2.39      0.00      1.17     31.08
 REAL TIME  *       252.23 SEC
 DISK USED  *        17.85 GB      
 SF USED    *         1.39 GB      
 GA USED    *         0.00 MB       (max)       0.00 MB       (current)
 **********************************************************************************************************************************
 SETTING CCSD(1)        =     -5314.63980009  AU                              

 DO I                   =         2.00000000   

 Running procedure=AS2DTEN


 PROGRAM * RHF-SCF (CLOSED SHELL)       Authors: W. Meyer, H.-J. Werner


 NUMBER OF ELECTRONS:      24+   24-    SPACE SYMMETRY=1    SPIN SYMMETRY: Singlet 
 CONVERGENCE THRESHOLDS:    1.00E-05 (Density)    1.00E-07 (Energy)
 MAX. NUMBER OF ITERATIONS:       60
 INTERPOLATION TYPE:            DIIS
 INTERPOLATION STEPS:              2 (START)      1 (STEP)
 LEVEL SHIFTS:                  0.00 (CLOSED)  0.00 (OPEN) 

 Number of closed-shell orbitals:   24 (   9   3   3   2   3   2   2   0 )


 Orbital guess generated from atomic densities. Full valence occupancy:    9   3   3   2   3   2   2   0


 Molecular orbital dump at record        2114.2

 ITERATION    DDIFF          GRAD             ENERGY        2-EL.EN.            DIPOLE MOMENTS         DIIS   ORB.
    1      0.000D+00      0.000D+00     -5287.21154637   3462.628021    0.00000    0.00000    0.00000    0    start
    2      0.000D+00      0.115D+00     -5301.87681576   4434.898465    0.00000    0.00000    0.00000    1    diag
    3      0.658D+01      0.191D+00     -5308.87471126   4277.887149    0.00000    0.00000    0.00000    2    diag
    4      0.106D+00      0.927D-01     -5312.28529183   4140.710939    0.00000    0.00000    0.00000    3    diag
    5      0.900D-01      0.294D-01     -5312.83077164   4082.666784    0.00000    0.00000    0.00000    4    diag
    6      0.263D-01      0.780D-02     -5312.89876556   4059.634631    0.00000    0.00000    0.00000    5    diag
[...]
                                         Alpha-Beta:  -0.76372322
                                         Alpha-Alpha: -0.21406869
                                         Beta-Beta:   -0.16475079

 Spin contamination <S**2-Sz**2-Sz>     0.00000000
  Reference energy                  -5244.062027289761
  RHF-RMP2 correlation energy          -1.143906987215
 !RHF-RMP2 energy                   -5245.205934276976
 (NB above energy spin projected)

 Starting RCCSD calculation

 ITER.      SQ.NORM     CORR.ENERGY   TOTAL ENERGY   ENERGY CHANGE        DEN1      VAR(S)    VAR(P)  DIIS     TIME
   1      1.02847322    -1.11448105 -5245.17650834    -1.11448105    -0.00608089  0.55D-04  0.24D-03  0  0     7.52
   2      1.02936505    -1.12025990 -5245.18228719    -0.00577885    -0.00013219  0.53D-06  0.13D-04  1  1    11.06
   3      1.02951467    -1.12026062 -5245.18228791    -0.00000072    -0.00000776  0.20D-07  0.11D-05  2  2    14.35
   4      1.02957963    -1.12040444 -5245.18243173    -0.00014382    -0.00000008  0.31D-09  0.98D-08  3  3    17.68
   5      1.02958285    -1.12040600 -5245.18243329    -0.00000156    -0.00000000  0.13D-10  0.12D-09  4  4    21.20
   6      1.02958290    -1.12040580 -5245.18243309     0.00000019    -0.00000000  0.54D-13  0.84D-12  5  5    24.75

 Norm of t1 vector:      0.01061621      S-energy:    -0.00132217      T1 diagnostic:  0.00092883
                                                                       D1 diagnostic:  0.00221699
 Norm of t2 vector:      0.17166884      P-energy:    -1.11908363
                                         Alpha-Beta:  -0.75900604
                                         Alpha-Alpha: -0.20397382
                                         Beta-Beta:   -0.15610378

 Spin contamination <S**2-Sz**2-Sz>     0.00000000

 Memory could be reduced to 54.56 Mwords without degradation in triples
 

  Correlated core orbitals:             1.1       2.1       3.1       4.1       5.1       6.1       1.2       2.2       3.2       1.3
                                        2.3       3.3       1.4       1.5       2.5       3.5       1.6       1.7
  Orbital energies:                  -954.8585 -154.2336  -39.2536  -26.3610  -26.3610  -14.8194 -139.4395  -34.2517  -12.9803 -139.4395
                                      -34.2517  -12.9803  -26.3610 -139.4395  -34.2517  -12.9803  -26.3610  -26.3610
 
  RCCSD core-core energy               -1.120405803129
 

 RESULTS
 =======

  Reference energy                  -5244.062027289761
  RCCSD singles energy                 -0.001322171332
  RCCSD pair energy                    -1.119083631798
  RCCSD correlation energy             -1.120405803129
  Triples (T) contribution             -0.006220119943
  Total correlation energy             -1.126625923072
 
  RHF-RCCSD energy                  -5245.182433092890
  RHF-RCCSD[T] energy               -5245.188713276746
  RHF-RCCSD-T energy                -5245.188620201006
 !RHF-RCCSD(T) energy               -5245.188653212833

 Program statistics:

 Available memory in ccsd:               511997128
 Min. memory needed in ccsd:               7857132
 Max. memory used in ccsd:                11379780
 Max. memory used in cckext:               8868298 ( 6 integral passes)
 Max. memory used in cckint:               9335045 ( 1 integral passes)



 **********************************************************************************************************************************
 DATASETS  * FILE   NREC   LENGTH (MB)   RECORD NAMES
              1      23       54.34       500      610      700      900      950      970     1000      129      960     1700   
                                          VAR    BASINP    GEOM    SYMINP    ZMAT    AOBASIS   BASIS     P2S    ABASIS    OPER   
                                         1101     1401     1411     1412     1650     1100     1400     1410     1200     1210   
                                          SR      EKINR    POTR     PVPR    MOLCAS      S      EKIN      POT      H0       H01  
                                         1080     1600     1380   
                                         AOSYM     SMH     JKOP   

              2      26       58.27       200      700     1000      520     4202     5202     2103     2114     5202(1)  2105   
                                        OPTIONS   GEOM     BASIS   MCVARS     RHF     MCSCF     RHF      RHF     MCSCF     RHF  
                                         5202(2)  2101     2109     2107     2116     5202(3)  2118     2120     2122     2124   
                                         MCSCF     RHF      RHF      RHF      RHF     MCSCF     RHF      RHF      RHF      RHF  
                                         2126     2128     2130     2132     2110     2113   
                                          RHF      RHF      RHF      RHF      RHF      RHF  

 PROGRAMS   *        TOTAL  RCCSD(T)       RHF     MULTI       POP       RHF  RCCSD(T)       RHF  RCCSD(T)       RHF     MULTI
 CPU TIMES  *      2310.53     62.56      0.13      1.13      0.00      0.90     76.06      0.86     81.24      0.08      2.63
 REAL TIME  *      2920.64 SEC
 DISK USED  *        18.48 GB      
 SF USED    *         1.40 GB      
 GA USED    *         0.00 MB       (max)       0.00 MB       (current)
 **********************************************************************************************************************************
 SETTING CCSD(17)       =     -5245.18865321  AU                              

 DO I                   =        18.00000000   

 Running procedure=XVIIIS2


 PROGRAM * RHF-SCF (CLOSED SHELL)       Authors: W. Meyer, H.-J. Werner


 NUMBER OF ELECTRONS:      15+   15-    SPACE SYMMETRY=1    SPIN SYMMETRY: Singlet 
 CONVERGENCE THRESHOLDS:    1.00E-05 (Density)    1.00E-07 (Energy)
 MAX. NUMBER OF ITERATIONS:       60
 INTERPOLATION TYPE:            DIIS
 INTERPOLATION STEPS:              2 (START)      1 (STEP)
 LEVEL SHIFTS:                  0.00 (CLOSED)  0.00 (OPEN) 



 Orbital guess generated from atomic densities. Full valence occupancy:    9   3   3   2   3   2   2   0


 Molecular orbital dump at record        2111.2

 Initial occupancy:   6   2   2   1   2   1   1   0

 ITERATION    DDIFF          GRAD             ENERGY        2-EL.EN.            DIPOLE MOMENTS         DIIS   ORB.
    1      0.000D+00      0.000D+00     -5201.05536444   2862.349151    0.00000    0.00000    0.00000    0    start
    2      0.000D+00      0.123D+00     -5202.36057514   2929.989809    0.00000    0.00000    0.00000    1    diag
    3      0.388D-01      0.388D-01     -5202.40244194   2917.702630    0.00000    0.00000    0.00000    2    diag
    4      0.357D-02      0.211D-02     -5202.40276296   2918.163628    0.00000    0.00000    0.00000    3    diag
    5      0.735D-03      0.200D-03     -5202.40276460   2918.230770    0.00000    0.00000    0.00000    4    diag
    6      0.477D-04      0.506D-05     -5202.40276460   2918.230592    0.00000    0.00000    0.00000    5    diag
    7      0.270D-05      0.236D-06     -5202.40276460   2918.230553    0.00000    0.00000    0.00000    0    orth

 Final occupancy:   6   2   2   1   2   1   1   0

 !RHF STATE 1.1 Energy              -5202.402764602677
 Nuclear energy                         0.00000000
 One-electron energy                -6661.51804111
 Two-electron energy                 1459.11527650
 Virial quotient                       -0.87871450
 !RHF STATE 1.1 Dipole moment           0.00000000     0.00000000     0.00000000
 Dipole moment /Debye                   0.00000000     0.00000000     0.00000000

 Orbital energies:

         1.1          2.1          3.1          4.1          5.1          6.1          7.1          8.1
   -959.044948  -158.209537   -42.911435   -30.071940   -30.071940   -17.261437   -12.251505   -12.251505

         1.2          2.2          3.2          4.2
   -143.414535   -37.871028   -14.803358    -9.675642

         1.3          2.3          3.3          4.3
   -143.414535   -37.871028   -14.803358    -9.675642

         1.4          2.4          3.4
    -30.071940   -12.251505    -7.227252

         1.5          2.5          3.5          4.5
   -143.414535   -37.871028   -14.803357    -9.675642

         1.6          2.6          3.6
    -30.071940   -12.251505    -7.227252

         1.7          2.7          3.7
    -30.071940   -12.251505    -7.227252

         1.8          2.8
     -9.675642    -6.109786

 HOMO      6.1   -17.261437 =    -469.7076eV
 LUMO      3.2   -14.803358 =    -402.8199eV
 LUMO-HOMO         2.458079 =      66.8877eV


 **********************************************************************************************************************************
 DATASETS  * FILE   NREC   LENGTH (MB)   RECORD NAMES
              1      23       54.34       500      610      700      900      950      970     1000      129      960     1700   
                                          VAR    BASINP    GEOM    SYMINP    ZMAT    AOBASIS   BASIS     P2S    ABASIS    OPER   
                                         1101     1401     1411     1412     1650     1100     1400     1410     1200     1210   
                                          SR      EKINR    POTR     PVPR    MOLCAS      S      EKIN      POT      H0       H01  
                                         1080     1600     1380   
                                         AOSYM     SMH     JKOP   

              2      27       61.09       200      700     1000      520     4202     5202     2103     2114     5202(1)  2105   
                                        OPTIONS   GEOM     BASIS   MCVARS     RHF     MCSCF     RHF      RHF     MCSCF     RHF  
                                         5202(2)  2101     2109     2107     2116     5202(3)  2118     2120     2122     2124   
                                         MCSCF     RHF      RHF      RHF      RHF     MCSCF     RHF      RHF      RHF      RHF  
                                         2126     2128     2130     2132     2110     2113     2111   
                                          RHF      RHF      RHF      RHF      RHF      RHF      RHF  

 PROGRAMS   *        TOTAL       RHF  RCCSD(T)       RHF     MULTI       POP       RHF  RCCSD(T)       RHF  RCCSD(T)       RHF
 CPU TIMES  *      2312.33      1.79     62.56      0.13      1.13      0.00      0.90     76.06      0.86     81.24      0.08
 REAL TIME  *      2923.60 SEC
 DISK USED  *        18.48 GB      
 SF USED    *         1.40 GB      
 GA USED    *         0.00 MB       (max)       0.00 MB       (current)
 **********************************************************************************************************************************
 SETTING SCF(18)        =     -5202.40276460  AU                              
 SETTING _CC_NORM_MAX   =         2.00000000                                  


 PROGRAM * CCSD (Restricted open-shell coupled cluster)     Authors: C. Hampel, H.-J. Werner, 1991, M. Deegan, P.J. Knowles, 1992


 Convergence thresholds:  THRVAR = 1.00D-08  THRDEN = 1.00D-06

 CCSD(T)     terms to be evaluated (factor= 1.000)


 Number of closed-shell orbitals:  15 (   6   2   2   1   2   1   1   0 )
 Number of external orbitals:     230 (  67  31  31  22  31  22  22   4 )

 Memory could be reduced to 47.70 Mwords without degradation in triples

 Number of N-1 electron functions:              30
 Number of N-2 electron functions:             435
 Number of singly external CSFs:              1308
 Number of doubly external CSFs:           2307990
 Total number of CSFs:                     2309298

 Molecular orbitals read from record     2111.2  Type=RHF/CANONICAL (state 1.1)

 Integral transformation finished. Total CPU:   1.34 sec, npass=  1  Memory used:   7.60 MW

 Starting RMP2 calculation

 Wavefunction is spin-projected

 ITER.      SQ.NORM     CORR.ENERGY   TOTAL ENERGY   ENERGY CHANGE        DEN1      VAR(S)    VAR(P)  DIIS     TIME
   1      1.01901890    -1.02686794 -5203.42963254    -1.02686794    -0.00006711  0.17D-16  0.11D-04  1  1     1.87
   2      1.01904298    -1.02693611 -5203.42970071    -0.00006817    -0.00000003  0.31D-20  0.63D-08  2  2     2.34
   3      1.01904355    -1.02693742 -5203.42970202    -0.00000131    -0.00000000  0.10D-23  0.31D-13  3  3     2.87
   4      1.01904355    -1.02693742 -5203.42970202    -0.00000000    -0.00000000  0.36D-27  0.15D-17  4  4     3.45

 Norm of t1 vector:      0.00000015      S-energy:    -0.00000000      T1 diagnostic:  0.00000002
 Norm of t2 vector:      0.13799836      P-energy:    -1.02693742
                                         Alpha-Beta:  -0.69872934
                                         Alpha-Alpha: -0.16410404
                                         Beta-Beta:   -0.16410404

 Spin contamination <S**2-Sz**2-Sz>     0.00000000
  Reference energy                  -5202.402764602671
  RHF-RMP2 correlation energy          -1.026937416048
 !RHF-RMP2 energy                   -5203.429702018719
 (NB above energy spin projected)

 Starting RCCSD calculation

 ITER.      SQ.NORM     CORR.ENERGY   TOTAL ENERGY   ENERGY CHANGE        DEN1      VAR(S)    VAR(P)  DIIS     TIME
   1      1.02032801    -1.00167195 -5203.40443655    -1.00167195    -0.00521924  0.41D-04  0.30D-03  0  0     5.77
   2      1.02144532    -1.00667704 -5203.40944164    -0.00500509    -0.00019166  0.30D-06  0.29D-04  1  1     8.84
   3      1.02176263    -1.00689989 -5203.40966449    -0.00022285    -0.00001788  0.13D-07  0.31D-05  2  2    11.44
   4      1.02192440    -1.00715224 -5203.40991685    -0.00025236    -0.00000005  0.71D-09  0.35D-08  3  3    14.06
   5      1.02192866    -1.00715399 -5203.40991859    -0.00000174    -0.00000000  0.81D-11  0.17D-10  4  4    16.54
   6      1.02192880    -1.00715401 -5203.40991861    -0.00000003    -0.00000000  0.13D-13  0.16D-12  5  5    19.25

 Norm of t1 vector:      0.00664449      S-energy:     0.00000000      T1 diagnostic:  0.00085780
                                                                       D1 diagnostic:  0.00304528
 Norm of t2 vector:      0.14793462      P-energy:    -1.00715401
                                         Alpha-Beta:  -0.69463435
                                         Alpha-Alpha: -0.15625983
                                         Beta-Beta:   -0.15625983

 Doubles amplitudes (print threshold =  0.500E-01):

         I         J         SYM. A    SYM. B    A         B      T(IJ, AB) [Alpha-Beta]

         6         6         2         2         1         1     -0.06226785
         6         6         3         3         1         1     -0.06226785
         6         6         5         5         1         1     -0.06226785

 Spin contamination <S**2-Sz**2-Sz>     0.00000000

 Memory could be reduced to 46.29 Mwords without degradation in triples
 

  Correlated core orbitals:             1.3       2.1       3.1       4.1       5.1       6.1       1.2       2.2       3.2       1.3
                                        2.3       3.3       1.4       1.5       2.5       3.5       1.6       1.7
  Orbital energies:                     0.0000    0.0000    0.0000  -30.0719  -30.0719  -17.2614 -143.4145  -37.8710  -14.8034 -143.4145
                                      -37.8710  -14.8034  -30.0719 -143.4145  -37.8710  -14.8034  -30.0719  -30.0719
 
  RCCSD core-core energy               -1.007154011093
 

 RESULTS
 =======

  Reference energy                  -5202.402764602671
  RCCSD singles energy                  0.000000000630
  RCCSD pair energy                    -1.007154011723
  RCCSD correlation energy             -1.007154011093
  Triples (T) contribution             -0.003836575477
  Total correlation energy             -1.010990586570
 
  RHF-RCCSD energy                  -5203.409918613764
  RHF-RCCSD[T] energy               -5203.413812091853
  RHF-RCCSD-T energy                -5203.413727086558
 !RHF-RCCSD(T) energy               -5203.413755189241

 Program statistics:

 Available memory in ccsd:               511997950
 Min. memory needed in ccsd:               6515427
 Max. memory used in ccsd:                 9425118
 Max. memory used in cckext:               7370098 ( 6 integral passes)
 Max. memory used in cckint:               7601018 ( 1 integral passes)



 **********************************************************************************************************************************
 DATASETS  * FILE   NREC   LENGTH (MB)   RECORD NAMES
              1      23       54.34       500      610      700      900      950      970     1000      129      960     1700   
                                          VAR    BASINP    GEOM    SYMINP    ZMAT    AOBASIS   BASIS     P2S    ABASIS    OPER   
                                         1101     1401     1411     1412     1650     1100     1400     1410     1200     1210   
                                          SR      EKINR    POTR     PVPR    MOLCAS      S      EKIN      POT      H0       H01  
                                         1080     1600     1380   
                                         AOSYM     SMH     JKOP   

              2      27       61.09       200      700     1000      520     4202     5202     2103     2114     5202(1)  2105   
                                        OPTIONS   GEOM     BASIS   MCVARS     RHF     MCSCF     RHF      RHF     MCSCF     RHF  
                                         5202(2)  2101     2109     2107     2116     5202(3)  2118     2120     2122     2124   
                                         MCSCF     RHF      RHF      RHF      RHF     MCSCF     RHF      RHF      RHF      RHF  
                                         2126     2128     2130     2132     2110     2113     2111   
                                          RHF      RHF      RHF      RHF      RHF      RHF      RHF  

 PROGRAMS   *        TOTAL  RCCSD(T)       RHF  RCCSD(T)       RHF     MULTI       POP       RHF  RCCSD(T)       RHF  RCCSD(T)
 CPU TIMES  *      2360.20     47.87      1.79     62.56      0.13      1.13      0.00      0.90     76.06      0.86     81.24
 REAL TIME  *      2985.30 SEC
 DISK USED  *        18.48 GB      
 SF USED    *         1.40 GB      
 GA USED    *         0.00 MB       (max)       0.00 MB       (current)
 **********************************************************************************************************************************
 SETTING CCSD(18)       =     -5203.41375519  AU                              
 Output type csv         
                                                                                                                                                                                                                                                                

         SCF,CCSD
   -5312.902040,   -5314.639800
   -5312.906303,   -5314.687037
   -5312.789497,   -5314.501609
   -5312.759966,   -5314.501393
   -5312.669115,   -5314.361712
   -5312.502090,   -5314.182979
   -5311.938449,   -5313.572006
   -5310.724197,   -5312.298035
   -5308.939115,   -5310.461516
   -5306.541397,   -5308.018247
   -5303.541954,   -5304.966461
   -5299.628999,   -5301.032926
   -5295.038907,   -5296.413992
   -5289.693589,   -5291.042456
   -5283.564344,   -5284.888892
   -5276.677661,   -5277.968720
   -5244.062027,   -5245.188653
   -5202.402765,   -5203.413755
                                                  

 RCCSD(T)/USERDEF energy=  -5203.413755189241

        RCCSD(T)        RHF-SCF         RCCSD(T)        RHF-SCF         MULTI           RHF-SCF         RCCSD(T)        RHF-SCF 
  -5203.41375519  -5202.40276460  -5245.18865321  -5244.06202729  -5244.06202729  -5244.06202729  -5277.96872049  -5276.67766122
 **********************************************************************************************************************************
 Molpro calculation terminated
 Variable memory released
