
 Primary working directories    : /global/cscratch1/sd/haihan
 Secondary working directories  : /global/cscratch1/sd/haihan
 Wavefunction directory         : /global/homes/h/haihan/wfu/
 Main file repository           : /global/cscratch1/sd/haihan/

 SHA1      : 19cd028119e0e09f93f0674bd8af7968d9b3eff6
 NAME      : 2015.1.36
 ARCHNAME  : linux/x86_64
 FC        : /opt/cray/pe/craype/2.5.14/bin/ftn
 BLASLIB   : -L/opt/intel/compilers_and_libraries_2018.1.163/linux/mkl/lib/intel64 -Wl,-_start-group -lmkl_intel_ilp64 -lmkl_intel_thread -lmkl_core -Wl,-_end-group -liomp5
 id        : lbl

 Nodes     nprocs
 nid01326    15
 Number of processes for MPI-2 version of Molpro:   nprocs(total)=   16   nprocs(compute)=   15   nprocs(helper)=    1

 Using customized tuning parameters: mindgm=7; mindgv=16; mindgc=1; mindgr=1; noblas=0; minvec=7
 default implementation of scratch files=sf  

 ***,Mo
 memory,512,m
 
 gthresh,twoint=1.e-12
 gprint,basis,orbitals
 
 angstrom
 geometry={
 1                                                                               ! Number of atoms
 Mo 0.0 0.0 0.0
 }
 
 basis={
 Including file /global/u2/h/haihan/Research/HZECP/Mo/basis/Mo/coefficients/ecp.molpro
 Including file /global/u2/h/haihan/Research/HZECP/Mo/basis/Mo/coefficients/basis.molpro
 }
 
 {rhf
  start,atden
  wf,14,1,6
  occ,4,1,1,1,1,1,1,0
  closed,1,1,1,0,1,0,0,0
  sym,1,1,3,2,1
  restrict,1,1,4.1
  orbital,4202.2
 }
 pop
 {multi
  start,4202.2
  occ,4,1,1,1,1,1,1,0
  closed,1,1,1,0,1,0,0,0
  wf,14,1,6;state,1
  restrict,1,1,4.1
  natorb,ci,print
  orbital,5202.2
 }
 {rhf,nitord=1,maxit=0
  start,5202.2
  wf,14,1,6
  occ,4,1,1,1,1,1,1,0
  closed,1,1,1,0,1,0,0,0
  sym,1,1,3,2,1
  restrict,1,1,4.1
  print,orbitals=2
 }
 
 {ci;maxit,100;core,1,1,1,0,1,0,0,0
  natorb,ci,print=15
 
 }

 Variables initialized (889), CPU time= 0.00 sec
 Commands  initialized (702), CPU time= 0.01 sec, 572 directives.
 Default parameters read. Elapsed time= 0.18 sec

 Checking input...
 Passed
1


                                         ***  PROGRAM SYSTEM MOLPRO  ***
                                       Copyright, TTI GmbH Stuttgart, 2015
                                    Version 2015.1 linked Dec 29 2018 15:55:43


 **********************************************************************************************************************************
 LABEL *   Mo                                                                            
  64 bit mpp version                                                                     DATE: 06-Dec-21          TIME: 14:54:18  
 **********************************************************************************************************************************

 SHA1:             19cd028119e0e09f93f0674bd8af7968d9b3eff6
 **********************************************************************************************************************************

 THRESHOLDS:

 ZERO    =  1.00D-12  ONEINT  =  1.00D-12  TWOINT  =  1.00D-12  PREFAC  =  1.00D-14  LOCALI  =  1.00D-09  EORDER  =  1.00D-04
 ENERGY  =  0.00D+00  ETEST   =  0.00D+00  EDENS   =  0.00D+00  THRDEDEF=  1.00D-06  GRADIENT=  1.00D-02  STEP    =  1.00D-03
 ORBITAL =  1.00D-05  CIVEC   =  1.00D-05  COEFF   =  1.00D-04  PRINTCI =  5.00D-02  PUNCHCI =  9.90D+01  OPTGRAD =  3.00D-04
 OPTENERG=  1.00D-06  OPTSTEP =  3.00D-04  THRGRAD =  1.00D-10  COMPRESS=  1.00D-11  VARMIN  =  1.00D-07  VARMAX  =  1.00D-03
 THRDOUB =  0.00D+00  THRDIV  =  1.00D-05  THRRED  =  1.00D-07  THRPSP  =  1.00D+00  THRDC   =  1.00D-10  THRCS   =  1.00D-10
 THRNRM  =  1.00D-08  THREQ   =  0.00D+00  THRDE   =  1.00D+00  THRREF  =  1.00D-05  SPARFAC =  1.00D+00  THRDLP  =  1.00D-07
 THRDIA  =  1.00D-10  THRDLS  =  1.00D-07  THRGPS  =  0.00D+00  THRKEX  =  0.00D+00  THRDIS  =  2.00D-01  THRVAR  =  1.00D-10
 THRLOC  =  1.00D-06  THRGAP  =  1.00D-06  THRLOCT = -1.00D+00  THRGAPT = -1.00D+00  THRORB  =  1.00D-06  THRMLTP =  0.00D+00
 THRCPQCI=  1.00D-10  KEXTA   =  0.00D+00  THRCOARS=  0.00D+00  SYMTOL  =  1.00D-06  GRADTOL =  1.00D-06  THROVL  =  1.00D-08
 THRORTH =  1.00D-08  GRID    =  1.00D-06  GRIDMAX =  1.00D-03  DTMAX   =  0.00D+00  THROCCDE=  1.00D-01  THROCCDE=  1.00D-01



 ZUNIT=ANG
 

Geometry recognized as XYZ


 Variable memory set to  512000000 words,  buffer space   230000 words

 SETTING BASIS          =    USERDEF


 Recomputing integrals since basis changed


 Using spherical harmonics



 PROGRAM * SEWARD (Integral evaluation for generally contracted gaussian basis sets)     Author: Roland Lindh, 1990

 Geometry written to block  1 of record 700

 Orientation using atomic masses  
 Molecule type: Atom
 Symmetry elements: X,Y,Z
 Rotational constants:       0.0000000      0.0000000      0.0000000 GHz  (calculated with average atomic masses)

 Point group  D2h 



 ATOMIC COORDINATES

 NR  ATOM    CHARGE       X              Y              Z

   1  MO     14.00    0.000000000    0.000000000    0.000000000


          MO  CORE POTENTIAL

          f POTENTIAL

 POWERS             1              3              2              2
 EXPONENTIALS   10.99353       11.01508       10.36534       6.281056    
 COEFFICIENTS   14.00000       153.9094      -91.43431      -16.94573    

          s - f POTENTIAL

 POWERS             2              2              2
 EXPONENTIALS   10.07938       4.386730       6.321328    
 COEFFICIENTS   180.0893       24.72363       16.96139    

          p - f POTENTIAL

 POWERS             2              2              2
 EXPONENTIALS   9.027487       3.910532       6.340373    
 COEFFICIENTS   123.6809       18.78431       16.93334    

          d - f POTENTIAL

 POWERS             2              2              2
 EXPONENTIALS   7.378964       2.774830       6.390417    
 COEFFICIENTS   48.28919       7.940102       16.93215    


 BASIS DATA

   Nr Sym  Nuc  Type         Exponents   Contraction coefficients

    1.1 Ag    1  1s          69.256405     1.000000
    2.1 Ag    1  1s          36.439356     1.000000
    3.1 Ag    1  1s          19.172619     1.000000
    4.1 Ag    1  1s          10.087701     1.000000
    5.1 Ag    1  1s           5.307658     1.000000
    6.1 Ag    1  1s           2.792632     1.000000
    7.1 Ag    1  1s           1.469347     1.000000
    8.1 Ag    1  1s           0.773099     1.000000
    9.1 Ag    1  1s           0.406767     1.000000
   10.1 Ag    1  1s           0.214021     1.000000
   11.1 Ag    1  1s           0.112608     1.000000
   12.1 Ag    1  1s           0.059249     1.000000
   13.1 Ag    1  1s           0.031174     1.000000
   14.1 Ag    1  3d0         67.297671     1.000000
   15.1 Ag    1  3d2+        67.297671     1.000000
   16.1 Ag    1  3d0         35.419488     1.000000
   17.1 Ag    1  3d2+        35.419488     1.000000
   18.1 Ag    1  3d0         18.641658     1.000000
   19.1 Ag    1  3d2+        18.641658     1.000000
   20.1 Ag    1  3d0          9.811305     1.000000
   21.1 Ag    1  3d2+         9.811305     1.000000
   22.1 Ag    1  3d0          5.163795     1.000000
   23.1 Ag    1  3d2+         5.163795     1.000000
   24.1 Ag    1  3d0          2.717761     1.000000
   25.1 Ag    1  3d2+         2.717761     1.000000
   26.1 Ag    1  3d0          1.430387     1.000000
   27.1 Ag    1  3d2+         1.430387     1.000000
   28.1 Ag    1  3d0          0.752828     1.000000
   29.1 Ag    1  3d2+         0.752828     1.000000
   30.1 Ag    1  3d0          0.396221     1.000000
   31.1 Ag    1  3d2+         0.396221     1.000000
   32.1 Ag    1  3d0          0.208536     1.000000
   33.1 Ag    1  3d2+         0.208536     1.000000
   34.1 Ag    1  3d0          0.109755     1.000000
   35.1 Ag    1  3d2+         0.109755     1.000000
   36.1 Ag    1  3d0          0.057765     1.000000
   37.1 Ag    1  3d2+         0.057765     1.000000
   38.1 Ag    1  3d0          0.030402     1.000000
   39.1 Ag    1  3d2+         0.030402     1.000000
    1.2 B3u   1  2px         77.150367     1.000000
    2.2 B3u   1  2px         40.594908     1.000000
    3.2 B3u   1  2px         21.360190     1.000000
    4.2 B3u   1  2px         11.239285     1.000000
    5.2 B3u   1  2px          5.913876     1.000000
    6.2 B3u   1  2px          3.111758     1.000000
    7.2 B3u   1  2px          1.637342     1.000000
    8.2 B3u   1  2px          0.861535     1.000000
    9.2 B3u   1  2px          0.453322     1.000000
   10.2 B3u   1  2px          0.238528     1.000000
   11.2 B3u   1  2px          0.125509     1.000000
   12.2 B3u   1  2px          0.066040     1.000000
   13.2 B3u   1  2px          0.034749     1.000000
    1.3 B2u   1  2py         77.150367     1.000000
    2.3 B2u   1  2py         40.594908     1.000000
    3.3 B2u   1  2py         21.360190     1.000000
    4.3 B2u   1  2py         11.239285     1.000000
    5.3 B2u   1  2py          5.913876     1.000000
    6.3 B2u   1  2py          3.111758     1.000000
    7.3 B2u   1  2py          1.637342     1.000000
    8.3 B2u   1  2py          0.861535     1.000000
    9.3 B2u   1  2py          0.453322     1.000000
   10.3 B2u   1  2py          0.238528     1.000000
   11.3 B2u   1  2py          0.125509     1.000000
   12.3 B2u   1  2py          0.066040     1.000000
   13.3 B2u   1  2py          0.034749     1.000000
    1.4 B1g   1  3d2-        67.297671     1.000000
    2.4 B1g   1  3d2-        35.419488     1.000000
    3.4 B1g   1  3d2-        18.641658     1.000000
    4.4 B1g   1  3d2-         9.811305     1.000000
    5.4 B1g   1  3d2-         5.163795     1.000000
    6.4 B1g   1  3d2-         2.717761     1.000000
    7.4 B1g   1  3d2-         1.430387     1.000000
    8.4 B1g   1  3d2-         0.752828     1.000000
    9.4 B1g   1  3d2-         0.396221     1.000000
   10.4 B1g   1  3d2-         0.208536     1.000000
   11.4 B1g   1  3d2-         0.109755     1.000000
   12.4 B1g   1  3d2-         0.057765     1.000000
   13.4 B1g   1  3d2-         0.030402     1.000000
    1.5 B1u   1  2pz         77.150367     1.000000
    2.5 B1u   1  2pz         40.594908     1.000000
    3.5 B1u   1  2pz         21.360190     1.000000
    4.5 B1u   1  2pz         11.239285     1.000000
    5.5 B1u   1  2pz          5.913876     1.000000
    6.5 B1u   1  2pz          3.111758     1.000000
    7.5 B1u   1  2pz          1.637342     1.000000
    8.5 B1u   1  2pz          0.861535     1.000000
    9.5 B1u   1  2pz          0.453322     1.000000
   10.5 B1u   1  2pz          0.238528     1.000000
   11.5 B1u   1  2pz          0.125509     1.000000
   12.5 B1u   1  2pz          0.066040     1.000000
   13.5 B1u   1  2pz          0.034749     1.000000
    1.6 B2g   1  3d1+        67.297671     1.000000
    2.6 B2g   1  3d1+        35.419488     1.000000
    3.6 B2g   1  3d1+        18.641658     1.000000
    4.6 B2g   1  3d1+         9.811305     1.000000
    5.6 B2g   1  3d1+         5.163795     1.000000
    6.6 B2g   1  3d1+         2.717761     1.000000
    7.6 B2g   1  3d1+         1.430387     1.000000
    8.6 B2g   1  3d1+         0.752828     1.000000
    9.6 B2g   1  3d1+         0.396221     1.000000
   10.6 B2g   1  3d1+         0.208536     1.000000
   11.6 B2g   1  3d1+         0.109755     1.000000
   12.6 B2g   1  3d1+         0.057765     1.000000
   13.6 B2g   1  3d1+         0.030402     1.000000
    1.7 B3g   1  3d1-        67.297671     1.000000
    2.7 B3g   1  3d1-        35.419488     1.000000
    3.7 B3g   1  3d1-        18.641658     1.000000
    4.7 B3g   1  3d1-         9.811305     1.000000
    5.7 B3g   1  3d1-         5.163795     1.000000
    6.7 B3g   1  3d1-         2.717761     1.000000
    7.7 B3g   1  3d1-         1.430387     1.000000
    8.7 B3g   1  3d1-         0.752828     1.000000
    9.7 B3g   1  3d1-         0.396221     1.000000
   10.7 B3g   1  3d1-         0.208536     1.000000
   11.7 B3g   1  3d1-         0.109755     1.000000
   12.7 B3g   1  3d1-         0.057765     1.000000
   13.7 B3g   1  3d1-         0.030402     1.000000

 NUCLEAR CHARGE:                   14
 NUMBER OF PRIMITIVE AOS:         130
 NUMBER OF SYMMETRY AOS:          117
 NUMBER OF CONTRACTIONS:          117   (  39Ag  +  13B3u +  13B2u +  13B1g +  13B1u +  13B2g +  13B3g +   0Au  )
 NUMBER OF CORE ORBITALS:           4   (   1Ag  +   1B3u +   1B2u +   0B1g +   1B1u +   0B2g +   0B3g +   0Au  )
 NUMBER OF VALENCE ORBITALS:        6   (   3Ag  +   0B3u +   0B2u +   1B1g +   0B1u +   1B2g +   1B3g +   0Au  )


 NUCLEAR REPULSION ENERGY    0.00000000

 EXTRA SYMMETRY OF AOS IN SYMMETRY 1:   1 1 1 1 1 1 1 1 1 1   1 1 1 2 3 2 3 2 3 2   3 2 3 2 3 2 3 2 3 2   3 2 3 2 3 2 3 2 3

 Eigenvalues of metric

         1 0.639E-04 0.223E-03 0.733E-03 0.127E-02 0.127E-02 0.225E-02 0.330E-02 0.330E-02
         2 0.361E-03 0.108E-02 0.312E-02 0.852E-02 0.220E-01 0.542E-01 0.128E+00 0.287E+00
         3 0.361E-03 0.108E-02 0.312E-02 0.852E-02 0.220E-01 0.542E-01 0.128E+00 0.287E+00
         4 0.127E-02 0.330E-02 0.857E-02 0.210E-01 0.490E-01 0.108E+00 0.227E+00 0.453E+00
         5 0.361E-03 0.108E-02 0.312E-02 0.852E-02 0.220E-01 0.542E-01 0.128E+00 0.287E+00
         6 0.127E-02 0.330E-02 0.857E-02 0.210E-01 0.490E-01 0.108E+00 0.227E+00 0.453E+00
         7 0.127E-02 0.330E-02 0.857E-02 0.210E-01 0.490E-01 0.108E+00 0.227E+00 0.453E+00


 Contracted 2-electron integrals neglected if value below      1.0D-12
 AO integral compression algorithm  1   Integral accuracy      1.0D-12

     55.312 MB (compressed) written to integral file ( 58.6%)

     Node minimum: 0.262 MB, node maximum: 18.350 MB


 NUMBER OF SORTED TWO-ELECTRON INTEGRALS:     222630.     BUFFER LENGTH:  32768
 NUMBER OF SEGMENTS:   1  SEGMENT LENGTH:     222630      RECORD LENGTH: 524288

 Memory used in sort:       0.78 MW

 SORT1 READ    11452961. AND WROTE      195819. INTEGRALS IN      1 RECORDS. CPU TIME:     0.25 SEC, REAL TIME:     0.46 SEC
 SORT2 READ     2858791. AND WROTE     3265236. INTEGRALS IN    120 RECORDS. CPU TIME:     0.01 SEC, REAL TIME:     0.06 SEC

 Node minimum:      214057.  Node maximum:      240079. integrals

 OPERATOR DM      FOR CENTER  0  COORDINATES:    0.000000    0.000000    0.000000


 **********************************************************************************************************************************
 DATASETS  * FILE   NREC   LENGTH (MB)   RECORD NAMES
              1      19       19.99       500      610      700      900      950      970     1000      129      960     1100   
                                          VAR    BASINP    GEOM    SYMINP    ZMAT    AOBASIS   BASIS     P2S    ABASIS      S 
                                         1400     1410     1420     1200     1210     1080     1600     1650     1700   
                                           T        V       ECP      H0       H01     AOSYM     SMH    MOLCAS    OPER   

 PROGRAMS   *        TOTAL       INT
 CPU TIMES  *         2.29      1.84
 REAL TIME  *         5.60 SEC
 DISK USED  *       105.50 MB      
 GA USED    *         0.00 MB       (max)       0.00 MB       (current)
 **********************************************************************************************************************************


 PROGRAM * RHF-SCF (OPEN SHELL)       Authors: W. Meyer, H.-J. Werner


 NUMBER OF ELECTRONS:      10+    4-    SPACE SYMMETRY=1    SPIN SYMMETRY: Septet  
 CONVERGENCE THRESHOLDS:    1.00E-05 (Density)    1.00E-07 (Energy)
 MAX. NUMBER OF ITERATIONS:       60
 INTERPOLATION TYPE:            DIIS
 INTERPOLATION STEPS:              2 (START)      1 (STEP)
 LEVEL SHIFTS:                 -0.60 (CLOSED) -0.30 (OPEN) 

 Number of closed-shell orbitals:    4 (   1   1   1   0   1   0   0 )
 Number of open-shell orbitals:      6 (   3   0   0   1   0   1   1 )


 
 Extra symmetries of mos in symmetry 1:   1   3   2   1
     Symmetry restrictions:    1             1

   Atom=MO basis=cc-pVTZ-PP        lmin=0  lmax=2

 Orbital guess generated from atomic densities. Full valence occupancy:    4   1   1   1   1   1   1   0


 Molecular orbital dump at record        4202.2

 ITERATION    DDIFF          GRAD             ENERGY        2-EL.EN.            DIPOLE MOMENTS         DIIS   ORB.
    1      0.000D+00      0.000D+00       -67.38111881     93.298005    0.00000    0.00000    0.00000    0    start
    2      0.000D+00      0.113D-01       -67.45760724     97.994970    0.00000    0.00000    0.00000    1    diag,B
    3      0.964D-02      0.595D-02       -67.46420750     97.913006    0.00000    0.00000    0.00000    2    diag,B
    4      0.315D-02      0.236D-02       -67.46771427     98.229372    0.00000    0.00000    0.00000    3    diag,B
    5      0.474D-02      0.481D-03       -67.46806615     98.352402    0.00000    0.00000    0.00000    4    diag,B
    6      0.311D-02      0.996D-04       -67.46808849     98.365860    0.00000    0.00000    0.00000    5    diag,B
    7      0.163D-02      0.321D-04       -67.46809172     98.371438    0.00000    0.00000    0.00000    6    fixocc
    8      0.792D-03      0.115D-04       -67.46809223     98.373402    0.00000    0.00000    0.00000    7    diag,B
    9      0.227D-03      0.457D-05       -67.46809230     98.373932    0.00000    0.00000    0.00000    8    diag,B
   10      0.640D-04      0.772D-06       -67.46809231     98.374079    0.00000    0.00000    0.00000    9    orth
   11      0.526D-05      0.110D-06       -67.46809231     98.374073    0.00000    0.00000    0.00000    0    orth

 Final alpha occupancy:   4   1   1   1   1   1   1
 Final beta  occupancy:   1   1   1   0   1   0   0

 !RHF STATE 1.1 Energy                -67.468092305111
 Nuclear energy                         0.00000000
 One-electron energy                 -116.65512898
 Two-electron energy                   49.18703667
 Virial quotient                       -2.82487662
 !RHF STATE 1.1 Dipole moment           0.00000000     0.00000000     0.00000000
 Dipole moment /Debye                   0.00000000     0.00000000     0.00000000

 ELECTRON ORBITALS
 =================


   Orb  Occ    Energy  Couls-En    Coefficients

                                   1 1s      1 1s      1 1s      1 1s      1 1s      1 1s      1 1s      1 1s      1 1s      1 1s   
                                   1 1s      1 1s      1 1s      1 3d0     1 3d2+    1 3d0     1 3d2+    1 3d0     1 3d2+    1 3d0  
                                   1 3d2+    1 3d0     1 3d2+    1 3d0     1 3d2+    1 3d0     1 3d2+    1 3d0     1 3d2+    1 3d0  
                                   1 3d2+    1 3d0     1 3d2+    1 3d0     1 3d2+    1 3d0     1 3d2+    1 3d0     1 3d2+ 

   1.1   2    -2.8939  -13.6933 -0.000019  0.001566 -0.028400  0.209329 -0.374473 -0.425216  0.424867  0.676129  0.310600  0.025503
                                 0.004380 -0.004375 -0.001251 -0.000000 -0.000000  0.000000  0.000000 -0.000000  0.000000  0.000000
                                -0.000000  0.000000  0.000000 -0.000000 -0.000000  0.000000  0.000000 -0.000000 -0.000000  0.000000
                                 0.000000 -0.000000 -0.000000  0.000000  0.000000 -0.000000 -0.000000  0.000000  0.000000

   2.1   +    -0.3419   -7.1114 -0.000000  0.000000 -0.000000  0.000000 -0.000000  0.000000 -0.000000 -0.000000  0.000000 -0.000000
                                 0.000000 -0.000000  0.000000  0.000050  0.000072 -0.000242 -0.000352  0.001215  0.001765 -0.001312
                                -0.001906 -0.008941 -0.012987  0.031909  0.046350  0.115206  0.167343  0.170054  0.247014  0.169988
                                 0.246918  0.131815  0.191470  0.072395  0.105158  0.022097  0.032097  0.001944  0.002823

   3.1   +    -0.3419   -7.1114 -0.000000  0.000000 -0.000000  0.000000 -0.000000  0.000000 -0.000000 -0.000000  0.000000 -0.000000
                                 0.000000 -0.000000  0.000000  0.000072 -0.000050 -0.000352  0.000242  0.001765 -0.001215 -0.001906
                                 0.001312 -0.012987  0.008941  0.046350 -0.031909  0.167343 -0.115206  0.247014 -0.170054  0.246918
                                -0.169988  0.191470 -0.131815  0.105158 -0.072395  0.032097 -0.022097  0.002823 -0.001944

   4.1   +    -0.2374   -4.3885  0.000003 -0.000430  0.008527 -0.066553  0.129519  0.133265 -0.157889 -0.319831 -0.229580 -0.022846
                                 0.401366  0.458626  0.353660 -0.000000 -0.000000  0.000000  0.000000 -0.000000 -0.000000  0.000000
                                 0.000000 -0.000000  0.000000  0.000000 -0.000000 -0.000000 -0.000000  0.000000 -0.000000 -0.000000
                                -0.000000  0.000000 -0.000000 -0.000000  0.000000  0.000000 -0.000000 -0.000000  0.000000

                                   1 2px     1 2px     1 2px     1 2px     1 2px     1 2px     1 2px     1 2px     1 2px     1 2px  
                                   1 2px     1 2px     1 2px  

   1.2   2    -1.7577  -11.2674  0.000003  0.000075 -0.002401  0.035359 -0.141836 -0.082811  0.327357  0.474165  0.300669  0.076103
                                 0.010565  0.000312  0.000334

                                   1 2py     1 2py     1 2py     1 2py     1 2py     1 2py     1 2py     1 2py     1 2py     1 2py  
                                   1 2py     1 2py     1 2py  

   1.3   2    -1.7577  -11.2674  0.000003  0.000075 -0.002401  0.035359 -0.141836 -0.082811  0.327357  0.474165  0.300669  0.076103
                                 0.010565  0.000312  0.000334

                                   1 3d2-    1 3d2-    1 3d2-    1 3d2-    1 3d2-    1 3d2-    1 3d2-    1 3d2-    1 3d2-    1 3d2- 
                                   1 3d2-    1 3d2-    1 3d2- 

   1.4   +    -0.3419   -7.1114  0.000088 -0.000427  0.002143 -0.002314 -0.015767  0.056271  0.203165  0.299890  0.299774  0.232456
                                 0.127669  0.038968  0.003428

                                   1 2pz     1 2pz     1 2pz     1 2pz     1 2pz     1 2pz     1 2pz     1 2pz     1 2pz     1 2pz  
                                   1 2pz     1 2pz     1 2pz  

   1.5   2    -1.7577  -11.2674  0.000003  0.000075 -0.002401  0.035359 -0.141836 -0.082811  0.327357  0.474165  0.300669  0.076103
                                 0.010565  0.000312  0.000334

                                   1 3d1+    1 3d1+    1 3d1+    1 3d1+    1 3d1+    1 3d1+    1 3d1+    1 3d1+    1 3d1+    1 3d1+ 
                                   1 3d1+    1 3d1+    1 3d1+ 

   1.6   +    -0.3419   -7.1114  0.000088 -0.000427  0.002143 -0.002314 -0.015767  0.056271  0.203165  0.299890  0.299774  0.232456
                                 0.127669  0.038968  0.003428

                                   1 3d1-    1 3d1-    1 3d1-    1 3d1-    1 3d1-    1 3d1-    1 3d1-    1 3d1-    1 3d1-    1 3d1- 
                                   1 3d1-    1 3d1-    1 3d1- 

   1.7   +    -0.3419   -7.1114  0.000088 -0.000427  0.002143 -0.002314 -0.015767  0.056271  0.203165  0.299890  0.299774  0.232456
                                 0.127669  0.038968  0.003428

 HOMO      4.1    -0.237434 =      -6.4609eV
 LUMO      2.2     0.027369 =       0.7448eV
 LUMO-HOMO         0.264803 =       7.2057eV


 **********************************************************************************************************************************
 DATASETS  * FILE   NREC   LENGTH (MB)   RECORD NAMES
              1      19       20.00       500      610      700      900      950      970     1000      129      960     1100   
                                          VAR    BASINP    GEOM    SYMINP    ZMAT    AOBASIS   BASIS     P2S    ABASIS      S 
                                         1400     1410     1420     1200     1210     1080     1600     1650     1700   
                                           T        V       ECP      H0       H01     AOSYM     SMH    MOLCAS    OPER   

              2       4        2.83       700     1000      520     4202   
                                         GEOM     BASIS   MCVARS     RHF  

 PROGRAMS   *        TOTAL       RHF       INT
 CPU TIMES  *         2.45      0.16      1.84
 REAL TIME  *         5.99 SEC
 DISK USED  *       454.49 MB      
 SF USED    *         0.01 MB      
 GA USED    *         0.00 MB       (max)       0.00 MB       (current)
 **********************************************************************************************************************************


 PROGRAM * POP (Mulliken population analysis)

 
 Density matrix read from record         4202.2  Type=RHF/CHARGE (state 1.1)
 
 Population analysis by basis function type

 Unique atom        s        p        d        f        g    Total    Charge
   1  MO      3.00000  6.00000  5.00000  0.00000  0.00000 14.00000  - 0.00000


 **********************************************************************************************************************************
 DATASETS  * FILE   NREC   LENGTH (MB)   RECORD NAMES
              1      19       20.00       500      610      700      900      950      970     1000      129      960     1100   
                                          VAR    BASINP    GEOM    SYMINP    ZMAT    AOBASIS   BASIS     P2S    ABASIS      S 
                                         1400     1410     1420     1200     1210     1080     1600     1650     1700   
                                           T        V       ECP      H0       H01     AOSYM     SMH    MOLCAS    OPER   

              2       4        2.83       700     1000      520     4202   
                                         GEOM     BASIS   MCVARS     RHF  

 PROGRAMS   *        TOTAL       POP       RHF       INT
 CPU TIMES  *         2.45      0.00      0.16      1.84
 REAL TIME  *         6.04 SEC
 DISK USED  *       454.49 MB      
 SF USED    *         0.01 MB      
 GA USED    *         0.00 MB       (max)       0.00 MB       (current)
 **********************************************************************************************************************************


 PROGRAM * MULTI (Direct Multiconfiguration SCF)       Authors: P.J. Knowles, H.-J. Werner (1984)     S.T. Elbert (1988)


 Number of closed-shell orbitals:   4 (   1   1   1   0   1   0   0   0 )
 Number of active  orbitals:        6 (   3   0   0   1   0   1   1   0 )
 Number of external orbitals:     107 (  35  12  12  12  12  12  12   0 )

 State symmetry 1

 Orbital occupancy restrictions for symmetry 1
  1      1       002000                          

 Number of electrons:     6    Spin symmetry=Septet    Space symmetry=1
 Number of states:        1
 Number of CSFs:          1
 
 Maximum number of shells:             1
 Maximum number of spin couplings:     1

 Storage for configuration lists      22, coupling coefficients      6, address lists     92

 Molecular orbitals read from record     4202.2  Type=RHF/CANONICAL (state 1.1)
 *** IN SYMMETRY 1 ORBITAL  2 SYMMETRY CONTAMINATION OF 0.408D+00 HAS BEEN REMOVED
 *** IN SYMMETRY 1 ORBITAL  3 SYMMETRY CONTAMINATION OF 0.408D+00 HAS BEEN REMOVED

 EXTRA SYMMETRY OF MOS IN SYMMETRY 1:   1 3 2 1 1 2 3 2 3 1   2 3 1 2 3 1 2 3 2 3   1 3 2 1 3 2 1 3 2 1   3 2 1 2 3 1 2 3 1

 Wavefunction dump at record             5202.2

 Convergence thresholds  0.10E-01 (gradient)  0.10E-05 (energy)  0.10E-02 (step length)

 Eigenvalues of redundancy matrix
   1-  3    0.000000    0.000000    0.000000

 Number of orbital rotations:      215   (     3 Core/Active     71 Core/Virtual   0 Active/Active    141 Active/Virtual)
 Total number of variables:        216


 ITER. MIC  NCI  NEG     ENERGY(VAR)     ENERGY(PROJ)   ENERGY CHANGE     GRAD(0)  GRAD(ORB)   GRAD(CI)     STEP       TIME

   1   26    4    0     -67.46809231     -67.46809231   -0.00000000    0.00000138 0.00000000 0.00000000  0.28D-05      0.07

 ** WVFN ****  CONVERGENCE REACHED, FINAL GRADIENT:  0.14D-11


 First order charge density matrix for state 1.1 saved on record  5202.2 (density set 1)

 Results for state 1.1
 =====================

 !MCSCF STATE 1.1 Energy              -67.468092305114
 Nuclear energy                         0.00000000
 Kinetic energy                        23.88355447
 One electron energy                 -116.65513073
 Two electron energy                   49.18703842
 Virial ratio                           3.82487652

 !MCSCF STATE 1.1 Dipole moment         0.00000000     0.00000000     0.00000000
 Dipole moment /Debye                   0.00000000     0.00000000     0.00000000


 NATURAL ORBITALS
 ================

 Some active orbitals have been swapped

   Orb     Occ        Energy       Coefficients

                                   1 1s      1 1s      1 1s      1 1s      1 1s      1 1s      1 1s      1 1s      1 1s      1 1s   
                                   1 1s      1 1s      1 1s      1 3d0     1 3d2+    1 3d0     1 3d2+    1 3d0     1 3d2+    1 3d0  
                                   1 3d2+    1 3d0     1 3d2+    1 3d0     1 3d2+    1 3d0     1 3d2+    1 3d0     1 3d2+    1 3d0  
                                   1 3d2+    1 3d0     1 3d2+    1 3d0     1 3d2+    1 3d0     1 3d2+    1 3d0     1 3d2+ 

   1.1  2.00000    -2.893914    -0.000019  0.001566 -0.028400  0.209329 -0.374473 -0.425216  0.424867  0.676129  0.310600  0.025503
                                 0.004380 -0.004375 -0.001251  0.000000  0.000000  0.000000  0.000000  0.000000  0.000000  0.000000
                                 0.000000  0.000000  0.000000  0.000000  0.000000  0.000000  0.000000  0.000000  0.000000  0.000000
                                 0.000000  0.000000  0.000000  0.000000  0.000000  0.000000  0.000000  0.000000  0.000000

   2.1  1.00000    -0.039049     0.000000  0.000000  0.000000  0.000000  0.000000  0.000000  0.000000  0.000000  0.000000  0.000000
                                 0.000000  0.000000  0.000000  0.000000  0.000088  0.000000 -0.000427  0.000000  0.002143  0.000000
                                -0.002314  0.000000 -0.015767  0.000000  0.056271  0.000000  0.203165  0.000000  0.299890  0.000000
                                 0.299775  0.000000  0.232455  0.000000  0.127672  0.000000  0.038964  0.000000  0.003430

   3.1  1.00000    -0.039049     0.000000  0.000000  0.000000  0.000000  0.000000  0.000000  0.000000  0.000000  0.000000  0.000000
                                 0.000000  0.000000  0.000000  0.000088  0.000000 -0.000427  0.000000  0.002143  0.000000 -0.002314
                                 0.000000 -0.015767  0.000000  0.056271  0.000000  0.203165  0.000000  0.299890  0.000000  0.299775
                                 0.000000  0.232455  0.000000  0.127672  0.000000  0.038964  0.000000  0.003430  0.000000

   4.1  1.00000    -0.083113     0.000003 -0.000430  0.008527 -0.066553  0.129519  0.133264 -0.157887 -0.319833 -0.229575 -0.022854
                                 0.401381  0.458608  0.353669  0.000000  0.000000  0.000000  0.000000  0.000000  0.000000  0.000000
                                 0.000000  0.000000  0.000000  0.000000  0.000000  0.000000  0.000000  0.000000  0.000000  0.000000
                                 0.000000  0.000000  0.000000  0.000000  0.000000  0.000000  0.000000  0.000000  0.000000

                                   1 2px     1 2px     1 2px     1 2px     1 2px     1 2px     1 2px     1 2px     1 2px     1 2px  
                                   1 2px     1 2px     1 2px  

   1.2  2.00000    -1.757727     0.000003  0.000075 -0.002401  0.035359 -0.141836 -0.082811  0.327357  0.474165  0.300669  0.076103
                                 0.010565  0.000312  0.000334

                                   1 2py     1 2py     1 2py     1 2py     1 2py     1 2py     1 2py     1 2py     1 2py     1 2py  
                                   1 2py     1 2py     1 2py  

   1.3  2.00000    -1.757727     0.000003  0.000075 -0.002401  0.035359 -0.141836 -0.082811  0.327357  0.474165  0.300669  0.076103
                                 0.010565  0.000312  0.000334

                                   1 3d2-    1 3d2-    1 3d2-    1 3d2-    1 3d2-    1 3d2-    1 3d2-    1 3d2-    1 3d2-    1 3d2- 
                                   1 3d2-    1 3d2-    1 3d2- 

   1.4  1.00000    -0.039049     0.000088 -0.000427  0.002143 -0.002314 -0.015767  0.056271  0.203165  0.299890  0.299775  0.232455
                                 0.127672  0.038964  0.003430

                                   1 2pz     1 2pz     1 2pz     1 2pz     1 2pz     1 2pz     1 2pz     1 2pz     1 2pz     1 2pz  
                                   1 2pz     1 2pz     1 2pz  

   1.5  2.00000    -1.757727     0.000003  0.000075 -0.002401  0.035359 -0.141836 -0.082811  0.327357  0.474165  0.300669  0.076103
                                 0.010565  0.000312  0.000334

                                   1 3d1+    1 3d1+    1 3d1+    1 3d1+    1 3d1+    1 3d1+    1 3d1+    1 3d1+    1 3d1+    1 3d1+ 
                                   1 3d1+    1 3d1+    1 3d1+ 

   1.6  1.00000    -0.039049     0.000088 -0.000427  0.002143 -0.002314 -0.015767  0.056271  0.203165  0.299890  0.299775  0.232455
                                 0.127672  0.038964  0.003430

                                   1 3d1-    1 3d1-    1 3d1-    1 3d1-    1 3d1-    1 3d1-    1 3d1-    1 3d1-    1 3d1-    1 3d1- 
                                   1 3d1-    1 3d1-    1 3d1- 

   1.7  1.00000    -0.039049     0.000088 -0.000427  0.002143 -0.002314 -0.015767  0.056271  0.203165  0.299890  0.299775  0.232455
                                 0.127672  0.038964  0.003430
 

 EXTRA SYMMETRY OF MOS IN SYMMETRY 1:   1 3 2 1 2 3 1 2 3 1   2 3 1 2 3 1 2 3 2 3   1 3 2 1 3 2 1 3 2 1   3 2 1 2 3 1 2 3 1

 Natural orbital dump at molpro section  5202.2    (Orbital set 2)


 CI vector
 =========

 /// / / /          1.0000000


 **********************************************************************************************************************************
 DATASETS  * FILE   NREC   LENGTH (MB)   RECORD NAMES
              1      20       21.31       500      610      700      900      950      970     1000      129      960     1100   
                                          VAR    BASINP    GEOM    SYMINP    ZMAT    AOBASIS   BASIS     P2S    ABASIS      S 
                                         1400     1410     1420     1200     1210     1080     1600     1650     1700     1380   
                                           T        V       ECP      H0       H01     AOSYM     SMH    MOLCAS    OPER     JKOP   

              2       5        5.41       700     1000      520     4202     5202   
                                         GEOM     BASIS   MCVARS     RHF     MCSCF   

 PROGRAMS   *        TOTAL     MULTI       POP       RHF       INT
 CPU TIMES  *         2.64      0.19      0.00      0.16      1.84
 REAL TIME  *         6.86 SEC
 DISK USED  *       454.49 MB      
 SF USED    *         8.35 MB      
 GA USED    *         0.00 MB       (max)       0.00 MB       (current)
 **********************************************************************************************************************************


 PROGRAM * RHF-SCF (OPEN SHELL)       Authors: W. Meyer, H.-J. Werner


 NUMBER OF ELECTRONS:      10+    4-    SPACE SYMMETRY=1    SPIN SYMMETRY: Septet  
 CONVERGENCE THRESHOLDS:    1.00E-05 (Density)    1.00E-07 (Energy)
 MAX. NUMBER OF ITERATIONS:        0
 INTERPOLATION TYPE:            DIIS
 INTERPOLATION STEPS:              2 (START)      1 (STEP)
 LEVEL SHIFTS:                 -0.60 (CLOSED) -0.30 (OPEN) 

 Number of closed-shell orbitals:    4 (   1   1   1   0   1   0   0 )
 Number of open-shell orbitals:      6 (   3   0   0   1   0   1   1 )


 
 Extra symmetries of mos in symmetry 1:   1   3   2   1
     Symmetry restrictions:    1             1
 Molecular orbitals read from record     5202.2  Type=MCSCF/NATURAL (state 1.1)

 Molecular orbital dump at record        2101.2

 ITERATION    DDIFF          GRAD             ENERGY        2-EL.EN.            DIPOLE MOMENTS         DIIS   ORB.
    1      0.000D+00      0.000D+00       -67.46809231     98.374077    0.00000    0.00000    0.00000    0    start

 Final alpha occupancy:   4   1   1   1   1   1   1
 Final beta  occupancy:   1   1   1   0   1   0   0

 !RHF STATE 1.1 Energy                -67.468092305114
 Nuclear energy                         0.00000000
 One-electron energy                 -116.65513073
 Two-electron energy                   49.18703842
 Virial quotient                       -2.82487652
 !RHF STATE 1.1 Dipole moment           0.00000000     0.00000000     0.00000000
 Dipole moment /Debye                   0.00000000     0.00000000     0.00000000

 ELECTRON ORBITALS
 =================


   Orb  Occ    Energy  Couls-En    Coefficients

                                   1 1s      1 1s      1 1s      1 1s      1 1s      1 1s      1 1s      1 1s      1 1s      1 1s   
                                   1 1s      1 1s      1 1s      1 3d0     1 3d2+    1 3d0     1 3d2+    1 3d0     1 3d2+    1 3d0  
                                   1 3d2+    1 3d0     1 3d2+    1 3d0     1 3d2+    1 3d0     1 3d2+    1 3d0     1 3d2+    1 3d0  
                                   1 3d2+    1 3d0     1 3d2+    1 3d0     1 3d2+    1 3d0     1 3d2+    1 3d0     1 3d2+ 

   1.1   2    -2.8939  -13.6933 -0.000019  0.001566 -0.028400  0.209329 -0.374473 -0.425216  0.424867  0.676129  0.310600  0.025503
                                 0.004380 -0.004375 -0.001251  0.000000  0.000000  0.000000  0.000000  0.000000  0.000000  0.000000
                                 0.000000  0.000000  0.000000  0.000000  0.000000  0.000000  0.000000  0.000000  0.000000  0.000000
                                 0.000000  0.000000  0.000000  0.000000  0.000000  0.000000  0.000000  0.000000  0.000000

   2.1   +    -0.0390   -6.8085  0.000000  0.000000  0.000000  0.000000  0.000000  0.000000  0.000000  0.000000  0.000000  0.000000
                                 0.000000  0.000000  0.000000  0.000000  0.000088  0.000000 -0.000427  0.000000  0.002143  0.000000
                                -0.002314  0.000000 -0.015767  0.000000  0.056271  0.000000  0.203165  0.000000  0.299890  0.000000
                                 0.299775  0.000000  0.232455  0.000000  0.127672  0.000000  0.038964  0.000000  0.003430

   3.1   +    -0.0390   -6.8085  0.000000  0.000000  0.000000  0.000000  0.000000  0.000000  0.000000  0.000000  0.000000  0.000000
                                 0.000000  0.000000  0.000000  0.000088  0.000000 -0.000427  0.000000  0.002143  0.000000 -0.002314
                                 0.000000 -0.015767  0.000000  0.056271  0.000000  0.203165  0.000000  0.299890  0.000000  0.299775
                                 0.000000  0.232455  0.000000  0.127672  0.000000  0.038964  0.000000  0.003430  0.000000

   4.1   +    -0.0831   -4.2341  0.000003 -0.000430  0.008527 -0.066553  0.129519  0.133264 -0.157887 -0.319833 -0.229575 -0.022854
                                 0.401381  0.458608  0.353669  0.000000  0.000000  0.000000  0.000000  0.000000  0.000000  0.000000
                                 0.000000  0.000000  0.000000  0.000000  0.000000  0.000000  0.000000  0.000000  0.000000  0.000000
                                 0.000000  0.000000  0.000000  0.000000  0.000000  0.000000  0.000000  0.000000  0.000000

   5.1   0     0.0850   -1.5086  0.000000  0.000000  0.000000  0.000000  0.000000  0.000000  0.000000  0.000000  0.000000  0.000000
                                 0.000000  0.000000  0.000000  0.000162  0.000000 -0.000721  0.000000  0.001950  0.000000 -0.004900
                                 0.000000  0.012768  0.000000 -0.029510  0.000000  0.032393  0.000000 -0.132460  0.000000  0.188601
                                 0.000000 -0.461338  0.000000  0.829528  0.000000 -1.476273  0.000000  1.816559  0.000000

   6.1   0     0.0850   -1.5086  0.000000  0.000000  0.000000  0.000000  0.000000  0.000000  0.000000  0.000000  0.000000  0.000000
                                 0.000000  0.000000  0.000000  0.000000  0.000162  0.000000 -0.000721  0.000000  0.001950  0.000000
                                -0.004900  0.000000  0.012768  0.000000 -0.029510  0.000000  0.032393  0.000000 -0.132460  0.000000
                                 0.188601  0.000000 -0.461338  0.000000  0.829528  0.000000 -1.476273  0.000000  1.816559

                                   1 2px     1 2px     1 2px     1 2px     1 2px     1 2px     1 2px     1 2px     1 2px     1 2px  
                                   1 2px     1 2px     1 2px  

   1.2   2    -1.7577  -11.2674  0.000003  0.000075 -0.002401  0.035359 -0.141836 -0.082811  0.327357  0.474165  0.300669  0.076103
                                 0.010565  0.000312  0.000334

   2.2   0     0.0475   -2.2658  0.000227 -0.001093  0.003431 -0.011621  0.033564 -0.027746  0.033173 -0.207966  0.246983 -0.558940
                                 1.043878 -1.432923  1.754501

   3.2   0     0.1766   -2.5011 -0.000613  0.002915 -0.008113  0.013441 -0.015137  0.112219 -0.275557  0.291008 -0.890650  1.561314
                                -2.780824  4.630293 -2.556503

                                   1 2py     1 2py     1 2py     1 2py     1 2py     1 2py     1 2py     1 2py     1 2py     1 2py  
                                   1 2py     1 2py     1 2py  

   1.3   2    -1.7577  -11.2674  0.000003  0.000075 -0.002401  0.035359 -0.141836 -0.082811  0.327357  0.474165  0.300669  0.076103
                                 0.010565  0.000312  0.000334

   2.3   0     0.0475   -2.2658  0.000227 -0.001093  0.003431 -0.011621  0.033564 -0.027746  0.033173 -0.207966  0.246983 -0.558940
                                 1.043878 -1.432923  1.754501

   3.3   0     0.1766   -2.5011 -0.000613  0.002915 -0.008113  0.013441 -0.015137  0.112219 -0.275557  0.291008 -0.890650  1.561314
                                -2.780824  4.630293 -2.556503

                                   1 3d2-    1 3d2-    1 3d2-    1 3d2-    1 3d2-    1 3d2-    1 3d2-    1 3d2-    1 3d2-    1 3d2- 
                                   1 3d2-    1 3d2-    1 3d2- 

   1.4   +    -0.0390   -6.8085  0.000088 -0.000427  0.002143 -0.002314 -0.015767  0.056271  0.203165  0.299890  0.299775  0.232455
                                 0.127672  0.038964  0.003430

   2.4   0     0.0850   -1.5086  0.000162 -0.000721  0.001950 -0.004900  0.012768 -0.029510  0.032393 -0.132460  0.188601 -0.461338
                                 0.829528 -1.476273  1.816559

   3.4   0     0.2525   -1.9420 -0.000412  0.001844 -0.005458  0.012310 -0.021924  0.040631 -0.170436  0.169385 -0.596205  1.002264
                                -2.217621  3.672941 -1.760390

                                   1 2pz     1 2pz     1 2pz     1 2pz     1 2pz     1 2pz     1 2pz     1 2pz     1 2pz     1 2pz  
                                   1 2pz     1 2pz     1 2pz  

   1.5   2    -1.7577  -11.2674  0.000003  0.000075 -0.002401  0.035359 -0.141836 -0.082811  0.327357  0.474165  0.300669  0.076103
                                 0.010565  0.000312  0.000334

   2.5   0     0.0475   -2.2658  0.000227 -0.001093  0.003431 -0.011621  0.033564 -0.027746  0.033173 -0.207966  0.246983 -0.558940
                                 1.043878 -1.432923  1.754501

   3.5   0     0.1766   -2.5011 -0.000613  0.002915 -0.008113  0.013441 -0.015137  0.112219 -0.275557  0.291008 -0.890650  1.561314
                                -2.780824  4.630293 -2.556503

                                   1 3d1+    1 3d1+    1 3d1+    1 3d1+    1 3d1+    1 3d1+    1 3d1+    1 3d1+    1 3d1+    1 3d1+ 
                                   1 3d1+    1 3d1+    1 3d1+ 

   1.6   +    -0.0390   -6.8085  0.000088 -0.000427  0.002143 -0.002314 -0.015767  0.056271  0.203165  0.299890  0.299775  0.232455
                                 0.127672  0.038964  0.003430

   2.6   0     0.0850   -1.5086  0.000162 -0.000721  0.001950 -0.004900  0.012768 -0.029510  0.032393 -0.132460  0.188601 -0.461338
                                 0.829528 -1.476273  1.816559

   3.6   0     0.2525   -1.9420 -0.000412  0.001844 -0.005458  0.012310 -0.021924  0.040631 -0.170436  0.169385 -0.596205  1.002264
                                -2.217621  3.672941 -1.760390

                                   1 3d1-    1 3d1-    1 3d1-    1 3d1-    1 3d1-    1 3d1-    1 3d1-    1 3d1-    1 3d1-    1 3d1- 
                                   1 3d1-    1 3d1-    1 3d1- 

   1.7   +    -0.0390   -6.8085  0.000088 -0.000427  0.002143 -0.002314 -0.015767  0.056271  0.203165  0.299890  0.299775  0.232455
                                 0.127672  0.038964  0.003430

   2.7   0     0.0850   -1.5086  0.000162 -0.000721  0.001950 -0.004900  0.012768 -0.029510  0.032393 -0.132460  0.188601 -0.461338
                                 0.829528 -1.476273  1.816559

   3.7   0     0.2525   -1.9420 -0.000412  0.001844 -0.005458  0.012310 -0.021924  0.040631 -0.170436  0.169385 -0.596205  1.002264
                                -2.217621  3.672941 -1.760390

 HOMO      1.4    -0.039049 =      -1.0626eV
 LUMO      2.2     0.047482 =       1.2921eV
 LUMO-HOMO         0.086531 =       2.3546eV


 **********************************************************************************************************************************
 DATASETS  * FILE   NREC   LENGTH (MB)   RECORD NAMES
              1      20       21.31       500      610      700      900      950      970     1000      129      960     1100   
                                          VAR    BASINP    GEOM    SYMINP    ZMAT    AOBASIS   BASIS     P2S    ABASIS      S 
                                         1400     1410     1420     1200     1210     1080     1600     1650     1700     1380   
                                           T        V       ECP      H0       H01     AOSYM     SMH    MOLCAS    OPER     JKOP   

              2       6        7.98       700     1000      520     4202     5202     2101   
                                         GEOM     BASIS   MCVARS     RHF     MCSCF     RHF  

 PROGRAMS   *        TOTAL       RHF     MULTI       POP       RHF       INT
 CPU TIMES  *         2.74      0.09      0.19      0.00      0.16      1.84
 REAL TIME  *         7.52 SEC
 DISK USED  *       454.49 MB      
 SF USED    *         8.35 MB      
 GA USED    *         0.00 MB       (max)       0.00 MB       (current)
 **********************************************************************************************************************************


 PROGRAM * CI (Multireference internally contracted CI)     Authors: H.-J. Werner, P.J. Knowles, 1987


 Convergence thresholds:  THRVAR = 1.00D-08  THRDEN = 1.00D-06

 Number of optimized states:  1  Roots:   1
 Number of reference states:  1  Roots:   1

 Reference symmetry:                   1   Septet  
 Number of electrons:                 14
 Maximum number of shells:             1
 Maximum number of spin couplings:     1

 Reference space:        1 conf        1 CSFs
 N elec internal:        1 conf        1 CSFs
 N-1 el internal:        6 conf        6 CSFs
 N-2 el internal:       15 conf       15 CSFs

 Number of electrons in valence space:                      6
 Maximum number of open shell orbitals in reference space:  6
 Maximum number of open shell orbitals in internal spaces:  6


 Number of core orbitals:           4 (   1   1   1   0   1   0   0 )
 Number of active  orbitals:        6 (   3   0   0   1   0   1   1 )
 Number of external orbitals:     107 (  35  12  12  12  12  12  12 )

 Molecular orbitals read from record     2101.2  Type=RHF/CANONICAL (state 1.1)

 Coulomb and exchange operators available. No transformation done.

 Number of p-space configurations:   1

 Reference wavefunction optimized for reference space (refopt=1)

 State     Reference Energy 
   1         -67.46809231

 Number of blocks in overlap matrix:    15   Smallest eigenvalue:  0.10D+01
 Number of N-2 electron functions:      15
 Number of N-1 electron functions:       6

 Number of internal configurations:                    1
 Number of singly external configurations:           141
 Number of doubly external configurations:         11469
 Total number of contracted configurations:        11611
 Total number of uncontracted configurations:      11611

 Diagonal Coupling coefficients finished.               Storage:    1711 words, CPU-Time:      0.00 seconds.
 Energy denominators for pairs finished in 1 passes.    Storage:   26087 words, CPU-time:      0.01 seconds.

  ITER. STATE  ROOT     SQ.NORM     CORR.ENERGY   TOTAL ENERGY   ENERGY CHANGE       DEN1      VAR(S)    VAR(P)      TIME
    1     1     1     1.00000000     0.00000000   -67.46809231     0.00000000    -0.02373182  0.00D+00  0.11D-01     0.12
    2     1     1     1.01466623    -0.02709119   -67.49518350    -0.02709119    -0.00069723  0.37D-03  0.24D-03     0.12
    3     1     1     1.01940798    -0.02821682   -67.49630913    -0.00112563    -0.00006517  0.13D-04  0.27D-04     0.14
    4     1     1     1.02037980    -0.02831297   -67.49640528    -0.00009615    -0.00000467  0.15D-05  0.18D-05     0.15
    5     1     1     1.02042789    -0.02831941   -67.49641172    -0.00000644    -0.00000021  0.62D-07  0.83D-07     0.16
    6     1     1     1.02042080    -0.02831970   -67.49641200    -0.00000028    -0.00000001  0.40D-08  0.29D-08     0.17


 =====================================
 Analysis of CPU times by interactions
 =====================================

       I      S      P

 I   0.0%
 S   0.0%  11.8%
 P  23.5%  11.8%   0.0%

 Initialization:  52.9%
 Other:            0.0%

 Total CPU:        0.2 seconds
 =====================================



 Reference coefficients greater than 0.0500000
 =============================================
 //////           0.9899434



 RESULTS FOR STATE 1.1
 =====================

 Coefficient of reference function:   C(0) = 0.98994336 (fixed)   0.98994336 (relaxed)

 Energy contributions of configuration classes

 CLASS          SQ.NORM        ECORR1        ECORR2
 +++++++++++++++++++++++++++++++++++++++++++++++++++
 Internals    0.00000000    0.00000000    0.00000000
 Singles      0.00113492   -0.00000000   -0.00003056
 Pairs        0.01928588   -0.02831970   -0.02828914
 Total        1.02042080   -0.02831970   -0.02831970
 +++++++++++++++++++++++++++++++++++++++++++++++++++


 Reference energy                     -67.46809231
 Nuclear energy                         0.00000000
 Kinetic energy                        23.82584359
 One electron energy                 -116.47234592
 Two electron energy                   48.97593392
 Virial quotient                       -2.83290754
 Correlation energy                    -0.02831970
 !CI(SD) STATE 1.1 Energy             -67.496412004085

 Properties without orbital relaxation:

 !CI(SD) STATE 1.1 Dipole moment        0.00000000     0.00000000     0.00000000
 Dipole moment /Debye                   0.00000000     0.00000000     0.00000000

 Cluster corrected energies           -67.49699031 (Davidson, fixed reference)
 Cluster corrected energies           -67.49699031 (Davidson, relaxed reference)

 Cluster corrected energies           -67.49641200 (Pople, fixed reference)
 Cluster corrected energies           -67.49641200 (Pople, relaxed reference)


 Natural orbitals
 ================

   Orb     Occ           Coefficients

                         1 1s      1 1s      1 1s      1 1s      1 1s      1 1s      1 1s      1 1s      1 1s      1 1s   
                         1 1s      1 1s      1 1s      1 3d0     1 3d2+    1 3d0     1 3d2+    1 3d0     1 3d2+    1 3d0  
                         1 3d2+    1 3d0     1 3d2+    1 3d0     1 3d2+    1 3d0     1 3d2+    1 3d0     1 3d2+    1 3d0  
                         1 3d2+    1 3d0     1 3d2+    1 3d0     1 3d2+    1 3d0     1 3d2+    1 3d0     1 3d2+ 

   1.1    2.0000000   -0.000019  0.001566 -0.028400  0.209329 -0.374473 -0.425216  0.424867  0.676129  0.310600  0.025503
                       0.004380 -0.004375 -0.001251  0.000000 -0.000000  0.000000  0.000000 -0.000000 -0.000000 -0.000000
                       0.000000 -0.000000 -0.000000  0.000000  0.000000  0.000000 -0.000000  0.000000  0.000000  0.000000
                      -0.000000  0.000000  0.000000 -0.000000 -0.000000 -0.000000  0.000000  0.000000 -0.000000

   2.1    0.9957442    0.000003 -0.000434  0.008679 -0.067885  0.132356  0.136339 -0.164290 -0.328879 -0.222756 -0.012601
                       0.398788  0.453461  0.353894 -0.000000  0.000000  0.000000 -0.000000 -0.000000  0.000000  0.000000
                      -0.000000  0.000001 -0.000000 -0.000002  0.000000 -0.000008  0.000000 -0.000011  0.000000 -0.000011
                       0.000000 -0.000009  0.000000 -0.000005  0.000000 -0.000002  0.000000 -0.000000  0.000000

   3.1    0.9932655    0.000000 -0.000000  0.000000 -0.000003  0.000005  0.000005 -0.000006 -0.000012 -0.000008  0.000000
                       0.000014  0.000018  0.000013  0.000088 -0.000000 -0.000427  0.000000  0.002145 -0.000000 -0.002321
                       0.000000 -0.015764  0.000000  0.056567 -0.000000  0.203698 -0.000000  0.298168 -0.000000  0.294756
                      -0.000000  0.230661 -0.000000  0.133826 -0.000000  0.046829 -0.000000  0.005532 -0.000000

   4.1    0.9932652    0.000000  0.000000 -0.000000  0.000000 -0.000000 -0.000000  0.000000  0.000000  0.000000  0.000000
                      -0.000000 -0.000000 -0.000000  0.000000  0.000088 -0.000000 -0.000427  0.000000  0.002145 -0.000000
                      -0.002321 -0.000000 -0.015764  0.000000  0.056567  0.000000  0.203697  0.000000  0.298168  0.000000
                       0.294756  0.000000  0.230661  0.000000  0.133827  0.000000  0.046829  0.000000  0.005532

   5.1    0.0045772    0.000000  0.000000 -0.000000  0.000000 -0.000000  0.000000 -0.000000  0.000000 -0.000000  0.000000
                      -0.000000  0.000000 -0.000000  0.000000 -0.000116 -0.000000  0.000565  0.000000 -0.002949 -0.000000
                       0.003632 -0.000000  0.020398  0.000000 -0.091207  0.000000 -0.319761  0.000000 -0.384649  0.000000
                      -0.032169 -0.000000  0.392895 -0.000000  0.404264 -0.000000  0.166216 -0.000000  0.021086

   6.1    0.0045772   -0.000000 -0.000000  0.000000 -0.000001  0.000002  0.000002 -0.000003 -0.000007 -0.000001  0.000014
                      -0.000006  0.000006 -0.000010 -0.000116 -0.000000  0.000565  0.000000 -0.002949 -0.000000  0.003632
                       0.000000  0.020398  0.000000 -0.091207 -0.000000 -0.319761 -0.000000 -0.384648 -0.000000 -0.032169
                      -0.000000  0.392897  0.000000  0.404264  0.000000  0.166214  0.000000  0.021087  0.000000

   7.1    0.0033668   -0.000072 -0.000488  0.017400 -0.147523  0.300343  0.328314 -0.487559 -1.076705 -0.076225  1.649122
                       0.511357 -0.618570 -0.664542  0.000000  0.000000 -0.000000 -0.000000  0.000000  0.000000 -0.000000
                      -0.000000 -0.000000  0.000000  0.000000  0.000000  0.000002  0.000000  0.000003  0.000000 -0.000001
                      -0.000000 -0.000001 -0.000000 -0.000004 -0.000000 -0.000000 -0.000000 -0.000001 -0.000000

   8.1    0.0001463   -0.000000  0.000000 -0.000000  0.000000 -0.000001 -0.000000  0.000000  0.000004 -0.000004 -0.000011
                       0.000026 -0.000023  0.000009 -0.000173  0.000000  0.000846 -0.000000 -0.004528  0.000000  0.006114
                      -0.000000  0.032626 -0.000000 -0.179374  0.000000 -0.628233  0.000000 -0.082349  0.000000  0.920019
                      -0.000000  0.254352 -0.000000 -0.533408  0.000000 -0.344244  0.000000 -0.048463  0.000000

   9.1    0.0001463   -0.000000 -0.000000  0.000000 -0.000000  0.000000 -0.000000  0.000000 -0.000000  0.000000 -0.000000
                       0.000000 -0.000000  0.000000 -0.000000 -0.000173  0.000000  0.000846 -0.000000 -0.004528  0.000000
                       0.006114  0.000000  0.032626 -0.000000 -0.179376 -0.000000 -0.628235 -0.000000 -0.082345  0.000000
                       0.920018  0.000000  0.254348 -0.000000 -0.533403 -0.000000 -0.344245 -0.000000 -0.048463

  10.1    0.0000901   -0.000454  0.001112  0.022079 -0.234779  0.518803  0.714395 -1.846476 -1.796154  4.372657 -0.434280
                      -2.676955  0.444245  0.970937  0.000000 -0.000000 -0.000000  0.000000  0.000000 -0.000000 -0.000000
                       0.000000  0.000001 -0.000000 -0.000003  0.000000  0.000002  0.000000 -0.000001  0.000000 -0.000002
                      -0.000000  0.000004  0.000000 -0.000003 -0.000000  0.000001  0.000000 -0.000001 -0.000000

  11.1    0.0000096   -0.000000  0.000000  0.000000 -0.000001  0.000001  0.000007 -0.000023  0.000022 -0.000005  0.000001
                      -0.000019  0.000031 -0.000016  0.000092  0.000000 -0.000289 -0.000000 -0.002757 -0.000000  0.000629
                       0.000000  0.080234  0.000000 -0.507437 -0.000000 -0.866179 -0.000001  1.619396  0.000001  0.104658
                       0.000000 -1.407269 -0.000001  0.374621  0.000000  0.494794  0.000000  0.091089  0.000000

  12.1    0.0000096   -0.000000  0.000000 -0.000000  0.000000 -0.000000  0.000000 -0.000000  0.000000 -0.000000  0.000000
                      -0.000000  0.000000 -0.000000 -0.000000  0.000092  0.000000 -0.000289  0.000000 -0.002757  0.000000
                       0.000629 -0.000000  0.080236  0.000000 -0.507441  0.000001 -0.866185 -0.000001  1.619423 -0.000000
                       0.104623  0.000001 -1.407252 -0.000000  0.374635 -0.000000  0.494764 -0.000000  0.091108

  13.1    0.0000057   -0.002477  0.011335  0.001476 -0.284680  0.733548  1.628877 -7.041320  6.671716  1.499868 -7.958268
                       5.823389 -0.180956 -1.219186  0.000000 -0.000000 -0.000000  0.000000  0.000000  0.000000 -0.000001
                      -0.000000  0.000002 -0.000000 -0.000003  0.000000  0.000013  0.000000 -0.000024 -0.000000  0.000022
                       0.000000 -0.000014  0.000000  0.000009  0.000000 -0.000006 -0.000000  0.000001  0.000000

  14.1    0.0000011   -0.000000  0.000001 -0.000004  0.000019 -0.000048 -0.000010  0.000260 -0.000531  0.000575 -0.000346
                       0.000032  0.000123 -0.000071 -0.002645 -0.000000  0.011603  0.000000 -0.027543 -0.000000  0.073004
                       0.000000 -0.311568 -0.000000  1.589925  0.000000 -0.912117 -0.000000 -1.824210 -0.000000  3.393919
                       0.000000 -2.115947 -0.000000 -0.151724 -0.000000  0.621374  0.000000  0.163406  0.000000

  15.1    0.0000011   -0.000000 -0.000000  0.000000 -0.000000  0.000000 -0.000000  0.000000  0.000000 -0.000000 -0.000000
                       0.000000 -0.000000  0.000000 -0.000000  0.002645  0.000000 -0.011603 -0.000000  0.027542  0.000000
                      -0.073003 -0.000000  0.311565  0.000000 -1.589948 -0.000000  0.912173 -0.000000  1.824161  0.000000
                      -3.393918 -0.000000  2.115986 -0.000000  0.151689  0.000000 -0.621376  0.000000 -0.163389

  16.1    0.0000006    0.018920 -0.101659  0.367823 -1.356908  3.507184 -2.665583 -6.564886 18.473364-23.300550 17.600401
                      -6.524601 -1.032351  1.548470 -0.000000 -0.000000  0.000000  0.000000 -0.000001 -0.000000  0.000002
                       0.000000 -0.000010 -0.000000  0.000039  0.000000 -0.000017 -0.000000 -0.000055 -0.000000  0.000092
                       0.000000 -0.000055 -0.000000 -0.000007 -0.000000  0.000019  0.000000  0.000006 -0.000000

  17.1    0.0000002   -0.000002  0.000008 -0.000027  0.000084 -0.000221  0.000389 -0.000413  0.000228  0.000093 -0.000404
                       0.000540 -0.000411  0.000146  0.000130  0.000000 -0.000874 -0.000000  0.011533  0.000000 -0.030351
                      -0.000000 -0.144594 -0.000000  2.600877  0.000008 -5.075356 -0.000016  4.997940  0.000016 -2.470623
                      -0.000008 -0.628843 -0.000002  2.079076  0.000006 -1.165824 -0.000004 -0.102432 -0.000000

  18.1    0.0000002    0.000000  0.000000 -0.000000  0.000000 -0.000000  0.000000 -0.000000  0.000000 -0.000000  0.000000
                      -0.000000  0.000000 -0.000000  0.000000 -0.000131 -0.000000  0.000877  0.000000 -0.011541 -0.000000
                       0.030369 -0.000000  0.144541  0.000008 -2.600792 -0.000016  5.075306  0.000016 -4.997979 -0.000008
                       2.470750 -0.000002  0.628660  0.000006 -2.078864 -0.000004  1.165624 -0.000000  0.102542

  19.1    0.0000001   -0.074606  0.398659 -1.343721  4.259797-11.813926 21.747552-25.093247 18.962252 -6.905931 -5.405604
                      12.267745-10.576525  3.917637  0.000001 -0.000000 -0.000001  0.000000  0.000000 -0.000000  0.000003
                       0.000000 -0.000006 -0.000000 -0.000039 -0.000000  0.000094  0.000000 -0.000098 -0.000000  0.000037
                       0.000000  0.000048 -0.000000 -0.000092 -0.000000  0.000060  0.000000 -0.000005 -0.000000

                         1 2px     1 2px     1 2px     1 2px     1 2px     1 2px     1 2px     1 2px     1 2px     1 2px  
                         1 2px     1 2px     1 2px  

   1.2    2.0000000    0.000003  0.000075 -0.002401  0.035359 -0.141836 -0.082811  0.327357  0.474165  0.300669  0.076103
                       0.010565  0.000312  0.000334

   2.2    0.0033323   -0.000012  0.000018  0.001168 -0.021143  0.091995  0.047665 -0.248952 -0.430199 -0.106808  0.519713
                       0.525571  0.149464  0.008371

   3.2    0.0002547    0.000038 -0.000142 -0.001183  0.028673 -0.134756 -0.061086  0.496626  0.572118 -0.621235 -0.939479
                       0.285982  0.716320  0.222142

   4.2    0.0000104   -0.000560  0.002616 -0.005256 -0.026721  0.167775  0.261337 -1.452417 -0.146436  2.634034 -1.499901
                      -1.091350  0.865530  0.400963

   5.2    0.0000013    0.000047 -0.000375  0.005296 -0.079478  0.394371  0.143543 -3.342303  4.899579 -1.790954 -2.569242
                       3.390683 -0.925084 -0.530231

   6.2    0.0000001    0.017471 -0.083904  0.253935 -0.724315  2.035429 -3.159155  0.140270  5.706807 -9.879401  9.558984
                      -5.323258  0.764577  0.678331

   7.2    0.0000000   -0.032194  0.156150 -0.481288  1.416645 -4.392030  9.904397-13.397055 12.648330 -8.591258  3.070119
                       1.707173 -3.452475  1.849752

   8.2    0.0000000   -0.082769  0.388847 -1.089402  2.186532 -2.164109 -1.334976  6.074570-10.032232 12.810649-14.180138
                      13.249841 -9.188809  3.419192

   9.2    0.0000000    0.229952 -1.110312  3.337211 -8.101585 14.357152-16.703846 15.590471-13.385297 11.223074 -9.180606
                       6.894323 -4.108547  1.382988

  10.2    0.0000000   -0.683397  3.131076 -8.169672 13.394378-13.261469 10.370786 -7.522745  5.379036 -3.832613  2.675963
                      -1.732854  0.912107 -0.280179

  11.2    0.0000000    1.034059 -4.310417  8.946023 -8.983767  6.646284 -4.542381  3.079175 -2.084811  1.390720 -0.887861
                       0.512161 -0.236032  0.063502

  12.2    0.0000000   -2.053842  7.290526 -9.193313  7.581550 -5.382012  3.686466 -2.516517  1.710893 -1.142420  0.729111
                      -0.420964  0.194950 -0.052996

  13.2    0.0000000    3.499516 -5.826002  5.192060 -3.771288  2.625186 -1.820188  1.257521 -0.859037  0.572267 -0.361899
                       0.205579 -0.093047  0.024620

                         1 2py     1 2py     1 2py     1 2py     1 2py     1 2py     1 2py     1 2py     1 2py     1 2py  
                         1 2py     1 2py     1 2py  

   1.3    2.0000000    0.000003  0.000075 -0.002401  0.035359 -0.141836 -0.082811  0.327357  0.474165  0.300669  0.076103
                       0.010565  0.000312  0.000334

   2.3    0.0033323   -0.000012  0.000018  0.001168 -0.021143  0.091995  0.047665 -0.248952 -0.430199 -0.106808  0.519713
                       0.525571  0.149464  0.008371

   3.3    0.0002547    0.000038 -0.000142 -0.001183  0.028673 -0.134756 -0.061086  0.496626  0.572118 -0.621235 -0.939479
                       0.285982  0.716320  0.222142

   4.3    0.0000104   -0.000560  0.002616 -0.005256 -0.026721  0.167775  0.261337 -1.452417 -0.146436  2.634034 -1.499901
                      -1.091350  0.865530  0.400963

   5.3    0.0000013    0.000047 -0.000375  0.005296 -0.079478  0.394371  0.143543 -3.342303  4.899578 -1.790954 -2.569242
                       3.390683 -0.925084 -0.530231

   6.3    0.0000001    0.017471 -0.083904  0.253935 -0.724315  2.035429 -3.159155  0.140270  5.706807 -9.879401  9.558984
                      -5.323258  0.764577  0.678331

   7.3    0.0000000   -0.032194  0.156150 -0.481288  1.416645 -4.392030  9.904397-13.397055 12.648330 -8.591258  3.070119
                       1.707173 -3.452475  1.849753

   8.3    0.0000000   -0.082769  0.388847 -1.089402  2.186532 -2.164109 -1.334976  6.074570-10.032232 12.810649-14.180138
                      13.249841 -9.188809  3.419192

   9.3    0.0000000    0.229952 -1.110312  3.337211 -8.101585 14.357152-16.703846 15.590471-13.385297 11.223074 -9.180606
                       6.894323 -4.108547  1.382988

  10.3    0.0000000   -0.683397  3.131075 -8.169672 13.394378-13.261469 10.370786 -7.522745  5.379036 -3.832613  2.675963
                      -1.732854  0.912107 -0.280179

  11.3    0.0000000    1.034059 -4.310415  8.946021 -8.983766  6.646283 -4.542380  3.079175 -2.084811  1.390720 -0.887861
                       0.512161 -0.236032  0.063502

  12.3    0.0000000   -2.053845  7.290533 -9.193320  7.581556 -5.382016  3.686469 -2.516519  1.710894 -1.142421  0.729112
                      -0.420964  0.194950 -0.052996

  13.3    0.0000000    3.499514 -5.825995  5.192052 -3.771281  2.625182 -1.820184  1.257519 -0.859035  0.572266 -0.361898
                       0.205579 -0.093047  0.024620

                         1 3d2-    1 3d2-    1 3d2-    1 3d2-    1 3d2-    1 3d2-    1 3d2-    1 3d2-    1 3d2-    1 3d2- 
                         1 3d2-    1 3d2-    1 3d2- 

   1.4    0.9932653    0.000088 -0.000427  0.002145 -0.002321 -0.015764  0.056567  0.203697  0.298168  0.294756  0.230661
                       0.133827  0.046829  0.005532

   2.4    0.0045772   -0.000116  0.000565 -0.002949  0.003632  0.020398 -0.091207 -0.319761 -0.384649 -0.032169  0.392896
                       0.404265  0.166215  0.021087

   3.4    0.0001463   -0.000173  0.000846 -0.004528  0.006114  0.032626 -0.179375 -0.628235 -0.082344  0.920012  0.254355
                      -0.533406 -0.344247 -0.048462

   4.4    0.0000096    0.000092 -0.000289 -0.002757  0.000629  0.080236 -0.507444 -0.866181  1.619420  0.104623 -1.407246
                       0.374624  0.494776  0.091100

   5.4    0.0000011    0.002645 -0.011603  0.027543 -0.073005  0.311574 -1.589965  0.912201  1.824126 -3.393886  2.115963
                       0.151697 -0.621367 -0.163399

   6.4    0.0000002   -0.000131  0.000877 -0.011541  0.030370  0.144544 -2.600807  5.075333 -4.998013  2.470779  0.628650
                      -2.078883  1.165664  0.102513

   7.4    0.0000000   -0.025037  0.112157 -0.332715  0.847953 -1.879276  0.932960  1.906676 -4.993513  7.098088 -7.366822
                       5.356800 -2.026192 -0.069809

   8.4    0.0000000    0.047723 -0.216462  0.667159 -1.902133  5.476425 -8.240182  8.761543 -7.840565  6.240140 -4.201086
                       1.913710 -0.053301 -0.461688

   9.4    0.0000000    0.039411 -0.171900  0.446974 -0.792028  0.115608  1.109967 -2.278808  3.401008 -4.675032  6.072744
                      -6.978040  6.118627 -2.936426

  10.4    0.0000000   -0.248776  1.106217 -3.096467  6.904503 -8.374568  7.384786 -5.777225  4.433129 -3.485568  2.824128
                      -2.246067  1.518557 -0.615032

  11.4    0.0000000    0.669594 -2.759024  6.429996 -7.109836  5.510143 -3.788222  2.551564 -1.729191  1.178606 -0.796439
                       0.512193 -0.280431  0.095309

  12.4    0.0000000   -1.432842  4.936342 -5.633175  4.223626 -2.802637  1.840035 -1.219773  0.810992 -0.533137  0.338250
                      -0.197252  0.094678 -0.027727

  13.4    0.0000000    2.590359 -3.576160  2.816936 -1.907717  1.272810 -0.855342  0.576027 -0.385485  0.253236 -0.159560
                       0.091817 -0.043199  0.012334

                         1 2pz     1 2pz     1 2pz     1 2pz     1 2pz     1 2pz     1 2pz     1 2pz     1 2pz     1 2pz  
                         1 2pz     1 2pz     1 2pz  

   1.5    2.0000000    0.000003  0.000075 -0.002401  0.035359 -0.141836 -0.082811  0.327357  0.474165  0.300669  0.076103
                       0.010565  0.000312  0.000334

   2.5    0.0033336   -0.000012  0.000018  0.001168 -0.021142  0.091989  0.047661 -0.248933 -0.430163 -0.106817  0.519633
                       0.525574  0.149509  0.008415

   3.5    0.0002548    0.000038 -0.000142 -0.001183  0.028673 -0.134755 -0.061090  0.496618  0.572124 -0.621130 -0.939577
                       0.285923  0.716328  0.222154

   4.5    0.0000104   -0.000559  0.002615 -0.005255 -0.026723  0.167781  0.261317 -1.452386 -0.146415  2.633874 -1.499631
                      -1.091507  0.865467  0.401028

   5.5    0.0000013    0.000047 -0.000374  0.005296 -0.079477  0.394370  0.143569 -3.342376  4.899601 -1.790898 -2.569270
                       3.390645 -0.925055 -0.530218

   6.5    0.0000001    0.017470 -0.083897  0.253916 -0.724270  2.035333 -3.159025  0.140194  5.706812 -9.879294  9.558672
                      -5.322794  0.764192  0.678471

   7.5    0.0000000   -0.032195  0.156159 -0.481320  1.416711 -4.392122  9.904414-13.396844 12.647868 -8.590636  3.069466
                       1.707699 -3.452763  1.849828

   8.5    0.0000000   -0.082753  0.388780 -1.089213  2.186088 -2.163337 -1.335962  6.075674-10.033351 12.811653-14.180894
                      13.250259 -9.188927  3.419183

   9.5    0.0000000    0.229969 -1.110381  3.337349 -8.101820 14.357383-16.703898 15.590307-13.384964 11.222615 -9.180065
                       6.893784 -4.108151  1.382832

  10.5    0.0000000   -0.683374  3.130930 -8.169343 13.394000-13.261099 10.370436 -7.522428  5.378755 -3.832362  2.675742
                      -1.732674  0.911991 -0.280137

  11.5    0.0000000    1.033952 -4.309885  8.945441 -8.983516  6.646274 -4.542464  3.079286 -2.084929  1.390840 -0.887979
                       0.512264 -0.236101  0.063527

  12.5    0.0000000   -2.053266  7.289854 -9.193283  7.581803 -5.382202  3.686558 -2.516552  1.710898 -1.142408  0.729089
                      -0.420939  0.194932 -0.052989

  13.5    0.0000000    3.499889 -5.827305  5.193584 -3.772458  2.625983 -1.820722  1.257879 -0.859273  0.572418 -0.361988
                       0.205624 -0.093064  0.024624

                         1 3d1+    1 3d1+    1 3d1+    1 3d1+    1 3d1+    1 3d1+    1 3d1+    1 3d1+    1 3d1+    1 3d1+ 
                         1 3d1+    1 3d1+    1 3d1+ 

   1.6    0.9932635    0.000088 -0.000427  0.002145 -0.002321 -0.015764  0.056567  0.203697  0.298167  0.294755  0.230662
                       0.133828  0.046830  0.005533

   2.6    0.0045771   -0.000116  0.000565 -0.002949  0.003632  0.020398 -0.091207 -0.319761 -0.384648 -0.032169  0.392889
                       0.404268  0.166214  0.021092

   3.6    0.0001463   -0.000173  0.000846 -0.004528  0.006114  0.032625 -0.179370 -0.628229 -0.082349  0.919990  0.254379
                      -0.533394 -0.344263 -0.048467

   4.6    0.0000096    0.000092 -0.000289 -0.002758  0.000630  0.080231 -0.507434 -0.866169  1.619354  0.104679 -1.407184
                       0.374467  0.494894  0.091065

   5.6    0.0000011    0.002645 -0.011604  0.027545 -0.073010  0.311588 -1.589948  0.912114  1.824214 -3.393865  2.115844
                       0.151777 -0.621341 -0.163438

   6.6    0.0000002   -0.000131  0.000875 -0.011536  0.030357  0.144561 -2.600791  5.075199 -4.997674  2.470229  0.629314
                      -2.079516  1.166148  0.102278

   7.6    0.0000000   -0.025036  0.112146 -0.332675  0.847851 -1.879062  0.932682  1.906922 -4.993618  7.097934 -7.366318
                       5.356002 -2.025406 -0.070192

   8.6    0.0000000    0.047733 -0.216502  0.667278 -1.902464  5.477159 -8.241162  8.762614 -7.841770  6.241632 -4.203017
                       1.916023 -0.055436 -0.460615

   9.6    0.0000000    0.039493 -0.172278  0.448095 -0.795065  0.120647  1.104571 -2.274282  3.397599 -4.672586  6.071073
                      -6.977032  6.118195 -2.936353

  10.6    0.0000000   -0.248753  1.106143 -3.096319  6.904142 -8.374154  7.384643 -5.777534  4.433962 -3.487010  2.826238
                      -2.248663  1.520932 -0.616203

  11.6    0.0000000    0.669500 -2.758865  6.429831 -7.109651  5.509915 -3.787964  2.551290 -1.728893  1.178261 -0.796030
                       0.511744 -0.280047  0.095127

  12.6    0.0000000   -1.432304  4.935618 -5.632648  4.223319 -2.802463  1.839935 -1.219718  0.810969 -0.533139  0.338272
                      -0.197287  0.094711 -0.027743

  13.6    0.0000000    2.590682 -3.577286  2.818327 -1.908844  1.273591 -0.855864  0.576377 -0.385720  0.253393 -0.159662
                       0.091879 -0.043229  0.012344

                         1 3d1-    1 3d1-    1 3d1-    1 3d1-    1 3d1-    1 3d1-    1 3d1-    1 3d1-    1 3d1-    1 3d1- 
                         1 3d1-    1 3d1-    1 3d1- 

   1.7    0.9932635    0.000088 -0.000427  0.002145 -0.002321 -0.015764  0.056567  0.203697  0.298167  0.294755  0.230662
                       0.133828  0.046830  0.005533

   2.7    0.0045771   -0.000116  0.000565 -0.002949  0.003632  0.020398 -0.091207 -0.319761 -0.384648 -0.032169  0.392889
                       0.404268  0.166214  0.021092

   3.7    0.0001463   -0.000173  0.000846 -0.004528  0.006114  0.032625 -0.179370 -0.628229 -0.082349  0.919990  0.254379
                      -0.533394 -0.344263 -0.048467

   4.7    0.0000096    0.000092 -0.000289 -0.002758  0.000630  0.080231 -0.507434 -0.866169  1.619354  0.104679 -1.407184
                       0.374467  0.494894  0.091065

   5.7    0.0000011    0.002645 -0.011604  0.027545 -0.073010  0.311588 -1.589948  0.912114  1.824214 -3.393865  2.115844
                       0.151777 -0.621341 -0.163438

   6.7    0.0000002   -0.000131  0.000875 -0.011536  0.030357  0.144561 -2.600791  5.075199 -4.997674  2.470229  0.629314
                      -2.079516  1.166148  0.102278

   7.7    0.0000000   -0.025036  0.112146 -0.332675  0.847851 -1.879062  0.932682  1.906922 -4.993618  7.097934 -7.366318
                       5.356002 -2.025406 -0.070192

   8.7    0.0000000    0.047733 -0.216502  0.667278 -1.902464  5.477159 -8.241162  8.762614 -7.841770  6.241632 -4.203017
                       1.916023 -0.055436 -0.460615

   9.7    0.0000000    0.039493 -0.172278  0.448095 -0.795065  0.120647  1.104571 -2.274282  3.397599 -4.672586  6.071073
                      -6.977032  6.118195 -2.936353

  10.7    0.0000000   -0.248753  1.106143 -3.096319  6.904142 -8.374154  7.384643 -5.777534  4.433962 -3.487010  2.826238
                      -2.248663  1.520932 -0.616203

  11.7    0.0000000    0.669500 -2.758865  6.429831 -7.109651  5.509915 -3.787964  2.551290 -1.728893  1.178261 -0.796030
                       0.511744 -0.280047  0.095127

  12.7    0.0000000   -1.432304  4.935618 -5.632648  4.223319 -2.802463  1.839935 -1.219718  0.810969 -0.533139  0.338272
                      -0.197287  0.094711 -0.027743

  13.7    0.0000000    2.590682 -3.577286  2.818327 -1.908844  1.273591 -0.855864  0.576377 -0.385720  0.253393 -0.159662
                       0.091879 -0.043229  0.012344

 Electronic charge:   14.000000


 **********************************************************************************************************************************
 DATASETS  * FILE   NREC   LENGTH (MB)   RECORD NAMES
              1      20       21.31       500      610      700      900      950      970     1000      129      960     1100   
                                          VAR    BASINP    GEOM    SYMINP    ZMAT    AOBASIS   BASIS     P2S    ABASIS      S 
                                         1400     1410     1420     1200     1210     1080     1600     1650     1700     1380   
                                           T        V       ECP      H0       H01     AOSYM     SMH    MOLCAS    OPER     JKOP   

              2       6        7.98       700     1000      520     4202     5202     2101   
                                         GEOM     BASIS   MCVARS     RHF     MCSCF     RHF  

 PROGRAMS   *        TOTAL        CI       RHF     MULTI       POP       RHF       INT
 CPU TIMES  *         3.25      0.51      0.09      0.19      0.00      0.16      1.84
 REAL TIME  *         8.93 SEC
 DISK USED  *       454.49 MB      
 SF USED    *         8.35 MB      
 GA USED    *         0.00 MB       (max)       0.00 MB       (current)
 **********************************************************************************************************************************

 CI/USERDEF energy=    -67.496412004085

        CI              RHF-SCF         MULTI           RHF-SCF 
    -67.49641200    -67.46809231    -67.46809231    -67.46809231
 **********************************************************************************************************************************
 Molpro calculation terminated
 Variable memory released
