
 Primary working directories    : /global/cscratch1/sd/aannabe
 Secondary working directories  : /global/cscratch1/sd/aannabe
 Wavefunction directory         : /global/homes/a/aannabe/wfu/
 Main file repository           : /global/cscratch1/sd/aannabe/

 SHA1      : 19cd028119e0e09f93f0674bd8af7968d9b3eff6
 NAME      : 2015.1.36
 ARCHNAME  : linux/x86_64
 FC        : /opt/cray/pe/craype/2.5.14/bin/ftn
 BLASLIB   : -L/opt/intel/compilers_and_libraries_2018.1.163/linux/mkl/lib/intel64 -Wl,-_start-group -lmkl_intel_ilp64 -lmkl_intel_thread -lmkl_core -Wl,-_end-group -liomp5
 id        : lbl

 Nodes     nprocs
 nid00752    23
 Number of processes for MPI-2 version of Molpro:   nprocs(total)=   24   nprocs(compute)=   23   nprocs(helper)=    1

 Using customized tuning parameters: mindgm=7; mindgv=16; mindgc=1; mindgr=1; noblas=0; minvec=7
 default implementation of scratch files=sf  

 ***,Calculation for Ag atom, singlet and triplet
 memory,512,m
 
 geometry={
 1
 Pd
 Pd  0.0 0.0 0.0
 }
 
 basis={
 Including file /global/cscratch1/sd/aannabe/repos/heavy_element_ecps/Pd/arep/atoms/MWBSTU/basis/MWBSTU
 Including file /global/cscratch1/sd/aannabe/repos/heavy_element_ecps/Pd/arep/atoms/MWBSTU/basis/5z.basis
 }
 
 Including file /global/cscratch1/sd/aannabe/repos/heavy_element_ecps/Pd/arep/atoms/MWBSTU/basis/states.proc
 
 do i=1,13
     if (i.eq.1) then
         Idten
     else if (i.eq.2) then
         EAs2d9
     else if (i.eq.3) then
         Is1d9
     else if (i.eq.4) then
         Is2d8
     else if (i.eq.5) then
         IId9
     else if (i.eq.6) then
         IIs1d8
     else if (i.eq.7) then
         IIId8
     else if (i.eq.8) then
         IVd7
     else if (i.eq.9) then
         Vd6
     else if (i.eq.10) then
         VId5
     else if (i.eq.11) then
         XIKr
     else if (i.eq.12) then
         XIVp3
     else if (i.eq.13) then
         XVIIs2
     endif
     scf(i)=energy
     _CC_NORM_MAX=2.0
    {rccsd(t),maxit=100;core}
     ccsd(i)=energy
 enddo
 
 table,scf,ccsd
 type,csv
 save

 Variables initialized (889), CPU time= 0.01 sec
 Commands  initialized (702), CPU time= 0.01 sec, 572 directives.
 Default parameters read. Elapsed time= 0.25 sec

 Checking input...
 Passed
1


                                         ***  PROGRAM SYSTEM MOLPRO  ***
                                       Copyright, TTI GmbH Stuttgart, 2015
                                    Version 2015.1 linked Dec 29 2018 15:55:43


 **********************************************************************************************************************************
 LABEL *   Calculation for Ag atom, singlet and triplet                                  
  64 bit mpp version                                                                     DATE: 04-May-21          TIME: 21:02:42  
 **********************************************************************************************************************************

 SHA1:             19cd028119e0e09f93f0674bd8af7968d9b3eff6
 **********************************************************************************************************************************

Geometry recognized as XYZ


 Variable memory set to  512000000 words,  buffer space   230000 words

 SETTING BASIS          =    USERDEF

 DO I                   =         1.00000000   

 Running procedure=IDTEN


 Recomputing integrals since basis changed


 Using spherical harmonics



 PROGRAM * SEWARD (Integral evaluation for generally contracted gaussian basis sets)     Author: Roland Lindh, 1990

 Geometry written to block  1 of record 700

 Orientation using atomic masses  
 Molecule type: Atom
 Symmetry elements: X,Y,Z
 Rotational constants:       0.0000000      0.0000000      0.0000000 GHz  (calculated with average atomic masses)

 Point group  D2h 



 ATOMIC COORDINATES

 NR  ATOM    CHARGE       X              Y              Z

   1  PD     18.00    0.000000000    0.000000000    0.000000000

 NUCLEAR CHARGE:                   18
 NUMBER OF PRIMITIVE AOS:         429
 NUMBER OF SYMMETRY AOS:          313
 NUMBER OF CONTRACTIONS:          313   (  83Ag  +  42B3u +  42B2u +  31B1g +  42B1u +  31B2g +  31B3g +  11Au  )
 NUMBER OF CORE ORBITALS:           4   (   1Ag  +   1B3u +   1B2u +   0B1g +   1B1u +   0B2g +   0B3g +   0Au  )
 NUMBER OF VALENCE ORBITALS:        6   (   3Ag  +   0B3u +   0B2u +   1B1g +   0B1u +   1B2g +   1B3g +   0Au  )


 NUCLEAR REPULSION ENERGY    0.00000000

 EXTRA SYMMETRY OF AOS IN SYMMETRY 1:   1 1 1 1 1 1 1 1 1 1   1 1 1 1 1 1 1 1 1 1   1 1 1 1 1 1 1 1 1 2   3 2 3 2 3 2 3 2 3 2
                                        3 2 3 2 3 2 3 2 3 2   3 2 3 2 3 2 3 2 3 2   3 2 3 4 5 6 4 5 6 4   5 6 4 5 6 7 8 910 7
                                        8 910
 EXTRA SYMMETRY OF AOS IN SYMMETRY 2:   1 1 1 1 1 1 1 1 1 1   1 1 1 1 1 1 1 1 1 1   1 1 1 2 3 2 3 2 3 2   3 2 3 4 5 6 4 5 6 4
                                        5 6
 EXTRA SYMMETRY OF AOS IN SYMMETRY 3:   1 1 1 1 1 1 1 1 1 1   1 1 1 1 1 1 1 1 1 1   1 1 1 2 3 2 3 2 3 2   3 2 3 4 5 6 4 5 6 4
                                        5 6
 EXTRA SYMMETRY OF AOS IN SYMMETRY 4:   1 1 1 1 1 1 1 1 1 1   1 1 1 1 1 1 1 2 3 2   3 2 3 2 3 4 5 6 4 5   6
 EXTRA SYMMETRY OF AOS IN SYMMETRY 5:   1 1 1 1 1 1 1 1 1 1   1 1 1 1 1 1 1 1 1 1   1 1 1 2 3 2 3 2 3 2   3 2 3 4 5 6 4 5 6 4
                                        5 6
 EXTRA SYMMETRY OF AOS IN SYMMETRY 6:   1 1 1 1 1 1 1 1 1 1   1 1 1 1 1 1 1 2 3 2   3 2 3 2 3 4 5 6 4 5   6
 EXTRA SYMMETRY OF AOS IN SYMMETRY 7:   1 1 1 1 1 1 1 1 1 1   1 1 1 1 1 1 1 2 3 2   3 2 3 2 3 4 5 6 4 5   6
 EXTRA SYMMETRY OF AOS IN SYMMETRY 8:   1 1 1 1 1 2 3 2 3 2   3

 Eigenvalues of metric

         1 0.199E-05 0.951E-05 0.951E-05 0.294E-04 0.121E-03 0.307E-03 0.307E-03 0.364E-03
         2 0.984E-06 0.472E-03 0.163E-02 0.409E-02 0.952E-02 0.187E-01 0.302E-01 0.519E-01
         3 0.984E-06 0.472E-03 0.163E-02 0.409E-02 0.952E-02 0.187E-01 0.302E-01 0.519E-01
         4 0.951E-05 0.307E-03 0.302E-02 0.107E-01 0.287E-01 0.531E-01 0.105E+00 0.153E+00
         5 0.984E-06 0.472E-03 0.163E-02 0.409E-02 0.952E-02 0.187E-01 0.302E-01 0.519E-01
         6 0.951E-05 0.307E-03 0.302E-02 0.107E-01 0.287E-01 0.531E-01 0.105E+00 0.153E+00
         7 0.951E-05 0.307E-03 0.302E-02 0.107E-01 0.287E-01 0.531E-01 0.105E+00 0.153E+00
         8 0.127E+00 0.300E+00 0.300E+00 0.340E+00 0.792E+00 0.909E+00 0.909E+00 0.150E+01


 Contracted 2-electron integrals neglected if value below      1.0D-13
 AO integral compression algorithm  1   Integral accuracy      1.0D-13

     703.070 MB (compressed) written to integral file ( 38.6%)

     Node minimum: 15.204 MB, node maximum: 55.050 MB


 NUMBER OF SORTED TWO-ELECTRON INTEGRALS:    6728960.     BUFFER LENGTH:  32768
 NUMBER OF SEGMENTS:   1  SEGMENT LENGTH:    6728960      RECORD LENGTH: 524288

 Memory used in sort:       7.29 MW

 SORT1 READ   227623651. AND WROTE     3197070. INTEGRALS IN     10 RECORDS. CPU TIME:    10.07 SEC, REAL TIME:    10.31 SEC
 SORT2 READ    75008247. AND WROTE   155396568. INTEGRALS IN   2691 RECORDS. CPU TIME:     0.88 SEC, REAL TIME:     1.12 SEC

 Node minimum:     6630452.  Node maximum:     6850849. integrals

 OPERATOR DM      FOR CENTER  0  COORDINATES:    0.000000    0.000000    0.000000


 **********************************************************************************************************************************
 DATASETS  * FILE   NREC   LENGTH (MB)   RECORD NAMES
              1      19       20.62       500      610      700      900      950      970     1000      129      960     1100   
                                          VAR    BASINP    GEOM    SYMINP    ZMAT    AOBASIS   BASIS     P2S    ABASIS      S 
                                         1400     1410     1420     1200     1210     1080     1600     1650     1700   
                                           T        V       ECP      H0       H01     AOSYM     SMH    MOLCAS    OPER   

 PROGRAMS   *        TOTAL       INT
 CPU TIMES  *        33.48     32.79
 REAL TIME  *        37.38 SEC
 DISK USED  *         1.63 GB      
 GA USED    *         0.00 MB       (max)       0.00 MB       (current)
 **********************************************************************************************************************************


 PROGRAM * RHF-SCF (CLOSED SHELL)       Authors: W. Meyer, H.-J. Werner


 NUMBER OF ELECTRONS:       9+    9-    SPACE SYMMETRY=1    SPIN SYMMETRY: Singlet 
 CONVERGENCE THRESHOLDS:    1.00E-05 (Density)    1.00E-07 (Energy)
 MAX. NUMBER OF ITERATIONS:       60
 INTERPOLATION TYPE:            DIIS
 INTERPOLATION STEPS:              2 (START)      1 (STEP)
 LEVEL SHIFTS:                  0.00 (CLOSED)  0.00 (OPEN) 

 Number of closed-shell orbitals:    9 (   3   1   1   1   1   1   1   0 )


 
 Extra symmetries of mos in symmetry 1:   1   3   2
 Orbital guess generated from atomic densities. Full valence occupancy:    4   1   1   1   1   1   1   0


 Molecular orbital dump at record        4202.2

 ITERATION    DDIFF          GRAD             ENERGY        2-EL.EN.            DIPOLE MOMENTS         DIIS   ORB.
    1      0.000D+00      0.000D+00      -126.98844816    207.816496    0.00000    0.00000    0.00000    0    start
    2      0.000D+00      0.125D-01      -126.99185374    197.829844    0.00000    0.00000    0.00000    1    diag
    3      0.419D-02      0.137D-01      -127.03280244    202.496977    0.00000    0.00000    0.00000    2    diag
    4      0.188D-02      0.588D-03      -127.03286270    202.622769    0.00000    0.00000    0.00000    3    diag
    5      0.117D-03      0.707D-04      -127.03286380    202.642109    0.00000    0.00000    0.00000    4    diag
    6      0.390D-04      0.580D-05      -127.03286381    202.642441    0.00000    0.00000    0.00000    5    diag
    7      0.468D-05      0.602D-06      -127.03286381    202.642710    0.00000    0.00000    0.00000    0    orth

 Final occupancy:   3   1   1   1   1   1   1   0

 !RHF STATE 1.1 Energy               -127.032863814879
 Nuclear energy                         0.00000000
 One-electron energy                 -228.35421885
 Two-electron energy                  101.32135504
 Virial quotient                       -2.58492513
 !RHF STATE 1.1 Dipole moment           0.00000000     0.00000000     0.00000000
 Dipole moment /Debye                   0.00000000     0.00000000     0.00000000

 ELECTRON ORBITALS
 =================


   Orb  Occ    Energy  Couls-En    Coefficients

                                   1 1s      1 1s      1 1s      1 1s      1 1s      1 1s      1 1s      1 1s      1 1s      1 1s   
                                   1 1s      1 1s      1 1s      1 1s      1 1s      1 1s      1 1s      1 1s      1 1s      1 1s   
                                   1 1s      1 1s      1 1s      1 1s      1 1s      1 1s      1 1s      1 1s      1 1s      1 3d0  
                                   1 3d2+    1 3d0     1 3d2+    1 3d0     1 3d2+    1 3d0     1 3d2+    1 3d0     1 3d2+    1 3d0  
                                   1 3d2+    1 3d0     1 3d2+    1 3d0     1 3d2+    1 3d0     1 3d2+    1 3d0     1 3d2+    1 3d0  
                                   1 3d2+    1 3d0     1 3d2+    1 3d0     1 3d2+    1 3d0     1 3d2+    1 3d0     1 3d2+    1 3d0  
                                   1 3d2+    1 3d0     1 3d2+    1 5g0     1 5g4+    1 5g2+    1 5g0     1 5g4+    1 5g2+    1 5g0  
                                   1 5g4+    1 5g2+    1 5g0     1 5g4+    1 5g2+    1 7i6+    1 7i4+    1 7i2+    1 7i0     1 7i6+ 
                                   1 7i4+    1 7i2+    1 7i0  

   1.1   2    -3.8928  -20.2285  0.000000  0.000000 -0.000000  0.000000 -0.000000  0.000000 -0.000001  0.000004 -0.000006  0.000030
                                -0.000048  0.000204 -0.000338  0.001236 -0.002442  0.007118 -0.015787  0.003434  0.257442 -0.781781
                                -0.197587  0.933106  0.532708  0.033639 -0.014110  0.005726  0.153275 -0.098803 -0.001511  0.000000
                                -0.000000 -0.000000  0.000000  0.000000 -0.000000 -0.000000  0.000000  0.000000 -0.000000 -0.000000
                                -0.000000 -0.000000  0.000000  0.000000 -0.000000 -0.000000  0.000000 -0.000000  0.000000  0.000000
                                 0.000000 -0.000000 -0.000000 -0.000000 -0.000000 -0.000000 -0.000000  0.000000 -0.000000 -0.000000
                                -0.000000 -0.000000  0.000000  0.000000  0.000000  0.000000 -0.000000 -0.000000  0.000000  0.000000
                                -0.000000  0.000000  0.000000  0.000000 -0.000000  0.000000  0.000000  0.000000 -0.000000  0.000000
                                 0.000000  0.000000 -0.000000

   2.1   2    -0.3275  -11.1447  0.000000 -0.000000 -0.000000  0.000000 -0.000000  0.000000 -0.000000  0.000000 -0.000000  0.000000
                                -0.000000 -0.000000  0.000000 -0.000000  0.000000 -0.000000  0.000000 -0.000000 -0.000000  0.000000
                                 0.000000 -0.000000 -0.000000 -0.000000  0.000000  0.000000 -0.000000  0.000000  0.000000 -0.000000
                                 0.000000 -0.000001  0.000001 -0.000006  0.000008 -0.000033  0.000043 -0.000128  0.000168 -0.000446
                                 0.000585 -0.001867  0.002449  0.015631 -0.020505 -0.026289  0.034487 -0.142101  0.186413 -0.215787
                                 0.283076 -0.198086  0.259856 -0.131142  0.172036 -0.046300  0.060737 -0.009689  0.012710 -0.006966
                                 0.009139 -0.001668  0.002188  0.000000  0.000000 -0.000000 -0.000000 -0.000000  0.000000 -0.000000
                                -0.000000  0.000000 -0.000000 -0.000000  0.000000 -0.000000  0.000000  0.000000 -0.000000  0.000000
                                -0.000000  0.000000 -0.000000

   3.1   2    -0.3275  -11.1447 -0.000000 -0.000000  0.000000 -0.000000  0.000000 -0.000000  0.000000 -0.000000  0.000000 -0.000000
                                 0.000000 -0.000000  0.000000  0.000000 -0.000000  0.000000 -0.000000  0.000000 -0.000000  0.000000
                                 0.000000 -0.000000 -0.000000  0.000000 -0.000000  0.000000 -0.000000  0.000000 -0.000000 -0.000000
                                -0.000000 -0.000001 -0.000001 -0.000008 -0.000006 -0.000043 -0.000033 -0.000168 -0.000128 -0.000585
                                -0.000446 -0.002449 -0.001867  0.020505  0.015631 -0.034487 -0.026289 -0.186413 -0.142101 -0.283076
                                -0.215787 -0.259856 -0.198086 -0.172036 -0.131142 -0.060737 -0.046300 -0.012710 -0.009689 -0.009139
                                -0.006966 -0.002188 -0.001668  0.000000 -0.000000  0.000000 -0.000000  0.000000 -0.000000 -0.000000
                                 0.000000 -0.000000 -0.000000  0.000000 -0.000000 -0.000000  0.000000 -0.000000 -0.000000  0.000000
                                -0.000000 -0.000000 -0.000000

   4.1   0     0.0093   -3.0606  0.000000 -0.000000  0.000000 -0.000000  0.000000 -0.000000  0.000000 -0.000001  0.000002 -0.000006
                                 0.000014 -0.000044  0.000092 -0.000273  0.000607 -0.001608  0.003779 -0.005874 -0.012140  0.020442
                                -0.172231  0.176087  0.041176 -0.145938  0.506902 -0.726104  0.158886 -0.323540  1.378932  0.000000
                                -0.000000 -0.000000  0.000000  0.000000 -0.000000 -0.000000  0.000000  0.000000 -0.000000 -0.000000
                                 0.000000  0.000000 -0.000000 -0.000000  0.000000  0.000000 -0.000000  0.000000 -0.000000  0.000000
                                -0.000000 -0.000000  0.000000  0.000000 -0.000000 -0.000000  0.000000 -0.000000  0.000000 -0.000000
                                 0.000000  0.000000 -0.000000 -0.000000 -0.000000  0.000000  0.000000  0.000000 -0.000000 -0.000000
                                -0.000000  0.000000  0.000000  0.000000 -0.000000  0.000000 -0.000000 -0.000000 -0.000000 -0.000000
                                 0.000000 -0.000000  0.000000

   5.1   0     0.0605   -3.2913  0.000000 -0.000000  0.000000 -0.000000  0.000000 -0.000000  0.000000 -0.000001  0.000003 -0.000007
                                 0.000025 -0.000052  0.000161 -0.000340  0.000927 -0.002047  0.005064 -0.017451  0.089809 -0.377864
                                -0.765305  1.331538  0.698864 -0.635474  1.478598 -3.548818  0.712462 -1.337848  2.300300 -0.000000
                                 0.000000  0.000000 -0.000000 -0.000000  0.000000  0.000000 -0.000000 -0.000000  0.000000  0.000000
                                -0.000000 -0.000000  0.000000  0.000000 -0.000000 -0.000000 -0.000000 -0.000000 -0.000000 -0.000000
                                -0.000000  0.000000  0.000000 -0.000000 -0.000000  0.000000  0.000000  0.000000  0.000000  0.000000
                                 0.000000 -0.000000 -0.000000  0.000000  0.000000 -0.000000 -0.000000 -0.000000  0.000000  0.000000
                                 0.000000 -0.000000 -0.000000 -0.000000  0.000000 -0.000000  0.000000 -0.000000  0.000000  0.000000
                                -0.000000  0.000000 -0.000000

                                   1 2px     1 2px     1 2px     1 2px     1 2px     1 2px     1 2px     1 2px     1 2px     1 2px  
                                   1 2px     1 2px     1 2px     1 2px     1 2px     1 2px     1 2px     1 2px     1 2px     1 2px  
                                   1 2px     1 2px     1 2px     1 4f1+    1 4f3+    1 4f1+    1 4f3+    1 4f1+    1 4f3+    1 4f1+ 
                                   1 4f3+    1 4f1+    1 4f3+    1 6h1+    1 6h3+    1 6h5+    1 6h1+    1 6h3+    1 6h5+    1 6h1+ 
                                   1 6h3+    1 6h5+ 

   1.2   2    -2.4419  -17.0269  0.000000 -0.000000  0.000000 -0.000000  0.000002 -0.000009  0.000038 -0.000103  0.000374 -0.000889
                                 0.003012 -0.010510  0.054212 -0.125107 -0.517225  0.343286  0.286713  0.042436 -0.005002  0.002609
                                 0.374971  0.538277 -0.000801  0.000000 -0.000000  0.000000 -0.000000  0.000000 -0.000000 -0.000000
                                -0.000000 -0.000000  0.000000  0.000000 -0.000000 -0.000000  0.000000 -0.000000  0.000000  0.000000
                                 0.000000 -0.000000

   2.2   0     0.0273   -1.8321  0.000000 -0.000000  0.000000 -0.000000  0.000001 -0.000002  0.000008 -0.000027  0.000077 -0.000210
                                 0.000514 -0.001216  0.002569 -0.009715  0.312380  0.034371  0.033976 -0.073836  0.220338 -0.528945
                                -0.325345 -0.050644  1.308989 -0.000000  0.000000 -0.000000  0.000000 -0.000000  0.000000 -0.000000
                                 0.000000  0.000000 -0.000000  0.000000  0.000000 -0.000000  0.000000 -0.000000  0.000000  0.000000
                                -0.000000  0.000000

   3.2   0     0.0981   -2.8720 -0.000000  0.000000 -0.000000  0.000000 -0.000002  0.000008 -0.000028  0.000090 -0.000268  0.000708
                                -0.001860  0.004909 -0.015366  0.047067 -0.788639 -0.153647 -0.146867  0.254745 -0.577829  2.032338
                                 0.844957  0.048480 -1.163137 -0.000000  0.000000 -0.000000  0.000000 -0.000000  0.000000 -0.000000
                                 0.000000  0.000000 -0.000000  0.000000  0.000000 -0.000000  0.000000 -0.000000  0.000000 -0.000000
                                -0.000000 -0.000000

                                   1 2py     1 2py     1 2py     1 2py     1 2py     1 2py     1 2py     1 2py     1 2py     1 2py  
                                   1 2py     1 2py     1 2py     1 2py     1 2py     1 2py     1 2py     1 2py     1 2py     1 2py  
                                   1 2py     1 2py     1 2py     1 4f1-    1 4f3-    1 4f1-    1 4f3-    1 4f1-    1 4f3-    1 4f1- 
                                   1 4f3-    1 4f1-    1 4f3-    1 6h1-    1 6h3-    1 6h5-    1 6h1-    1 6h3-    1 6h5-    1 6h1- 
                                   1 6h3-    1 6h5- 

   1.3   2    -2.4419  -17.0269  0.000000 -0.000000  0.000000 -0.000000  0.000002 -0.000009  0.000038 -0.000103  0.000374 -0.000889
                                 0.003012 -0.010510  0.054212 -0.125107 -0.517225  0.343286  0.286713  0.042436 -0.005002  0.002609
                                 0.374971  0.538277 -0.000801  0.000000 -0.000000 -0.000000  0.000000  0.000000 -0.000000 -0.000000
                                 0.000000 -0.000000  0.000000 -0.000000  0.000000 -0.000000  0.000000 -0.000000  0.000000 -0.000000
                                 0.000000  0.000000

   2.3   0     0.0273   -1.8321  0.000000 -0.000000  0.000000 -0.000000  0.000001 -0.000002  0.000008 -0.000027  0.000077 -0.000210
                                 0.000514 -0.001216  0.002569 -0.009715  0.312380  0.034371  0.033976 -0.073836  0.220338 -0.528945
                                -0.325345 -0.050644  1.308989  0.000000  0.000000  0.000000  0.000000  0.000000  0.000000  0.000000
                                 0.000000  0.000000 -0.000000  0.000000 -0.000000 -0.000000  0.000000  0.000000  0.000000 -0.000000
                                -0.000000 -0.000000

   3.3   0     0.0981   -2.8720 -0.000000  0.000000 -0.000000  0.000000 -0.000002  0.000008 -0.000028  0.000090 -0.000268  0.000708
                                -0.001860  0.004909 -0.015366  0.047067 -0.788639 -0.153647 -0.146867  0.254745 -0.577829  2.032338
                                 0.844957  0.048480 -1.163137  0.000000  0.000000  0.000000  0.000000  0.000000  0.000000  0.000000
                                 0.000000  0.000000 -0.000000  0.000000  0.000000 -0.000000 -0.000000 -0.000000  0.000000  0.000000
                                -0.000000 -0.000000

                                   1 3d2-    1 3d2-    1 3d2-    1 3d2-    1 3d2-    1 3d2-    1 3d2-    1 3d2-    1 3d2-    1 3d2- 
                                   1 3d2-    1 3d2-    1 3d2-    1 3d2-    1 3d2-    1 3d2-    1 3d2-    1 5g2-    1 5g4-    1 5g2- 
                                   1 5g4-    1 5g2-    1 5g4-    1 5g2-    1 5g4-    1 7i2-    1 7i6-    1 7i4-    1 7i2-    1 7i6- 
                                   1 7i4- 

   1.4   2    -0.3275  -11.1447  0.000000  0.000001  0.000010  0.000054  0.000212  0.000735  0.003080 -0.025784  0.043364  0.234398
                                 0.355944  0.326746  0.216321  0.076372  0.015982  0.011491  0.002751 -0.000000  0.000000  0.000000
                                -0.000000  0.000000 -0.000000  0.000000 -0.000000  0.000000  0.000000 -0.000000  0.000000  0.000000
                                 0.000000

   2.4   0     0.1009   -2.2242  0.000001 -0.000006  0.000032 -0.000136  0.000418 -0.001358  0.003454 -0.009590  0.057063  0.534348
                                 0.448265 -0.190305  0.186213 -0.476807 -0.398644 -0.605766  1.256188 -0.000000  0.000000  0.000000
                                -0.000000 -0.000000  0.000000  0.000000 -0.000000  0.000000 -0.000000  0.000000 -0.000000  0.000000
                                -0.000000

   3.4   0     0.3433   -3.3244 -0.000003  0.000019 -0.000106  0.000401 -0.001447  0.003901 -0.012712  0.045136 -0.207892 -1.857870
                                -1.672697  0.455104 -0.825665  1.896140  1.273754  1.966378 -0.890551 -0.000000  0.000000  0.000000
                                -0.000000 -0.000000  0.000000  0.000000 -0.000000 -0.000000 -0.000000  0.000000  0.000000  0.000000
                                -0.000000

                                   1 2pz     1 2pz     1 2pz     1 2pz     1 2pz     1 2pz     1 2pz     1 2pz     1 2pz     1 2pz  
                                   1 2pz     1 2pz     1 2pz     1 2pz     1 2pz     1 2pz     1 2pz     1 2pz     1 2pz     1 2pz  
                                   1 2pz     1 2pz     1 2pz     1 4f0     1 4f2+    1 4f0     1 4f2+    1 4f0     1 4f2+    1 4f0  
                                   1 4f2+    1 4f0     1 4f2+    1 6h2+    1 6h4+    1 6h0     1 6h2+    1 6h4+    1 6h0     1 6h2+ 
                                   1 6h4+    1 6h0  

   1.5   2    -2.4419  -17.0269  0.000000 -0.000000  0.000000 -0.000000  0.000002 -0.000009  0.000038 -0.000103  0.000374 -0.000889
                                 0.003012 -0.010510  0.054212 -0.125107 -0.517225  0.343286  0.286713  0.042436 -0.005002  0.002609
                                 0.374971  0.538277 -0.000801  0.000000 -0.000000  0.000000  0.000000  0.000000 -0.000000  0.000000
                                 0.000000 -0.000000  0.000000 -0.000000 -0.000000  0.000000  0.000000  0.000000 -0.000000 -0.000000
                                -0.000000  0.000000

   2.5   0     0.0273   -1.8321  0.000000 -0.000000  0.000000 -0.000000  0.000001 -0.000002  0.000008 -0.000027  0.000077 -0.000210
                                 0.000514 -0.001216  0.002569 -0.009715  0.312380  0.034371  0.033976 -0.073836  0.220338 -0.528945
                                -0.325345 -0.050644  1.308989 -0.000000  0.000000 -0.000000  0.000000 -0.000000  0.000000 -0.000000
                                 0.000000  0.000000 -0.000000 -0.000000 -0.000000 -0.000000  0.000000  0.000000  0.000000 -0.000000
                                -0.000000 -0.000000

   3.5   0     0.0981   -2.8720 -0.000000  0.000000 -0.000000  0.000000 -0.000002  0.000008 -0.000028  0.000090 -0.000268  0.000708
                                -0.001860  0.004909 -0.015366  0.047067 -0.788639 -0.153647 -0.146867  0.254745 -0.577829  2.032338
                                 0.844957  0.048480 -1.163137 -0.000000  0.000000 -0.000000  0.000000 -0.000000  0.000000 -0.000000
                                 0.000000  0.000000 -0.000000 -0.000000 -0.000000  0.000000  0.000000  0.000000 -0.000000 -0.000000
                                -0.000000  0.000000

                                   1 3d1+    1 3d1+    1 3d1+    1 3d1+    1 3d1+    1 3d1+    1 3d1+    1 3d1+    1 3d1+    1 3d1+ 
                                   1 3d1+    1 3d1+    1 3d1+    1 3d1+    1 3d1+    1 3d1+    1 3d1+    1 5g1+    1 5g3+    1 5g1+ 
                                   1 5g3+    1 5g1+    1 5g3+    1 5g1+    1 5g3+    1 7i5+    1 7i3+    1 7i1+    1 7i5+    1 7i3+ 
                                   1 7i1+ 

   1.6   2    -0.3275  -11.1447  0.000000  0.000001  0.000010  0.000054  0.000212  0.000735  0.003080 -0.025784  0.043364  0.234398
                                 0.355944  0.326746  0.216321  0.076372  0.015982  0.011491  0.002751 -0.000000  0.000000  0.000000
                                -0.000000  0.000000 -0.000000  0.000000 -0.000000  0.000000 -0.000000  0.000000  0.000000 -0.000000
                                 0.000000

   2.6   0     0.1009   -2.2242  0.000001 -0.000006  0.000032 -0.000136  0.000418 -0.001358  0.003454 -0.009590  0.057063  0.534348
                                 0.448265 -0.190305  0.186213 -0.476807 -0.398644 -0.605766  1.256188 -0.000000  0.000000  0.000000
                                -0.000000 -0.000000  0.000000  0.000000 -0.000000 -0.000000  0.000000 -0.000000  0.000000 -0.000000
                                 0.000000

   3.6   0     0.3433   -3.3244 -0.000003  0.000019 -0.000106  0.000401 -0.001447  0.003901 -0.012712  0.045136 -0.207892 -1.857870
                                -1.672697  0.455104 -0.825665  1.896140  1.273754  1.966378 -0.890551 -0.000000  0.000000  0.000000
                                -0.000000 -0.000000  0.000000  0.000000 -0.000000 -0.000000  0.000000 -0.000000  0.000000 -0.000000
                                 0.000000

                                   1 3d1-    1 3d1-    1 3d1-    1 3d1-    1 3d1-    1 3d1-    1 3d1-    1 3d1-    1 3d1-    1 3d1- 
                                   1 3d1-    1 3d1-    1 3d1-    1 3d1-    1 3d1-    1 3d1-    1 3d1-    1 5g1-    1 5g3-    1 5g1- 
                                   1 5g3-    1 5g1-    1 5g3-    1 5g1-    1 5g3-    1 7i5-    1 7i3-    1 7i1-    1 7i5-    1 7i3- 
                                   1 7i1- 

   1.7   2    -0.3275  -11.1447  0.000000  0.000001  0.000010  0.000054  0.000212  0.000735  0.003080 -0.025784  0.043364  0.234398
                                 0.355944  0.326746  0.216321  0.076372  0.015982  0.011491  0.002751 -0.000000  0.000000  0.000000
                                -0.000000  0.000000 -0.000000  0.000000 -0.000000  0.000000 -0.000000  0.000000  0.000000  0.000000
                                 0.000000

   2.7   0     0.1009   -2.2242  0.000001 -0.000006  0.000032 -0.000136  0.000418 -0.001358  0.003454 -0.009590  0.057063  0.534348
                                 0.448265 -0.190305  0.186213 -0.476807 -0.398644 -0.605766  1.256188  0.000000  0.000000  0.000000
                                -0.000000 -0.000000  0.000000  0.000000 -0.000000 -0.000000  0.000000  0.000000  0.000000 -0.000000
                                 0.000000

   3.7   0     0.3433   -3.3244 -0.000003  0.000019 -0.000106  0.000401 -0.001447  0.003901 -0.012712  0.045136 -0.207892 -1.857870
                                -1.672697  0.455104 -0.825665  1.896140  1.273754  1.966378 -0.890551  0.000000  0.000000 -0.000000
                                -0.000000  0.000000  0.000000 -0.000000 -0.000000 -0.000000  0.000000  0.000000  0.000000 -0.000000
                                 0.000000

                                   1 4f2-    1 4f2-    1 4f2-    1 4f2-    1 4f2-    1 6h4-    1 6h2-    1 6h4-    1 6h2-    1 6h4- 
                                   1 6h2- 

   1.8   0     0.5015   -3.3340  0.007315 -0.009338  0.083909 -0.215421  1.107289 -0.000000  0.000000  0.000000 -0.000000 -0.000000
                                 0.000000

   2.8   0     1.3624   -4.7290  0.019617  0.117889 -0.034262  1.233684 -0.621007 -0.000000  0.000000  0.000000 -0.000000 -0.000000
                                 0.000000

 HOMO      1.4    -0.327458 =      -8.9106eV
 LUMO      4.1     0.009263 =       0.2520eV
 LUMO-HOMO         0.336721 =       9.1626eV


 **********************************************************************************************************************************
 DATASETS  * FILE   NREC   LENGTH (MB)   RECORD NAMES
              1      19       20.65       500      610      700      900      950      970     1000      129      960     1100   
                                          VAR    BASINP    GEOM    SYMINP    ZMAT    AOBASIS   BASIS     P2S    ABASIS      S 
                                         1400     1410     1420     1200     1210     1080     1600     1650     1700   
                                           T        V       ECP      H0       H01     AOSYM     SMH    MOLCAS    OPER   

              2       5        5.70       200      700     1000      520     4202   
                                        OPTIONS   GEOM     BASIS   MCVARS     RHF  

 PROGRAMS   *        TOTAL       RHF       INT
 CPU TIMES  *        35.28      1.76     32.79
 REAL TIME  *        39.38 SEC
 DISK USED  *         2.26 GB      
 SF USED    *         0.06 MB      
 GA USED    *         0.00 MB       (max)       0.00 MB       (current)
 **********************************************************************************************************************************
 SETTING SCF(1)         =      -127.03286381  AU                              
 SETTING _CC_NORM_MAX   =         2.00000000                                  


 PROGRAM * CCSD (Restricted open-shell coupled cluster)     Authors: C. Hampel, H.-J. Werner, 1991, M. Deegan, P.J. Knowles, 1992


 Convergence thresholds:  THRVAR = 1.00D-08  THRDEN = 1.00D-06

 CCSD(T)     terms to be evaluated (factor= 1.000)


 Number of closed-shell orbitals:   9 (   3   1   1   1   1   1   1   0 )
 Number of external orbitals:     304 (  80  41  41  30  41  30  30  11 )

 Memory could be reduced to 61.01 Mwords without degradation in triples

 Number of N-1 electron functions:              18
 Number of N-2 electron functions:             153
 Number of singly external CSFs:               906
 Number of doubly external CSFs:           1373280
 Total number of CSFs:                     1374186

 Molecular orbitals read from record     4202.2  Type=RHF/CANONICAL (state 1.1)

 Integral transformation finished. Total CPU:   1.51 sec, npass=  1  Memory used:  10.89 MW

 Starting RMP2 calculation

 Wavefunction is spin-projected

 ITER.      SQ.NORM     CORR.ENERGY   TOTAL ENERGY   ENERGY CHANGE        DEN1      VAR(S)    VAR(P)  DIIS     TIME
   1      1.14881116    -0.83662333  -127.86948714    -0.83662333    -0.00140250  0.28D-11  0.53D-03  1  1     2.78
   2      1.15005088    -0.83810132  -127.87096514    -0.00147800    -0.00000377  0.11D-12  0.26D-05  2  2     5.12
   3      1.15012288    -0.83814391  -127.87100773    -0.00004259    -0.00000001  0.28D-14  0.11D-07  3  3     6.20
   4      1.15012484    -0.83814426  -127.87100808    -0.00000035    -0.00000000  0.62D-16  0.62D-10  4  4     9.58

 Norm of t1 vector:      0.00001038      S-energy:    -0.00000000      T1 diagnostic:  0.00000173
 Norm of t2 vector:      0.38745947      P-energy:    -0.83814426
                                         Alpha-Beta:  -0.58691488
                                         Alpha-Alpha: -0.12561469
                                         Beta-Beta:   -0.12561469

 Spin contamination <S**2-Sz**2-Sz>     0.00000000
  Reference energy                   -127.032863814879
  RHF-RMP2 correlation energy          -0.838144264728
 !RHF-RMP2 energy                    -127.871008079607
 (NB above energy spin projected)

 Starting RCCSD calculation

 ITER.      SQ.NORM     CORR.ENERGY   TOTAL ENERGY   ENERGY CHANGE        DEN1      VAR(S)    VAR(P)  DIIS     TIME
   1      1.11610829    -0.77372655  -127.80659037    -0.77372655    -0.01761464  0.19D-02  0.35D-02  1  1    11.58
   2      1.12387285    -0.78893643  -127.82180024    -0.01520988    -0.00085201  0.67D-04  0.30D-03  2  2    13.30
   3      1.12434002    -0.78878370  -127.82164752     0.00015273    -0.00008000  0.51D-04  0.17D-04  3  3    15.16
   4      1.12488589    -0.78900317  -127.82186698    -0.00021946    -0.00000789  0.28D-05  0.29D-05  4  4    16.94
   5      1.12520886    -0.78909498  -127.82195879    -0.00009181    -0.00000072  0.55D-06  0.23D-06  5  5    19.11
   6      1.12528277    -0.78910260  -127.82196642    -0.00000762    -0.00000009  0.30D-07  0.34D-07  6  6    21.20
   7      1.12530382    -0.78910267  -127.82196648    -0.00000007    -0.00000002  0.18D-07  0.23D-08  6  1    23.83
   8      1.12530849    -0.78910383  -127.82196765    -0.00000117    -0.00000000  0.17D-08  0.18D-09  6  2    25.56
   9      1.12530932    -0.78910319  -127.82196700     0.00000065    -0.00000000  0.25D-09  0.67D-10  6  3    27.60

 Norm of t1 vector:      0.04405214      S-energy:    -0.00000015      T1 diagnostic:  0.00734202
                                                                       D1 diagnostic:  0.01361894
 Norm of t2 vector:      0.35123885      P-energy:    -0.78910304
                                         Alpha-Beta:  -0.57236526
                                         Alpha-Alpha: -0.10836889
                                         Beta-Beta:   -0.10836889

 Spin contamination <S**2-Sz**2-Sz>     0.00000000

 Memory could be reduced to 62.09 Mwords without degradation in triples
 

  Correlated core orbitals:             1.1       1.2       1.3       1.5
  Orbital energies:                    -3.8928   -2.4419   -2.4419   -2.4419
 
  RCCSD core-core energy               -0.122283646312
  RCCSD core-valence energy            -0.292251106822
  RCCSD valence correlation energy     -0.374568433220
 

 RESULTS
 =======

  Reference energy                   -127.032863814879
  RCCSD singles energy                 -0.000000150275
  RCCSD pair energy                    -0.789103036079
  RCCSD correlation energy             -0.789103186354
  Triples (T) contribution             -0.033444862067
  Total correlation energy             -0.822548048422
 
  RHF-RCCSD energy                   -127.821967001233
  RHF-RCCSD[T] energy                -127.856242570522
  RHF-RCCSD-T energy                 -127.855321725362
 !RHF-RCCSD(T) energy                -127.855411863300

 Program statistics:

 Available memory in ccsd:               511999162
 Min. memory needed in ccsd:               4090972
 Max. memory used in ccsd:                 5761543
 Max. memory used in cckext:               4393063 ( 9 integral passes)
 Max. memory used in cckint:              10891406 ( 1 integral passes)



 **********************************************************************************************************************************
 DATASETS  * FILE   NREC   LENGTH (MB)   RECORD NAMES
              1      19       20.65       500      610      700      900      950      970     1000      129      960     1100   
                                          VAR    BASINP    GEOM    SYMINP    ZMAT    AOBASIS   BASIS     P2S    ABASIS      S 
                                         1400     1410     1420     1200     1210     1080     1600     1650     1700   
                                           T        V       ECP      H0       H01     AOSYM     SMH    MOLCAS    OPER   

              2       5        5.70       200      700     1000      520     4202   
                                        OPTIONS   GEOM     BASIS   MCVARS     RHF  

 PROGRAMS   *        TOTAL  RCCSD(T)       RHF       INT
 CPU TIMES  *        79.00     43.72      1.76     32.79
 REAL TIME  *       117.97 SEC
 DISK USED  *         6.19 GB      
 SF USED    *       917.24 MB      
 GA USED    *         0.00 MB       (max)       0.00 MB       (current)
 **********************************************************************************************************************************
 SETTING CCSD(1)        =      -127.85541186  AU                              

 DO I                   =         2.00000000   

 Running procedure=EAS2D9


 PROGRAM * RHF-SCF (OPEN SHELL)       Authors: W. Meyer, H.-J. Werner


 NUMBER OF ELECTRONS:      10+    9-    SPACE SYMMETRY=1    SPIN SYMMETRY: Doublet 
 CONVERGENCE THRESHOLDS:    1.00E-05 (Density)    1.00E-07 (Energy)
 MAX. NUMBER OF ITERATIONS:       60
 INTERPOLATION TYPE:            DIIS
 INTERPOLATION STEPS:              2 (START)      1 (STEP)
 LEVEL SHIFTS:                 -0.60 (CLOSED) -0.30 (OPEN) 

 Number of closed-shell orbitals:    9 (   3   1   1   1   1   1   1   0 )
 Number of open-shell orbitals:      1 (   1   0   0   0   0   0   0   0 )


 
 Extra symmetries of mos in symmetry 1:   1   1   3   2
 Orbital guess generated from atomic densities. Full valence occupancy:    4   1   1   1   1   1   1   0


 Molecular orbital dump at record        4202.2

 ITERATION    DDIFF          GRAD             ENERGY        2-EL.EN.            DIPOLE MOMENTS         DIIS   ORB.
    1      0.000D+00      0.000D+00      -127.01463841    207.711141    0.00000    0.00000    0.00000    0    start
    2      0.000D+00      0.401D-02      -127.02239438    206.982978    0.00000    0.00000    0.00000    1    diag,B
    3      0.200D-02      0.128D-02      -127.02539575    206.649216    0.00000    0.00000    0.00000    2    diag,B
    4      0.156D-02      0.851D-03      -127.02783532    206.218592    0.00000    0.00000    0.00000    3    diag,B
    5      0.156D-02      0.609D-03      -127.02979128    205.835742    0.00000    0.00000    0.00000    4    diag,B
    6      0.169D-02      0.412D-03      -127.03088922    205.497942    0.00000    0.00000    0.00000    5    diag,B
    7      0.180D-02      0.275D-03      -127.03157399    205.255253    0.00000    0.00000    0.00000    6    fixocc
    8      0.337D-02      0.150D-03      -127.03178779    205.095301    0.00000    0.00000    0.00000    7    diag,B
    9      0.326D-02      0.637D-04      -127.03181584    205.050277    0.00000    0.00000    0.00000    8    diag,B
   10      0.155D-02      0.205D-04      -127.03181812    205.029189    0.00000    0.00000    0.00000    9    orth
   11      0.323D-03      0.107D-04      -127.03181874    205.035951    0.00000    0.00000    0.00000    9    diag,B
   12      0.490D-04      0.824D-05      -127.03181923    205.033027    0.00000    0.00000    0.00000    9    diag,B
   13      0.344D-04      0.797D-05      -127.03181959    205.033634    0.00000    0.00000    0.00000    9    diag,B
   14      0.631D-05      0.794D-05      -127.03182001    205.033629    0.00000    0.00000    0.00000    9    diag,B
   15      0.289D-05      0.794D-05      -127.03181986    205.033543    0.00000    0.00000    0.00000    9    diag,B
   16      0.107D-05      0.793D-05      -127.03181931    205.033378    0.00000    0.00000    0.00000    9    diag,B
   17      0.366D-05      0.792D-05      -127.03181073    205.033776    0.00000    0.00000    0.00000    9    diag,B
   18      0.570D-04      0.776D-05      -127.03180860    205.033887    0.00000    0.00000    0.00000    9    diag,B
   19      0.146D-04      0.766D-05      -127.03177509    205.034166    0.00000    0.00000    0.00000    9    diag,B
   20      0.261D-03      0.245D-04      -127.03177540    205.033966    0.00000    0.00000    0.00000    9    orth
   21      0.433D-05      0.247D-04      -127.03177452    205.034962    0.00000    0.00000    0.00000    9    diag,B
   22      0.201D-04      0.243D-04      -127.03177436    205.034992    0.00000    0.00000    0.00000    9    diag,B
   23      0.289D-05      0.247D-04      -127.03177532    205.033784    0.00000    0.00000    0.00000    9    diag,B
   24      0.275D-04      0.248D-04      -127.03177485    205.034597    0.00000    0.00000    0.00000    9    diag,B
   25      0.196D-04      0.246D-04      -127.03177521    205.034261    0.00000    0.00000    0.00000    9    diag,B
   26      0.773D-05      0.247D-04      -127.03177443    205.034856    0.00000    0.00000    0.00000    9    diag,B
   27      0.143D-04      0.247D-04      -127.03177411    205.034951    0.00000    0.00000    0.00000    9    diag,B
   28      0.372D-05      0.247D-04      -127.03177045    205.035352    0.00000    0.00000    0.00000    9    diag,B
   29      0.373D-04      0.248D-04      -127.03176389    205.035036    0.00000    0.00000    0.00000    9    diag,B
   30      0.722D-04      0.252D-04      -127.03176136    205.033364    0.00000    0.00000    0.00000    9    orth
   31      0.491D-04      0.196D-04      -127.03175621    205.030697    0.00000    0.00000    0.00000    9    diag,B
   32      0.930D-04      0.179D-04      -127.03176548    205.032038    0.00000    0.00000    0.00000    9    diag,B
   33      0.124D-03      0.123D-04      -127.03176664    205.033249    0.00000    0.00000    0.00000    9    diag,B
   34      0.317D-04      0.267D-04      -127.03175429    205.030264    0.00000    0.00000    0.00000    9    diag,B
   35      0.176D-03      0.271D-04      -127.03176460    205.032784    0.00000    0.00000    0.00000    9    diag,B
   36      0.151D-03      0.135D-04      -127.03175412    205.033437    0.00000    0.00000    0.00000    9    diag,B
   37      0.147D-03      0.371D-04      -127.03175385    205.031274    0.00000    0.00000    0.00000    9    diag,B
   38      0.475D-04      0.311D-04      -127.03176530    205.031094    0.00000    0.00000    0.00000    9    diag,B
   39      0.161D-03      0.144D-04      -127.03176474    205.031346    0.00000    0.00000    0.00000    9    diag,B
   40      0.101D-04      0.260D-04      -127.03175606    205.030246    0.00000    0.00000    0.00000    9    orth
   41      0.119D-03      0.251D-04      -127.03175935    205.033077    0.00000    0.00000    0.00000    9    diag,B
   42      0.704D-04      0.973D-05      -127.03174786    205.032726    0.00000    0.00000    0.00000    9    diag,B
   43      0.255D-03      0.443D-04      -127.03174872    205.031529    0.00000    0.00000    0.00000    9    diag,B
   44      0.534D-04      0.417D-04      -127.03177542    205.033446    0.00000    0.00000    0.00000    9    diag,B
   45      0.393D-03      0.275D-04      -127.03177233    205.034080    0.00000    0.00000    0.00000    9    diag,B
   46      0.333D-04      0.205D-04      -127.03175505    205.034989    0.00000    0.00000    0.00000    9    diag,B
   47      0.216D-03      0.304D-04      -127.03177409    205.034294    0.00000    0.00000    0.00000    9    diag,B
   48      0.233D-03      0.231D-04      -127.03177046    205.034499    0.00000    0.00000    0.00000    9    diag,B
   49      0.368D-04      0.191D-04      -127.03175053    205.034242    0.00000    0.00000    0.00000    9    diag,B
   50      0.285D-03      0.419D-04      -127.03177466    205.034188    0.00000    0.00000    0.00000    9    orth
   51      0.328D-03      0.293D-04      -127.03177335    205.034134    0.00000    0.00000    0.00000    9    diag,B
   52      0.142D-04      0.222D-04      -127.03175830    205.033831    0.00000    0.00000    0.00000    9    diag,B
   53      0.174D-03      0.252D-04      -127.03176622    205.034295    0.00000    0.00000    0.00000    9    diag,B
   54      0.989D-04      0.158D-04      -127.03175913    205.034200    0.00000    0.00000    0.00000    9    diag,B
   55      0.848D-04      0.346D-04      -127.03175205    205.033797    0.00000    0.00000    0.00000    9    diag,B
   56      0.122D-03      0.344D-04      -127.03176961    205.034320    0.00000    0.00000    0.00000    9    diag,B
   57      0.242D-03      0.148D-04      -127.03176685    205.034353    0.00000    0.00000    0.00000    9    diag,B
   58      0.281D-04      0.291D-04      -127.03175388    205.033825    0.00000    0.00000    0.00000    9    diag,B
   59      0.179D-03      0.301D-04      -127.03176615    205.034225    0.00000    0.00000    0.00000    9    orth
   60      0.170D-03      0.143D-04      -127.03176051    205.035262    0.00000    0.00000    0.00000    0    orth

 Final alpha occupancy:   4   1   1   1   1   1   1   0
 Final beta  occupancy:   3   1   1   1   1   1   1   0

 !RHF STATE 1.1 Energy               -127.031760512895
 Nuclear energy                         0.00000000
 One-electron energy                 -229.54939136
 Two-electron energy                  102.51763085
 Virial quotient                       -2.61976987
 !RHF STATE 1.1 Dipole moment           0.00000000     0.00000000     0.00000000
 Dipole moment /Debye                   0.00000000     0.00000000     0.00000000

 ELECTRON ORBITALS
 =================


   Orb  Occ    Energy  Couls-En    Coefficients

                                   1 1s      1 1s      1 1s      1 1s      1 1s      1 1s      1 1s      1 1s      1 1s      1 1s   
                                   1 1s      1 1s      1 1s      1 1s      1 1s      1 1s      1 1s      1 1s      1 1s      1 1s   
                                   1 1s      1 1s      1 1s      1 1s      1 1s      1 1s      1 1s      1 1s      1 1s      1 3d0  
                                   1 3d2+    1 3d0     1 3d2+    1 3d0     1 3d2+    1 3d0     1 3d2+    1 3d0     1 3d2+    1 3d0  
                                   1 3d2+    1 3d0     1 3d2+    1 3d0     1 3d2+    1 3d0     1 3d2+    1 3d0     1 3d2+    1 3d0  
                                   1 3d2+    1 3d0     1 3d2+    1 3d0     1 3d2+    1 3d0     1 3d2+    1 3d0     1 3d2+    1 3d0  
                                   1 3d2+    1 3d0     1 3d2+    1 5g0     1 5g4+    1 5g2+    1 5g0     1 5g4+    1 5g2+    1 5g0  
                                   1 5g4+    1 5g2+    1 5g0     1 5g4+    1 5g2+    1 7i6+    1 7i4+    1 7i2+    1 7i0     1 7i6+ 
                                   1 7i4+    1 7i2+    1 7i0  

   1.1   2    -3.8509  -20.2053  0.000000  0.000000 -0.000000  0.000000 -0.000000  0.000000 -0.000001  0.000004 -0.000006  0.000030
                                -0.000049  0.000207 -0.000345  0.001255 -0.002486  0.007232 -0.016058  0.003930  0.257562 -0.780614
                                -0.183369  0.914467  0.513722  0.028335 -0.012065  0.004848  0.139276 -0.061382 -0.001274  0.000000
                                -0.000000 -0.000000  0.000000  0.000000 -0.000000 -0.000000  0.000000  0.000002 -0.000003  0.000000
                                 0.000003  0.000021 -0.000045 -0.000123  0.000221  0.000080 -0.000014  0.001058 -0.001848  0.001051
                                -0.001232  0.000428  0.000321  0.000174  0.000296  0.000051  0.000025  0.000200 -0.000473  0.000355
                                -0.000921 -0.000001  0.000006 -0.000132 -0.000057 -0.000115 -0.000441 -0.000197 -0.000378 -0.000423
                                -0.000194 -0.000359 -0.000016 -0.000009 -0.000015 -0.000001 -0.000001 -0.000000  0.000001  0.000001
                                 0.000001  0.000001  0.000000

   2.1   2    -0.0218   -4.7750 -0.000000 -0.000000  0.000000 -0.000000  0.000000 -0.000000  0.000000 -0.000001  0.000001 -0.000007
                                 0.000011 -0.000046  0.000078 -0.000280  0.000563 -0.001639  0.003767 -0.002453 -0.050125  0.166700
                                 0.021085 -0.218469 -0.198690  0.076838  0.391125  0.210835 -0.022180 -0.004557  0.489114 -0.000000
                                 0.000000 -0.000000  0.000000 -0.000000  0.000000 -0.000000  0.000001 -0.000000  0.000004 -0.000002
                                 0.000016 -0.000006  0.000064  0.000050 -0.000542 -0.000053  0.000801 -0.000279  0.004425 -0.000428
                                 0.006847  0.000072  0.004800  0.001508 -0.001691  0.001569 -0.003828 -0.000246  0.000965 -0.000364
                                 0.001259  0.001489 -0.004160 -0.000088 -0.000060 -0.000069 -0.000157 -0.000120 -0.000125  0.000038
                                -0.000017  0.000032  0.000223  0.000110  0.000169  0.000005  0.000006  0.000006  0.000003  0.000001
                                 0.000002  0.000003  0.000003

   3.1   2    -0.2497  -11.2824  0.000000  0.000000 -0.000000  0.000000 -0.000000  0.000000 -0.000000  0.000000 -0.000000  0.000000
                                -0.000001  0.000003 -0.000006  0.000018 -0.000038  0.000108 -0.000250  0.000248  0.002371 -0.007383
                                 0.004570  0.003079  0.000218 -0.010245 -0.003503 -0.001619 -0.003486  0.011446  0.000240 -0.000000
                                 0.000000 -0.000001  0.000001 -0.000006  0.000008 -0.000033  0.000047 -0.000125  0.000176 -0.000448
                                 0.000634 -0.001820  0.002578  0.015372 -0.021780 -0.025892  0.036688 -0.138569  0.196330 -0.211888
                                 0.300227 -0.191149  0.270902 -0.109615  0.155429 -0.030934  0.043912 -0.010925  0.015481 -0.008786
                                 0.012446 -0.001704  0.002431 -0.000147 -0.000692  0.000616 -0.000556 -0.001797  0.001440 -0.000341
                                -0.001726  0.001558 -0.000037 -0.000748  0.000779  0.000138  0.000123  0.000020 -0.000141  0.000119
                                 0.000100  0.000019 -0.000119

   4.1   +    -0.3311  -11.5078 -0.000000  0.000000 -0.000000  0.000000 -0.000000  0.000000 -0.000000  0.000000 -0.000000  0.000000
                                -0.000000  0.000001 -0.000003  0.000009 -0.000019  0.000053 -0.000126  0.000170  0.000779 -0.002431
                                 0.004242 -0.001522 -0.002109 -0.006877 -0.002132 -0.001306 -0.003330  0.009112 -0.001150  0.000000
                                 0.000000  0.000001  0.000001  0.000009  0.000006  0.000048  0.000034  0.000181  0.000128  0.000640
                                 0.000451  0.002645  0.001865 -0.022195 -0.015649  0.036843  0.025977  0.201752  0.142237  0.310033
                                 0.218663  0.272764  0.192502  0.139748  0.098665  0.030179  0.021300  0.015029  0.010599  0.012439
                                 0.008761  0.000776  0.000559  0.000345 -0.000997 -0.000693  0.000919 -0.002754 -0.001928  0.000727
                                -0.002251 -0.001584  0.000232 -0.000713 -0.000501  0.000208  0.000359  0.000660  0.000679  0.000172
                                 0.000280  0.000503  0.000525

   5.1   0     0.1373   -2.1210  0.000000 -0.000000  0.000000 -0.000000  0.000000 -0.000000  0.000000 -0.000001  0.000005 -0.000012
                                 0.000034 -0.000080  0.000224 -0.000516  0.001335 -0.003091  0.007534 -0.022102  0.091001 -0.399581
                                -0.922388  1.533331  0.775481 -0.790025  1.659996 -3.517910  0.858587 -1.610045  2.663728  0.000000
                                -0.000000 -0.000000  0.000000  0.000000 -0.000000 -0.000000 -0.000000  0.000001 -0.000004 -0.000000
                                -0.000002  0.000012 -0.000045 -0.000074  0.000304  0.000165 -0.000622  0.001274 -0.004509  0.001295
                                -0.005034 -0.000095 -0.000812 -0.000578  0.001169 -0.001000  0.002788 -0.000436  0.001209 -0.000669
                                 0.001880  0.000115 -0.000271  0.000099  0.000054  0.000078 -0.000045 -0.000001 -0.000047 -0.000479
                                -0.000211 -0.000402 -0.000407 -0.000193 -0.000333 -0.000004 -0.000004 -0.000003  0.000000  0.000003
                                 0.000003  0.000002 -0.000002

   6.1   0     0.2167   -2.0483  0.000000 -0.000000  0.000000 -0.000000  0.000000 -0.000000  0.000000 -0.000000  0.000000 -0.000000
                                 0.000000 -0.000000  0.000001 -0.000002  0.000005 -0.000012  0.000029 -0.000045 -0.000104  0.000219
                                -0.001246  0.001149  0.000374 -0.000156  0.003175 -0.001666  0.001126 -0.002400  0.001011  0.000001
                                 0.000001 -0.000007 -0.000005  0.000034  0.000024 -0.000139 -0.000098  0.000445  0.000314 -0.001386
                                -0.000978  0.003737  0.002637 -0.011126 -0.007852  0.061473  0.043381  0.567479  0.400466  0.481799
                                 0.340002 -0.182945 -0.129110  0.205035  0.144668 -0.454560 -0.320796 -0.415269 -0.293045 -0.630794
                                -0.445134  1.054726  0.744296 -0.000022  0.000062  0.000043 -0.000040  0.000121  0.000085 -0.000056
                                 0.000177  0.000125  0.000141 -0.000402 -0.000278 -0.000013 -0.000023 -0.000041 -0.000043 -0.000002
                                -0.000003 -0.000005 -0.000006

                                   1 2px     1 2px     1 2px     1 2px     1 2px     1 2px     1 2px     1 2px     1 2px     1 2px  
                                   1 2px     1 2px     1 2px     1 2px     1 2px     1 2px     1 2px     1 2px     1 2px     1 2px  
                                   1 2px     1 2px     1 2px     1 4f1+    1 4f3+    1 4f1+    1 4f3+    1 4f1+    1 4f3+    1 4f1+ 
                                   1 4f3+    1 4f1+    1 4f3+    1 6h1+    1 6h3+    1 6h5+    1 6h1+    1 6h3+    1 6h5+    1 6h1+ 
                                   1 6h3+    1 6h5+ 

   1.2   2    -2.3830  -16.9901  0.000000 -0.000000  0.000000 -0.000000  0.000002 -0.000009  0.000038 -0.000102  0.000372 -0.000882
                                 0.002999 -0.010496  0.054364 -0.125465 -0.533182  0.343867  0.280247  0.037996 -0.003798  0.002506
                                 0.391098  0.545469 -0.000663  0.000263 -0.000628  0.001228 -0.002592  0.001118 -0.002648 -0.000080
                                -0.000144  0.000025 -0.000063  0.000123  0.000139  0.000113  0.000013  0.000010  0.000015 -0.000036
                                -0.000042 -0.000032

   2.2   0     0.1166   -1.5758  0.000000 -0.000000  0.000000 -0.000000  0.000001 -0.000005  0.000017 -0.000054  0.000155 -0.000417
                                 0.001044 -0.002561  0.006304 -0.021843  0.572326  0.074747  0.071785 -0.140202  0.388677 -0.891379
                                -0.600245 -0.078410  1.489119 -0.000005  0.000008 -0.000039  0.000061  0.000018 -0.000031  0.000063
                                -0.000095  0.000511 -0.000856 -0.000006 -0.000007 -0.000005  0.000003  0.000004  0.000003  0.000037
                                 0.000041  0.000034

   3.2   0     0.2124   -2.8990 -0.000000  0.000000 -0.000000  0.000000 -0.000002  0.000009 -0.000035  0.000112 -0.000333  0.000881
                                -0.002303  0.006038 -0.018547  0.057374 -1.003841 -0.187874 -0.179369  0.325047 -0.649404  2.005442
                                 1.072739  0.069495 -0.983747 -0.000025  0.000038 -0.000185  0.000283  0.000081 -0.000151  0.000547
                                -0.000870  0.002477 -0.004158 -0.000031 -0.000036 -0.000027  0.000021  0.000024  0.000019  0.000198
                                 0.000218  0.000181

                                   1 2py     1 2py     1 2py     1 2py     1 2py     1 2py     1 2py     1 2py     1 2py     1 2py  
                                   1 2py     1 2py     1 2py     1 2py     1 2py     1 2py     1 2py     1 2py     1 2py     1 2py  
                                   1 2py     1 2py     1 2py     1 4f1-    1 4f3-    1 4f1-    1 4f3-    1 4f1-    1 4f3-    1 4f1- 
                                   1 4f3-    1 4f1-    1 4f3-    1 6h1-    1 6h3-    1 6h5-    1 6h1-    1 6h3-    1 6h5-    1 6h1- 
                                   1 6h3-    1 6h5- 

   1.3   2    -2.3892  -17.0056  0.000000 -0.000000  0.000000 -0.000000  0.000002 -0.000009  0.000038 -0.000102  0.000371 -0.000880
                                 0.002995 -0.010492  0.054365 -0.125226 -0.538609  0.343883  0.277976  0.035456 -0.003798  0.002353
                                 0.395833  0.549099 -0.000627  0.001013  0.000073  0.002767 -0.000718  0.004171  0.000238  0.001605
                                 0.001009  0.000126  0.000023  0.000267  0.000170  0.000108  0.000022  0.000009  0.000008 -0.000079
                                -0.000052 -0.000033

   2.3   0     0.1161   -1.5880  0.000000 -0.000000  0.000000 -0.000000  0.000001 -0.000004  0.000016 -0.000053  0.000153 -0.000410
                                 0.001025 -0.002510  0.006125 -0.021333  0.566540  0.073163  0.070466 -0.137030  0.387871 -0.876508
                                -0.593874 -0.078888  1.480913  0.000003  0.000011  0.000036  0.000094 -0.000004 -0.000041 -0.000097
                                -0.000197 -0.000128 -0.001038 -0.000014 -0.000009 -0.000006  0.000009  0.000006  0.000004  0.000086
                                 0.000057  0.000039

   3.3   0     0.2087   -2.9550 -0.000000  0.000000 -0.000000  0.000000 -0.000002  0.000009 -0.000034  0.000109 -0.000325  0.000857
                                -0.002248  0.005917 -0.018381  0.056546 -0.964445 -0.184876 -0.175910  0.323168 -0.607699  1.970858
                                 1.032253  0.060632 -0.984119  0.000015  0.000052  0.000174  0.000436 -0.000034 -0.000197 -0.000607
                                -0.001467 -0.000709 -0.004926 -0.000072 -0.000047 -0.000030  0.000056  0.000039  0.000027  0.000446
                                 0.000294  0.000203

                                   1 3d2-    1 3d2-    1 3d2-    1 3d2-    1 3d2-    1 3d2-    1 3d2-    1 3d2-    1 3d2-    1 3d2- 
                                   1 3d2-    1 3d2-    1 3d2-    1 3d2-    1 3d2-    1 3d2-    1 3d2-    1 5g2-    1 5g4-    1 5g2- 
                                   1 5g4-    1 5g2-    1 5g4-    1 5g2-    1 5g4-    1 7i2-    1 7i6-    1 7i4-    1 7i2-    1 7i6- 
                                   1 7i4- 

   1.4   2    -0.2630  -11.3211  0.000000  0.000002  0.000010  0.000058  0.000217  0.000779  0.003170 -0.026763  0.044995  0.241225
                                 0.369119  0.332065  0.187286  0.050695  0.019116  0.015470  0.002447  0.000295 -0.000804  0.000653
                                -0.002137  0.000757 -0.001970  0.000395 -0.000795  0.000189  0.000170  0.000202  0.000156  0.000144
                                 0.000164

   2.4   0     0.2175   -2.0482  0.000001 -0.000008  0.000041 -0.000173  0.000548 -0.001716  0.004591 -0.013537  0.075508  0.698463
                                 0.591859 -0.228247  0.250081 -0.564370 -0.512534 -0.778283  1.294558  0.000001  0.000097  0.000018
                                 0.000184 -0.000021  0.000293  0.000048 -0.000585 -0.000026 -0.000024 -0.000028 -0.000006 -0.000006
                                -0.000007

   3.4   0     0.4812   -3.1760 -0.000003  0.000020 -0.000109  0.000415 -0.001485  0.004043 -0.013014  0.045778 -0.213087 -1.907042
                                -1.709493  0.475446 -0.796997  1.867286  1.312912  2.023011 -0.838053  0.000005  0.000393  0.000075
                                 0.000658 -0.000100  0.001093  0.000254 -0.003866 -0.000112 -0.000103 -0.000120  0.000014  0.000012
                                 0.000015

                                   1 2pz     1 2pz     1 2pz     1 2pz     1 2pz     1 2pz     1 2pz     1 2pz     1 2pz     1 2pz  
                                   1 2pz     1 2pz     1 2pz     1 2pz     1 2pz     1 2pz     1 2pz     1 2pz     1 2pz     1 2pz  
                                   1 2pz     1 2pz     1 2pz     1 4f0     1 4f2+    1 4f0     1 4f2+    1 4f0     1 4f2+    1 4f0  
                                   1 4f2+    1 4f0     1 4f2+    1 6h2+    1 6h4+    1 6h0     1 6h2+    1 6h4+    1 6h0     1 6h2+ 
                                   1 6h4+    1 6h0  

   1.5   2    -2.3882  -17.0026  0.000000 -0.000000  0.000000 -0.000000  0.000002 -0.000009  0.000038 -0.000102  0.000371 -0.000880
                                 0.002996 -0.010492  0.054364 -0.125270 -0.537577  0.343873  0.278402  0.035943 -0.003793  0.002382
                                 0.394937  0.548403 -0.000634 -0.000675 -0.000933 -0.001450 -0.003244 -0.002749 -0.003889 -0.001451
                                -0.000802 -0.000089 -0.000105  0.000193  0.000073  0.000251  0.000016  0.000012  0.000020 -0.000057
                                -0.000020 -0.000075

   2.5   0     0.1162   -1.5855  0.000000 -0.000000  0.000000 -0.000000  0.000001 -0.000004  0.000016 -0.000053  0.000153 -0.000412
                                 0.001029 -0.002520  0.006161 -0.021435  0.567665  0.073480  0.070729 -0.137689  0.388011 -0.879448
                                -0.595117 -0.078779  1.482552 -0.000007  0.000005 -0.000063  0.000035  0.000017 -0.000027  0.000138
                                -0.000053  0.000520 -0.000654 -0.000010 -0.000003 -0.000013  0.000006  0.000002  0.000008  0.000059
                                 0.000022  0.000081

   3.5   0     0.2094   -2.9433 -0.000000  0.000000 -0.000000  0.000000 -0.000002  0.000009 -0.000035  0.000110 -0.000326  0.000862
                                -0.002259  0.005941 -0.018412  0.056707 -0.972422 -0.185469 -0.176604  0.323414 -0.616108  1.977993
                                 1.040446  0.062464 -0.984129 -0.000035  0.000023 -0.000300  0.000156  0.000084 -0.000123  0.000959
                                -0.000519  0.002519 -0.003046 -0.000051 -0.000018 -0.000067  0.000037  0.000013  0.000052  0.000306
                                 0.000114  0.000421

                                   1 3d1+    1 3d1+    1 3d1+    1 3d1+    1 3d1+    1 3d1+    1 3d1+    1 3d1+    1 3d1+    1 3d1+ 
                                   1 3d1+    1 3d1+    1 3d1+    1 3d1+    1 3d1+    1 3d1+    1 3d1+    1 5g1+    1 5g3+    1 5g1+ 
                                   1 5g3+    1 5g1+    1 5g3+    1 5g1+    1 5g3+    1 7i5+    1 7i3+    1 7i1+    1 7i5+    1 7i3+ 
                                   1 7i1+ 

   1.6   2    -0.2568  -11.3038  0.000000  0.000002  0.000010  0.000058  0.000216  0.000778  0.003164 -0.026719  0.044961  0.240845
                                 0.368402  0.331827  0.188604  0.052052  0.019037  0.015362  0.002681  0.000427 -0.000707  0.001200
                                -0.001709  0.001037 -0.001779  0.000383 -0.000841  0.000097  0.000197  0.000195  0.000083  0.000161
                                 0.000163

   2.6   0     0.2176   -2.0481  0.000001 -0.000008  0.000041 -0.000173  0.000549 -0.001719  0.004594 -0.013535  0.075565  0.699108
                                 0.592288 -0.228745  0.250101 -0.565403 -0.513143 -0.779185  1.295018 -0.000070  0.000039 -0.000141
                                 0.000054 -0.000199  0.000149  0.000389 -0.000298 -0.000014 -0.000028 -0.000028 -0.000003 -0.000007
                                -0.000007

   3.6   0     0.4819   -3.1779 -0.000003  0.000020 -0.000110  0.000416 -0.001489  0.004051 -0.013044  0.045896 -0.213580 -1.911302
                                -1.713411  0.476191 -0.799672  1.868334  1.315715  2.027351 -0.837732 -0.000283  0.000155 -0.000507
                                 0.000175 -0.000729  0.000582  0.002599 -0.001913 -0.000057 -0.000117 -0.000118  0.000007  0.000014
                                 0.000013

                                   1 3d1-    1 3d1-    1 3d1-    1 3d1-    1 3d1-    1 3d1-    1 3d1-    1 3d1-    1 3d1-    1 3d1- 
                                   1 3d1-    1 3d1-    1 3d1-    1 3d1-    1 3d1-    1 3d1-    1 3d1-    1 5g1-    1 5g3-    1 5g1- 
                                   1 5g3-    1 5g1-    1 5g3-    1 5g1-    1 5g3-    1 7i5-    1 7i3-    1 7i1-    1 7i5-    1 7i3- 
                                   1 7i1- 

   1.7   2    -0.2891  -11.3924  0.000000  0.000002  0.000010  0.000058  0.000218  0.000782  0.003194 -0.026948  0.045142  0.242869
                                 0.372158  0.332945  0.181732  0.045245  0.019384  0.015839  0.001676  0.000072 -0.000630  0.000165
                                -0.001595  0.000183 -0.001533  0.000089 -0.000633  0.000099  0.000245  0.000431  0.000081  0.000195
                                 0.000345

   2.7   0     0.2170   -2.0488  0.000001 -0.000008  0.000041 -0.000172  0.000546 -0.001706  0.004576 -0.013540  0.075264  0.695756
                                 0.590019 -0.226255  0.249947 -0.560097 -0.510038 -0.774582  1.292634 -0.000001  0.000054  0.000001
                                 0.000091 -0.000007  0.000175  0.000019 -0.000377 -0.000013 -0.000033 -0.000058 -0.000003 -0.000006
                                -0.000011

   3.7   0     0.4786   -3.1688 -0.000003  0.000020 -0.000108  0.000411 -0.001471  0.004010 -0.012889  0.045297 -0.211070 -1.889624
                                -1.693449  0.472428 -0.786050  1.862947  1.301423  2.005221 -0.839415 -0.000005  0.000221  0.000007
                                 0.000329 -0.000033  0.000666  0.000099 -0.002408 -0.000057 -0.000142 -0.000250  0.000009  0.000023
                                 0.000041

                                   1 4f2-    1 4f2-    1 4f2-    1 4f2-    1 4f2-    1 6h4-    1 6h2-    1 6h4-    1 6h2-    1 6h4- 
                                   1 6h2- 

   1.8   0     0.6575   -3.1906  0.007690 -0.008492  0.085877 -0.208893  1.103696 -0.000098  0.000035  0.000148 -0.000052 -0.001462
                                 0.000515

   2.8   0     1.4848   -4.6921  0.023034  0.121071 -0.007785  1.210615 -0.619812 -0.000337  0.000120 -0.000993  0.000350 -0.004844
                                 0.001695

 HOMO      1.6    -0.256774 =      -6.9872eV
 LUMO      2.3     0.116113 =       3.1596eV
 LUMO-HOMO         0.372887 =      10.1468eV

 No convergence



 **********************************************************************************************************************************
 DATASETS  * FILE   NREC   LENGTH (MB)   RECORD NAMES
              1      19       20.65       500      610      700      900      950      970     1000      129      960     1100   
                                          VAR    BASINP    GEOM    SYMINP    ZMAT    AOBASIS   BASIS     P2S    ABASIS      S 
                                         1400     1410     1420     1200     1210     1080     1600     1650     1700   
                                           T        V       ECP      H0       H01     AOSYM     SMH    MOLCAS    OPER   

              2       5        5.82       200      700     1000      520     4202   
                                        OPTIONS   GEOM     BASIS   MCVARS     RHF  

 PROGRAMS   *        TOTAL       RHF  RCCSD(T)       RHF       INT
 CPU TIMES  *        93.78     14.63     43.72      1.76     32.79
 REAL TIME  *       134.59 SEC
 DISK USED  *         6.19 GB      
 SF USED    *       917.24 MB      
 GA USED    *         0.00 MB       (max)       0.00 MB       (current)
 **********************************************************************************************************************************


 PROGRAM * POP (Mulliken population analysis)

 
 Density matrix read from record         4202.2  Type=RHF/CHARGE (state 1.1)
 
 Population analysis by basis function type

 Unique atom        s        p        d        f        g    Total    Charge
   1  PD      3.99978  5.99967  9.00000  0.00033  0.00021 19.00000  - 1.00000


 **********************************************************************************************************************************
 DATASETS  * FILE   NREC   LENGTH (MB)   RECORD NAMES
              1      19       20.65       500      610      700      900      950      970     1000      129      960     1100   
                                          VAR    BASINP    GEOM    SYMINP    ZMAT    AOBASIS   BASIS     P2S    ABASIS      S 
                                         1400     1410     1420     1200     1210     1080     1600     1650     1700   
                                           T        V       ECP      H0       H01     AOSYM     SMH    MOLCAS    OPER   

              2       5        5.82       200      700     1000      520     4202   
                                        OPTIONS   GEOM     BASIS   MCVARS     RHF  

 PROGRAMS   *        TOTAL       POP       RHF  RCCSD(T)       RHF       INT
 CPU TIMES  *        93.85      0.00     14.63     43.72      1.76     32.79
 REAL TIME  *       134.66 SEC
 DISK USED  *         6.19 GB      
 SF USED    *       917.24 MB      
 GA USED    *         0.00 MB       (max)       0.00 MB       (current)
 **********************************************************************************************************************************


 PROGRAM * MULTI (Direct Multiconfiguration SCF)       Authors: P.J. Knowles, H.-J. Werner (1984)     S.T. Elbert (1988)


 Number of closed-shell orbitals:   5 (   2   1   1   0   1   0   0   0 )
 Number of active  orbitals:        5 (   2   0   0   1   0   1   1   0 )
 Number of external orbitals:     303 (  79  41  41  30  41  30  30  11 )

 State symmetry 1

 Number of electrons:     9    Spin symmetry=Doublet   Space symmetry=1
 Number of states:        2
 Number of CSFs:          2   (2 determinants, 5 intermediate states)

 State symmetry 2

 Number of electrons:     9    Spin symmetry=Doublet   Space symmetry=4
 Number of states:        1
 Number of CSFs:          1   (1 determinants, 5 intermediate states)

 State symmetry 3

 Number of electrons:     9    Spin symmetry=Doublet   Space symmetry=6
 Number of states:        1
 Number of CSFs:          1   (1 determinants, 5 intermediate states)

 State symmetry 4

 Number of electrons:     9    Spin symmetry=Doublet   Space symmetry=7
 Number of states:        1
 Number of CSFs:          1   (1 determinants, 5 intermediate states)

 Molecular orbitals read from record     4202.2  Type=RHF/CANONICAL (state 1.1)
 *** IN SYMMETRY 1 ORBITAL  1 SYMMETRY CONTAMINATION OF 0.384D-02 HAS BEEN REMOVED
 *** IN SYMMETRY 1 ORBITAL  2 SYMMETRY CONTAMINATION OF 0.194D-01 HAS BEEN REMOVED
 *** IN SYMMETRY 1 ORBITAL  3 SYMMETRY CONTAMINATION OF 0.433D+00 HAS BEEN REMOVED
 *** IN SYMMETRY 1 ORBITAL  4 SYMMETRY CONTAMINATION OF 0.430D+00 HAS BEEN REMOVED

 EXTRA SYMMETRY OF MOS IN SYMMETRY 1:   1 1 3 2 1 2 3 1 2 3   1 2 3 4 5 6 1 2 3 4   5 6 2 3 1 4 5 6 9 7  10 8 2 3 1 4 5 6 9 7
                                       10 8 2 3 1 2 3 2 3 1   2 3 1 1 2 3 1 2 3 1   1 2 3 1 2 3 1 2 3 1   1 2 3 1 1 1 1 1 1 1
                                        1 1 1
 *** IN SYMMETRY 2 ORBITAL  1 SYMMETRY CONTAMINATION OF 0.397D-02 HAS BEEN REMOVED
 EXTRA SYMMETRY OF MOS IN SYMMETRY 2:   1 1 1 1 3 2 1 3 2 5   6 4 1 3 2 6 4 5 2 3   1 5 4 6 3 2 1 1 1 1   1 1 1 1 1 1 1 1 1 1
                                        1 1
 *** IN SYMMETRY 3 ORBITAL  1 SYMMETRY CONTAMINATION OF 0.531D-02 HAS BEEN REMOVED
 EXTRA SYMMETRY OF MOS IN SYMMETRY 3:   1 1 1 1 2 3 1 2 3 4   1 6 5 2 3 4 6 2 5 3   1 4 6 5 2 3 1 1 1 1   1 1 1 1 1 1 1 1 1 1
                                        1 1
 *** IN SYMMETRY 4 ORBITAL  1 SYMMETRY CONTAMINATION OF 0.678D-02 HAS BEEN REMOVED
 EXTRA SYMMETRY OF MOS IN SYMMETRY 4:   1 1 1 1 2 3 1 2 3 1   3 2 4 5 6 1 3 2 4 5   6 1 1 1 1 1 1 1 1 1   1
 *** IN SYMMETRY 5 ORBITAL  1 SYMMETRY CONTAMINATION OF 0.683D-02 HAS BEEN REMOVED
 EXTRA SYMMETRY OF MOS IN SYMMETRY 5:   1 1 1 1 2 3 1 2 3 6   1 5 4 2 3 6 5 2 4 3   1 6 5 4 2 3 1 1 1 1   1 1 1 1 1 1 1 1 1 1
                                        1 1
 *** IN SYMMETRY 6 ORBITAL  1 SYMMETRY CONTAMINATION OF 0.689D-02 HAS BEEN REMOVED
 EXTRA SYMMETRY OF MOS IN SYMMETRY 6:   1 1 1 1 2 3 1 2 3 1   2 3 5 6 4 1 2 3 5 6   4 1 1 1 1 1 1 1 1 1   1
 *** IN SYMMETRY 7 ORBITAL  1 SYMMETRY CONTAMINATION OF 0.486D-02 HAS BEEN REMOVED
 EXTRA SYMMETRY OF MOS IN SYMMETRY 7:   1 1 1 1 2 3 1 2 3 1   2 3 6 4 5 1 2 3 6 4   5 1 1 1 1 1 1 1 1 1   1
 EXTRA SYMMETRY OF MOS IN SYMMETRY 8:   1 1 3 2 1 3 2 1 3 2   1

 Wavefunction dump at record             5202.2

 Convergence thresholds  0.10E-01 (gradient)  0.10E-05 (energy)  0.10E-02 (step length)

 Weight factors for state symmetry  1:    0.20000   0.20000
 Weight factors for state symmetry  2:    0.20000
 Weight factors for state symmetry  3:    0.20000
 Weight factors for state symmetry  4:    0.20000

 Number of orbital rotations:      533   (     4 Core/Active    281 Core/Virtual   0 Active/Active    248 Active/Virtual)
 Total number of variables:        540


 ITER. MIC  NCI  NEG     ENERGY(VAR)     ENERGY(PROJ)   ENERGY CHANGE     GRAD(0)  GRAD(ORB)   GRAD(CI)     STEP       TIME

   1   37   16    0    -127.02732405    -127.02831216   -0.00098811    0.04544486 0.00000000 0.00000000  0.29D-01      1.86
   2   21   20    0    -127.02831262    -127.02831275   -0.00000013    0.00029912 0.00000000 0.00000000  0.75D-03      2.71
   3   24   20    0    -127.02831275    -127.02831275   -0.00000000    0.00000010 0.00000000 0.00000000  0.29D-06      3.58

 ** WVFN ****  CONVERGENCE REACHED, FINAL GRADIENT:  0.95D-11



 Results for state 1.1
 =====================

 !MCSCF STATE 1.1 Energy             -127.028312748919
 Nuclear energy                         0.00000000
 Kinetic energy                        48.48505971
 One electron energy                 -229.55074627
 Two electron energy                  102.52243352
 Virial ratio                           3.61994754

 !MCSCF STATE 1.1 Dipole moment         0.00000000     0.00000000     0.00000000
 Dipole moment /Debye                   0.00000000     0.00000000     0.00000000

 Results for state 2.1
 =====================

 !MCSCF STATE 2.1 Energy             -127.028312748919
 Nuclear energy                         0.00000000
 Kinetic energy                        48.48505971
 One electron energy                 -229.55074627
 Two electron energy                  102.52243352
 Virial ratio                           3.61994754

 !MCSCF STATE 2.1 Dipole moment         0.00000000     0.00000000     0.00000000
 Dipole moment /Debye                   0.00000000     0.00000000     0.00000000



 Results for state 1.4
 =====================

 !MCSCF STATE 1.4 Energy             -127.028312748919
 Nuclear energy                         0.00000000
 Kinetic energy                        48.48505971
 One electron energy                 -229.55074627
 Two electron energy                  102.52243352
 Virial ratio                           3.61994754

 !MCSCF STATE 1.4 Dipole moment         0.00000000     0.00000000     0.00000000
 Dipole moment /Debye                   0.00000000     0.00000000     0.00000000



 Results for state 1.6
 =====================

 !MCSCF STATE 1.6 Energy             -127.028312748919
 Nuclear energy                         0.00000000
 Kinetic energy                        48.48505971
 One electron energy                 -229.55074627
 Two electron energy                  102.52243352
 Virial ratio                           3.61994754

 !MCSCF STATE 1.6 Dipole moment         0.00000000     0.00000000     0.00000000
 Dipole moment /Debye                   0.00000000     0.00000000     0.00000000



 Results for state 1.7
 =====================

 !MCSCF STATE 1.7 Energy             -127.028312748919
 Nuclear energy                         0.00000000
 Kinetic energy                        48.48505971
 One electron energy                 -229.55074627
 Two electron energy                  102.52243352
 Virial ratio                           3.61994754

 !MCSCF STATE 1.7 Dipole moment         0.00000000     0.00000000     0.00000000
 Dipole moment /Debye                   0.00000000     0.00000000     0.00000000

 State-averaged charge density matrix saved on record  5202.2 (density set 1)


 NATURAL ORBITALS (state averaged)
 =================================

   Orb     Occ        Energy       Coefficients

                                   1 1s      1 1s      1 1s      1 1s      1 1s      1 1s      1 1s      1 1s      1 1s      1 1s   
                                   1 1s      1 1s      1 1s      1 1s      1 1s      1 1s      1 1s      1 1s      1 1s      1 1s   
                                   1 1s      1 1s      1 1s      1 1s      1 1s      1 1s      1 1s      1 1s      1 1s      1 3d0  
                                   1 3d2+    1 3d0     1 3d2+    1 3d0     1 3d2+    1 3d0     1 3d2+    1 3d0     1 3d2+    1 3d0  
                                   1 3d2+    1 3d0     1 3d2+    1 3d0     1 3d2+    1 3d0     1 3d2+    1 3d0     1 3d2+    1 3d0  
                                   1 3d2+    1 3d0     1 3d2+    1 3d0     1 3d2+    1 3d0     1 3d2+    1 3d0     1 3d2+    1 3d0  
                                   1 3d2+    1 3d0     1 3d2+    1 5g0     1 5g4+    1 5g2+    1 5g0     1 5g4+    1 5g2+    1 5g0  
                                   1 5g4+    1 5g2+    1 5g0     1 5g4+    1 5g2+    1 7i6+    1 7i4+    1 7i2+    1 7i0     1 7i6+ 
                                   1 7i4+    1 7i2+    1 7i0  

   1.1  2.00000    -3.850944     0.000000  0.000000 -0.000000  0.000000 -0.000000  0.000000 -0.000001  0.000004 -0.000006  0.000030
                                -0.000049  0.000207 -0.000345  0.001255 -0.002486  0.007232 -0.016058  0.003930  0.257568 -0.780637
                                -0.183385  0.914555  0.513749  0.028355 -0.012070  0.004849  0.139297 -0.061484 -0.001278  0.000000
                                 0.000000  0.000000  0.000000  0.000000  0.000000  0.000000  0.000000  0.000000  0.000000  0.000000
                                 0.000000  0.000000  0.000000  0.000000  0.000000  0.000000  0.000000  0.000000  0.000000  0.000000
                                 0.000000  0.000000  0.000000  0.000000  0.000000  0.000000  0.000000  0.000000  0.000000  0.000000
                                 0.000000  0.000000  0.000000  0.000000  0.000000  0.000000  0.000000  0.000000  0.000000  0.000000
                                 0.000000  0.000000  0.000000  0.000000  0.000000  0.000000  0.000000  0.000000  0.000000  0.000000
                                 0.000000  0.000000  0.000000

   2.1  2.00000    -0.021763    -0.000000 -0.000000  0.000000 -0.000000  0.000000 -0.000000  0.000000 -0.000001  0.000001 -0.000007
[...]

              2      17       40.51       200      700     1000      520     4202     5202     2102     2105     5202(1)  2107   
                                        OPTIONS   GEOM     BASIS   MCVARS     RHF     MCSCF     RHF      RHF     MCSCF     RHF  
                                         2109     2111     2113     2115     2117     2119     2120   
                                          RHF      RHF      RHF      RHF      RHF      RHF      RHF  

 PROGRAMS   *        TOTAL       RHF  RCCSD(T)       RHF  RCCSD(T)       RHF  RCCSD(T)       RHF     MULTI       POP       RHF
 CPU TIMES  *       411.48      1.76      6.56      1.42     14.04      1.85     17.94      0.32      3.75      0.00      2.29
 REAL TIME  *       800.36 SEC
 DISK USED  *         7.04 GB      
 SF USED    *         1.03 GB      
 GA USED    *         0.00 MB       (max)       0.00 MB       (current)
 **********************************************************************************************************************************
 SETTING SCF(12)        =       -69.84338500  AU                              
 SETTING _CC_NORM_MAX   =         2.00000000                                  


 PROGRAM * CCSD (Restricted open-shell coupled cluster)     Authors: C. Hampel, H.-J. Werner, 1991, M. Deegan, P.J. Knowles, 1992


 Convergence thresholds:  THRVAR = 1.00D-08  THRDEN = 1.00D-06

 CCSD(T)     terms to be evaluated (factor= 1.000)


 Number of closed-shell orbitals:   1 (   1   0   0   0   0   0   0   0 )
 Number of active  orbitals:        3 (   0   1   1   0   1   0   0   0 )
 Number of external orbitals:     309 (  82  41  41  31  41  31  31  11 )

 Memory could be reduced to 40.33 Mwords without degradation in triples

 Number of N-1 electron functions:               5
 Number of N-2 electron functions:              10
 Number of singly external CSFs:               290
 Number of doubly external CSFs:             89708
 Total number of CSFs:                       89998

 Molecular orbitals read from record     2120.2  Type=RHF/CANONICAL (state 1.8)

 Integral transformation finished. Total CPU:   0.61 sec, npass=  1  Memory used:   5.46 MW

 Starting RMP2 calculation

 Wavefunction is spin-projected

 ITER.      SQ.NORM     CORR.ENERGY   TOTAL ENERGY   ENERGY CHANGE        DEN1      VAR(S)    VAR(P)  DIIS     TIME
   1      1.02019110    -0.14614067   -69.98952567    -0.14614067    -0.00011485  0.87D-08  0.18D-04  1  1     0.74
   2      1.02023448    -0.14626007   -69.98964508    -0.00011940    -0.00000001  0.24D-11  0.15D-08  2  2     0.83
   3      1.02023468    -0.14626046   -69.98964547    -0.00000039    -0.00000000  0.20D-15  0.16D-12  3  3     0.96

 Norm of t1 vector:      0.00723871      S-energy:    -0.00043623      T1 diagnostic:  0.00010776
 Norm of t2 vector:      0.14206437      P-energy:    -0.14582423
                                         Alpha-Beta:  -0.11097822
                                         Alpha-Alpha: -0.03484601
                                         Beta-Beta:    0.00000000

 Spin contamination <S**2-Sz**2-Sz>     0.00000000
  Reference energy                    -69.843385004164
  RHF-RMP2 correlation energy          -0.146260463273
 !RHF-RMP2 energy                     -69.989645467438
 (NB above energy spin projected)

 Starting RCCSD calculation

 ITER.      SQ.NORM     CORR.ENERGY   TOTAL ENERGY   ENERGY CHANGE        DEN1      VAR(S)    VAR(P)  DIIS     TIME
   1      1.02434590    -0.15763677   -70.00102177    -0.15763677    -0.00258669  0.96D-05  0.38D-03  1  1     1.28
   2      1.02554667    -0.16039566   -70.00378066    -0.00275889    -0.00002746  0.13D-07  0.37D-05  2  2     1.54
   3      1.02563878    -0.16053143   -70.00391643    -0.00013577    -0.00000036  0.51D-09  0.42D-07  3  3     1.97
   4      1.02564705    -0.16054306   -70.00392806    -0.00001163    -0.00000000  0.22D-10  0.33D-09  4  4     2.12
   5      1.02564735    -0.16054329   -70.00392829    -0.00000023    -0.00000000  0.93D-13  0.20D-11  5  5     2.40

 Norm of t1 vector:      0.00778012      S-energy:    -0.00041543      T1 diagnostic:  0.00111731
                                                                       D1 diagnostic:  0.00157665
 Norm of t2 vector:      0.15995879      P-energy:    -0.16012786
                                         Alpha-Beta:  -0.12455384
                                         Alpha-Alpha: -0.03557401
                                         Beta-Beta:    0.00000000

 Spin contamination <S**2-Sz**2-Sz>     0.00000000

 Memory could be reduced to 41.05 Mwords without degradation in triples
 

  Correlated core orbitals:             1.1       1.2       1.3       1.5
  Orbital energies:                   -13.4007  -11.6434  -11.6434  -11.6434
 
  RCCSD core-core energy               -0.160543285604
 

 RESULTS
 =======

  Reference energy                    -69.843385004164
  RCCSD singles energy                 -0.000415429292
  RCCSD pair energy                    -0.160127856312
  RCCSD correlation energy             -0.160543285604
  Triples (T) contribution             -0.003073434472
  Total correlation energy             -0.163616720075
 
  RHF-RCCSD energy                    -70.003928289768
  RHF-RCCSD[T] energy                 -70.007000422244
  RHF-RCCSD-T energy                  -70.007000084609
 !RHF-RCCSD(T) energy                 -70.007001724240

 Program statistics:

 Available memory in ccsd:               511999732
 Min. memory needed in ccsd:                690971
 Max. memory used in ccsd:                  769427
 Max. memory used in cckext:                799511 ( 5 integral passes)
 Max. memory used in cckint:               5455130 ( 1 integral passes)



 **********************************************************************************************************************************
 DATASETS  * FILE   NREC   LENGTH (MB)   RECORD NAMES
              1      20       29.45       500      610      700      900      950      970     1000      129      960     1100   
                                          VAR    BASINP    GEOM    SYMINP    ZMAT    AOBASIS   BASIS     P2S    ABASIS      S 
                                         1400     1410     1420     1200     1210     1080     1600     1650     1700     1380   
                                           T        V       ECP      H0       H01     AOSYM     SMH    MOLCAS    OPER     JKOP   

              2      17       40.51       200      700     1000      520     4202     5202     2102     2105     5202(1)  2107   
                                        OPTIONS   GEOM     BASIS   MCVARS     RHF     MCSCF     RHF      RHF     MCSCF     RHF  
                                         2109     2111     2113     2115     2117     2119     2120   
                                          RHF      RHF      RHF      RHF      RHF      RHF      RHF  

 PROGRAMS   *        TOTAL  RCCSD(T)       RHF  RCCSD(T)       RHF  RCCSD(T)       RHF  RCCSD(T)       RHF     MULTI       POP
 CPU TIMES  *       415.72      4.22      1.76      6.56      1.42     14.04      1.85     17.94      0.32      3.75      0.00
 REAL TIME  *       808.64 SEC
 DISK USED  *         7.04 GB      
 SF USED    *         1.03 GB      
 GA USED    *         0.00 MB       (max)       0.00 MB       (current)
 **********************************************************************************************************************************
 SETTING CCSD(12)       =       -70.00700172  AU                              

 DO I                   =        13.00000000   

 Running procedure=XVIIS2


 PROGRAM * RHF-SCF (CLOSED SHELL)       Authors: W. Meyer, H.-J. Werner


 NUMBER OF ELECTRONS:       1+    1-    SPACE SYMMETRY=1    SPIN SYMMETRY: Singlet 
 CONVERGENCE THRESHOLDS:    1.00E-05 (Density)    1.00E-07 (Energy)
 MAX. NUMBER OF ITERATIONS:       60
 INTERPOLATION TYPE:            DIIS
 INTERPOLATION STEPS:              2 (START)      1 (STEP)
 LEVEL SHIFTS:                  0.00 (CLOSED)  0.00 (OPEN) 



 Orbital guess generated from atomic densities. Full valence occupancy:    4   1   1   1   1   1   1   0


 Molecular orbital dump at record        2121.2

 Initial occupancy:   1   0   0   0   0   0   0   0

 ITERATION    DDIFF          GRAD             ENERGY        2-EL.EN.            DIPOLE MOMENTS         DIIS   ORB.
    1      0.000D+00      0.000D+00       -31.77077427      1.875239    0.00000    0.00000    0.00000    0    start
    2      0.000D+00      0.157D+00       -32.35908640      2.096112    0.00000    0.00000    0.00000    1    diag
    3      0.303D-01      0.117D-01       -32.36226253      2.112043    0.00000    0.00000    0.00000    2    diag
    4      0.396D-02      0.689D-04       -32.36226261      2.112117    0.00000    0.00000    0.00000    3    diag
    5      0.983D-04      0.164D-05       -32.36226261      2.112115    0.00000    0.00000    0.00000    4    diag
    6      0.584D-06      0.323D-07       -32.36226261      2.112115    0.00000    0.00000    0.00000    0    orth

 Final occupancy:   1   0   0   0   0   0   0   0

 !RHF STATE 1.1 Energy                -32.362262608503
 Nuclear energy                         0.00000000
 One-electron energy                  -33.41832000
 Two-electron energy                    1.05605739
 Virial quotient                       -5.89306223
 !RHF STATE 1.1 Dipole moment           0.00000000     0.00000000     0.00000000
 Dipole moment /Debye                   0.00000000     0.00000000     0.00000000

 Orbital energies:

         1.1          2.1          3.1
    -15.653103   -10.912006   -10.912006

         1.2          2.2
    -13.353102    -8.575312

         1.3          2.3
    -13.353102    -8.575312

         1.4          2.4
    -10.912006    -6.440565

         1.5          2.5
    -13.353102    -8.575312

         1.6          2.6
    -10.912006    -6.440565

         1.7          2.7
    -10.912006    -6.440565

         1.8          2.8
     -8.575312    -5.399000

 HOMO      1.1   -15.653103 =    -425.9426eV
 LUMO      1.5   -13.353102 =    -363.3564eV
 LUMO-HOMO         2.300001 =      62.5862eV


 **********************************************************************************************************************************
 DATASETS  * FILE   NREC   LENGTH (MB)   RECORD NAMES
              1      20       29.45       500      610      700      900      950      970     1000      129      960     1100   
                                          VAR    BASINP    GEOM    SYMINP    ZMAT    AOBASIS   BASIS     P2S    ABASIS      S 
                                         1400     1410     1420     1200     1210     1080     1600     1650     1700     1380   
                                           T        V       ECP      H0       H01     AOSYM     SMH    MOLCAS    OPER     JKOP   

              2      18       43.50       200      700     1000      520     4202     5202     2102     2105     5202(1)  2107   
                                        OPTIONS   GEOM     BASIS   MCVARS     RHF     MCSCF     RHF      RHF     MCSCF     RHF  
                                         2109     2111     2113     2115     2117     2119     2120     2121   
                                          RHF      RHF      RHF      RHF      RHF      RHF      RHF      RHF  

 PROGRAMS   *        TOTAL       RHF  RCCSD(T)       RHF  RCCSD(T)       RHF  RCCSD(T)       RHF  RCCSD(T)       RHF     MULTI
 CPU TIMES  *       417.83      1.96      4.22      1.76      6.56      1.42     14.04      1.85     17.94      0.32      3.75
 REAL TIME  *       810.95 SEC
 DISK USED  *         7.04 GB      
 SF USED    *         1.03 GB      
 GA USED    *         0.00 MB       (max)       0.00 MB       (current)
 **********************************************************************************************************************************
 SETTING SCF(13)        =       -32.36226261  AU                              
 SETTING _CC_NORM_MAX   =         2.00000000                                  


 PROGRAM * CCSD (Restricted open-shell coupled cluster)     Authors: C. Hampel, H.-J. Werner, 1991, M. Deegan, P.J. Knowles, 1992


 Convergence thresholds:  THRVAR = 1.00D-08  THRDEN = 1.00D-06

 CCSD(T)     terms to be evaluated (factor= 1.000)


 Number of closed-shell orbitals:   1 (   1   0   0   0   0   0   0   0 )
 Number of external orbitals:     312 (  82  42  42  31  42  31  31  11 )

 Memory could be reduced to 29.01 Mwords without degradation in triples

 Number of N-1 electron functions:               2
 Number of N-2 electron functions:               1
 Number of singly external CSFs:               164
 Number of doubly external CSFs:             15020
 Total number of CSFs:                       15184

 Molecular orbitals read from record     2121.2  Type=RHF/CANONICAL (state 1.1)

 Integral transformation finished. Total CPU:   0.56 sec, npass=  1  Memory used:   2.11 MW

 Starting RMP2 calculation

 Wavefunction is spin-projected

 ITER.      SQ.NORM     CORR.ENERGY   TOTAL ENERGY   ENERGY CHANGE        DEN1      VAR(S)    VAR(P)  DIIS     TIME
   1      1.01082678    -0.05975109   -32.42201370    -0.05975109    -0.00007767  0.12D-19  0.16D-04  1  1     0.57
   2      1.01086076    -0.05983189   -32.42209450    -0.00008079    -0.00000000  0.49D-23  0.32D-09  2  2     0.60
   3      1.01086085    -0.05983204   -32.42209464    -0.00000015    -0.00000000  0.89D-28  0.42D-14  3  3     0.60

 Norm of t1 vector:      0.00000000      S-energy:    -0.00000000      T1 diagnostic:  0.00000000
 Norm of t2 vector:      0.10421539      P-energy:    -0.05983204
                                         Alpha-Beta:  -0.05983204
                                         Alpha-Alpha:  0.00000000
                                         Beta-Beta:    0.00000000

 Spin contamination <S**2-Sz**2-Sz>     0.00000000
  Reference energy                    -32.362262608503
  RHF-RMP2 correlation energy          -0.059832035812
 !RHF-RMP2 energy                     -32.422094644315
 (NB above energy spin projected)

 Starting RCCSD calculation

 ITER.      SQ.NORM     CORR.ENERGY   TOTAL ENERGY   ENERGY CHANGE        DEN1      VAR(S)    VAR(P)  DIIS     TIME
   1      1.01472478    -0.06668291   -32.42894552    -0.06668291    -0.00287752  0.29D-05  0.55D-03  1  1     0.63
   2      1.01702657    -0.07040060   -32.43266321    -0.00371770    -0.00003735  0.16D-07  0.54D-05  2  2     0.67
   3      1.01726233    -0.07072580   -32.43298841    -0.00032519    -0.00000030  0.30D-09  0.32D-07  3  3     0.71
   4      1.01725965    -0.07071920   -32.43298181     0.00000659    -0.00000000  0.56D-12  0.12D-09  4  4     0.74
   5      1.01726017    -0.07071995   -32.43298256    -0.00000075    -0.00000000  0.94D-14  0.99D-13  5  5     0.88

 Norm of t1 vector:      0.00215064      S-energy:    -0.00000000      T1 diagnostic:  0.00107532
                                                                       D1 diagnostic:  0.00152073
 Norm of t2 vector:      0.13136035      P-energy:    -0.07071995
                                         Alpha-Beta:  -0.07071995
                                         Alpha-Alpha:  0.00000000
                                         Beta-Beta:    0.00000000

 Doubles amplitudes (print threshold =  0.500E-01):

         I         J         SYM. A    SYM. B    A         B      T(IJ, AB) [Alpha-Beta]

         1         1         2         2         1         1     -0.07367957
         1         1         3         3         1         1     -0.07367957
         1         1         5         5         1         1     -0.07367957

 Spin contamination <S**2-Sz**2-Sz>     0.00000000

 Memory could be reduced to 28.62 Mwords without degradation in triples
 

  Correlated core orbitals:             1.1
  Orbital energies:                   -15.6531
 
  RCCSD core-core energy               -0.070719951500
 

 RESULTS
 =======

  Reference energy                    -32.362262608503
  RCCSD singles energy                 -0.000000000069
  RCCSD pair energy                    -0.070719951432
  RCCSD correlation energy             -0.070719951500
  Triples (T) contribution              0.000000000000
  Total correlation energy             -0.070719951500
 
  RHF-RCCSD energy                    -32.432982560004
  RHF-RCCSD[T] energy                 -32.432982560004
  RHF-RCCSD-T energy                  -32.432982560004
 !RHF-RCCSD(T) energy                 -32.432982560004

 Program statistics:

 Available memory in ccsd:               511999882
 Min. memory needed in ccsd:                426629
 Max. memory used in ccsd:                  426629
 Max. memory used in cckext:                571486 ( 5 integral passes)
 Max. memory used in cckint:               2111599 ( 1 integral passes)



 **********************************************************************************************************************************
 DATASETS  * FILE   NREC   LENGTH (MB)   RECORD NAMES
              1      20       29.45       500      610      700      900      950      970     1000      129      960     1100   
                                          VAR    BASINP    GEOM    SYMINP    ZMAT    AOBASIS   BASIS     P2S    ABASIS      S 
                                         1400     1410     1420     1200     1210     1080     1600     1650     1700     1380   
                                           T        V       ECP      H0       H01     AOSYM     SMH    MOLCAS    OPER     JKOP   

              2      18       43.50       200      700     1000      520     4202     5202     2102     2105     5202(1)  2107   
                                        OPTIONS   GEOM     BASIS   MCVARS     RHF     MCSCF     RHF      RHF     MCSCF     RHF  
                                         2109     2111     2113     2115     2117     2119     2120     2121   
                                          RHF      RHF      RHF      RHF      RHF      RHF      RHF      RHF  

 PROGRAMS   *        TOTAL  RCCSD(T)       RHF  RCCSD(T)       RHF  RCCSD(T)       RHF  RCCSD(T)       RHF  RCCSD(T)       RHF
 CPU TIMES  *       419.25      1.42      1.96      4.22      1.76      6.56      1.42     14.04      1.85     17.94      0.32
 REAL TIME  *       816.18 SEC
 DISK USED  *         7.04 GB      
 SF USED    *         1.03 GB      
 GA USED    *         0.00 MB       (max)       0.00 MB       (current)
 **********************************************************************************************************************************
 SETTING CCSD(13)       =       -32.43298256  AU                              
 Output type csv         
                                                                                                                                                                                                                                                                

        SCF,CCSD
   -127.03286381,   -127.85541186
   -127.02831275,   -127.86632556
   -127.02849813,   -127.82112109
   -126.95191215,   -127.73595083
   -126.79539484,   -127.54403058
   -126.70705120,   -127.42973600
   -126.15176667,   -126.82940653
   -125.00524860,   -125.62151107
   -123.30676492,   -123.86742105
   -121.06237518,   -121.56007480
    -98.74893659,    -99.07600692
    -69.84338500,    -70.00700172
    -32.36226261,    -32.43298256
                                                  

 RCCSD(T)/USERDEF energy=    -32.432982560004

        RCCSD(T)        RHF-SCF         RCCSD(T)        RHF-SCF         RCCSD(T)        RHF-SCF         RCCSD(T)        RHF-SCF 
    -32.43298256    -32.36226261    -70.00700172    -69.84338500    -99.07600692    -98.74893659   -121.56007480   -121.06237518
 **********************************************************************************************************************************
 Molpro calculation terminated
 Variable memory released
