
 Primary working directories    : /global/cscratch1/sd/aannabe
 Secondary working directories  : /global/cscratch1/sd/aannabe
 Wavefunction directory         : /global/homes/a/aannabe/wfu/
 Main file repository           : /global/cscratch1/sd/aannabe/

 SHA1      : 19cd028119e0e09f93f0674bd8af7968d9b3eff6
 NAME      : 2015.1.36
 ARCHNAME  : linux/x86_64
 FC        : /opt/cray/pe/craype/2.5.14/bin/ftn
 BLASLIB   : -L/opt/intel/compilers_and_libraries_2018.1.163/linux/mkl/lib/intel64 -Wl,-_start-group -lmkl_intel_ilp64 -lmkl_intel_thread -lmkl_core -Wl,-_end-group -liomp5
 id        : lbl

 Nodes     nprocs
 nid00810    23
 Number of processes for MPI-2 version of Molpro:   nprocs(total)=   24   nprocs(compute)=   23   nprocs(helper)=    1

 Using customized tuning parameters: mindgm=7; mindgv=16; mindgc=1; mindgr=1; noblas=0; minvec=7
 default implementation of scratch files=sf  

 ***,Calculation for Au atom
 memory,512,m
 
 
 geometry={
 1
 Au
 Au  0.0 0.0 0.0
 }
 
 basis={
 Including file /global/cscratch1/sd/aannabe/repos/heavy_element_ecps/Au/arep/atoms/CRENBL/basis/CRENBL
 Including file /global/cscratch1/sd/aannabe/repos/heavy_element_ecps/Au/arep/atoms/CRENBL/basis/aug-cc-pwCVTZ.basis
 }
 
 Including file /global/cscratch1/sd/aannabe/repos/heavy_element_ecps/Au/arep/atoms/CRENBL/basis/states.proc
 
 do i=1,15
     if (i.eq.1) then
         Is1dten
     else if (i.eq.2) then
         As2dten
     else if (i.eq.3) then
         Ip1dten
     else if (i.eq.4) then
         Is2d9
     else if (i.eq.5) then
         IIdten
     else if (i.eq.6) then
         IIs1d9
     else if (i.eq.7) then
         IIId9
     else if (i.eq.8) then
         IVd8
     else if (i.eq.9) then
         Vd7
     else if (i.eq.10) then
         VId6
     else if (i.eq.11) then
         VIId5
     else if (i.eq.12) then
         XIIXeandF
     else if (i.eq.13) then
         XVp3
     else if (i.eq.14) then
         XVIIIs2
     else if (i.eq.15) then
         VIId5f1
     endif
     scf(i)=energy
     _CC_NORM_MAX=2.0
     {rccsd(t),maxit=100;core}
     ccsd(i)=energy
 enddo
 
 
 table,scf,ccsd
 save, 3.csv,new
 

 Variables initialized (889), CPU time= 0.01 sec
 Commands  initialized (702), CPU time= 0.01 sec, 572 directives.
 Default parameters read. Elapsed time= 0.16 sec

 Checking input...
 Passed
1


                                         ***  PROGRAM SYSTEM MOLPRO  ***
                                       Copyright, TTI GmbH Stuttgart, 2015
                                    Version 2015.1 linked Dec 29 2018 15:55:43


 **********************************************************************************************************************************
 LABEL *   Calculation for Au atom                                                       
  64 bit mpp version                                                                     DATE: 04-May-21          TIME: 20:08:58  
 **********************************************************************************************************************************

 SHA1:             19cd028119e0e09f93f0674bd8af7968d9b3eff6
 **********************************************************************************************************************************

Geometry recognized as XYZ


 Variable memory set to  512000000 words,  buffer space   230000 words

 SETTING BASIS          =    USERDEF

 DO I                   =         1.00000000   

 Running procedure=IS1DTEN


 Recomputing integrals since basis changed


 Using spherical harmonics



 PROGRAM * SEWARD (Integral evaluation for generally contracted gaussian basis sets)     Author: Roland Lindh, 1990

 Geometry written to block  1 of record 700

 Orientation using atomic masses  
 Molecule type: Atom
 Symmetry elements: X,Y,Z
 Rotational constants:       0.0000000      0.0000000      0.0000000 GHz  (calculated with average atomic masses)

 Point group  D2h 



 ATOMIC COORDINATES

 NR  ATOM    CHARGE       X              Y              Z

   1  AU     19.00    0.000000000    0.000000000    0.000000000

 NUCLEAR CHARGE:                   19
 NUMBER OF PRIMITIVE AOS:         449
 NUMBER OF SYMMETRY AOS:          365
 NUMBER OF CONTRACTIONS:          365   (  86Ag  +  61B3u +  61B2u +  27B1g +  61B1u +  27B2g +  27B3g +  15Au  )
 NUMBER OF CORE ORBITALS:           4   (   1Ag  +   1B3u +   1B2u +   0B1g +   1B1u +   0B2g +   0B3g +   0Au  )
 NUMBER OF VALENCE ORBITALS:        6   (   3Ag  +   0B3u +   0B2u +   1B1g +   0B1u +   1B2g +   1B3g +   0Au  )


 NUCLEAR REPULSION ENERGY    0.00000000

 EXTRA SYMMETRY OF AOS IN SYMMETRY 1:   1 1 1 1 1 1 1 1 1 1   1 1 1 1 1 1 1 1 1 1   1 1 1 1 1 1 1 1 1 1   1 1 1 1 1 2 3 2 3 2
                                        3 2 3 2 3 2 3 2 3 2   3 2 3 2 3 2 3 2 3 2   3 2 3 2 3 2 3 2 3 2   3 2 3 2 3 2 3 4 5 6
                                        4 5 6 4 5 6
 EXTRA SYMMETRY OF AOS IN SYMMETRY 2:   1 1 1 1 1 1 1 1 1 1   1 1 1 1 1 1 1 1 1 1   1 1 1 1 1 1 1 1 1 1   1 2 3 2 3 2 3 2 3 2
                                        3 2 3 2 3 2 3 2 3 2   3 2 3 2 3 2 3 2 3 2   3
 EXTRA SYMMETRY OF AOS IN SYMMETRY 3:   1 1 1 1 1 1 1 1 1 1   1 1 1 1 1 1 1 1 1 1   1 1 1 1 1 1 1 1 1 1   1 2 3 2 3 2 3 2 3 2
                                        3 2 3 2 3 2 3 2 3 2   3 2 3 2 3 2 3 2 3 2   3
 EXTRA SYMMETRY OF AOS IN SYMMETRY 4:   1 1 1 1 1 1 1 1 1 1   1 1 1 1 1 1 1 1 1 1   1 2 3 2 3 2 3
 EXTRA SYMMETRY OF AOS IN SYMMETRY 5:   1 1 1 1 1 1 1 1 1 1   1 1 1 1 1 1 1 1 1 1   1 1 1 1 1 1 1 1 1 1   1 2 3 2 3 2 3 2 3 2
                                        3 2 3 2 3 2 3 2 3 2   3 2 3 2 3 2 3 2 3 2   3
 EXTRA SYMMETRY OF AOS IN SYMMETRY 6:   1 1 1 1 1 1 1 1 1 1   1 1 1 1 1 1 1 1 1 1   1 2 3 2 3 2 3
 EXTRA SYMMETRY OF AOS IN SYMMETRY 7:   1 1 1 1 1 1 1 1 1 1   1 1 1 1 1 1 1 1 1 1   1 2 3 2 3 2 3

 Eigenvalues of metric

         1 0.109E-05 0.119E-04 0.119E-04 0.186E-04 0.547E-04 0.121E-03 0.121E-03 0.172E-03
         2 0.490E-06 0.215E-04 0.415E-04 0.415E-04 0.153E-03 0.505E-03 0.891E-03 0.891E-03
         3 0.490E-06 0.215E-04 0.415E-04 0.415E-04 0.153E-03 0.505E-03 0.891E-03 0.891E-03
         4 0.119E-04 0.121E-03 0.616E-03 0.199E-02 0.555E-02 0.132E-01 0.261E-01 0.504E-01
         5 0.490E-06 0.215E-04 0.415E-04 0.415E-04 0.153E-03 0.505E-03 0.891E-03 0.891E-03
         6 0.119E-04 0.121E-03 0.616E-03 0.199E-02 0.555E-02 0.132E-01 0.261E-01 0.504E-01
         7 0.119E-04 0.121E-03 0.616E-03 0.199E-02 0.555E-02 0.132E-01 0.261E-01 0.504E-01
         8 0.415E-04 0.891E-03 0.509E-02 0.124E-01 0.336E-01 0.825E-01 0.168E+00 0.319E+00


 Contracted 2-electron integrals neglected if value below      1.0D-13

 Warning: maximum contribution to expansion of semi-local PP integrals   0.1D+13

 AO integral compression algorithm  1   Integral accuracy      1.0D-13

     1798.046 MB (compressed) written to integral file ( 38.7%)

     Node minimum: 24.904 MB, node maximum: 181.142 MB


 NUMBER OF SORTED TWO-ELECTRON INTEGRALS:   12524691.     BUFFER LENGTH:  32768
 NUMBER OF SEGMENTS:   1  SEGMENT LENGTH:   12524691      RECORD LENGTH: 524288

 Memory used in sort:      13.08 MW

 SORT1 READ   581377519. AND WROTE     7269920. INTEGRALS IN     21 RECORDS. CPU TIME:    17.72 SEC, REAL TIME:    21.61 SEC
 SORT2 READ   169258147. AND WROTE   288141177. INTEGRALS IN   5083 RECORDS. CPU TIME:     1.08 SEC, REAL TIME:     1.45 SEC

 Node minimum:    12382733.  Node maximum:    12692957. integrals

 OPERATOR DM      FOR CENTER  0  COORDINATES:    0.000000    0.000000    0.000000


 **********************************************************************************************************************************
 DATASETS  * FILE   NREC   LENGTH (MB)   RECORD NAMES
              1      19       20.87       500      610      700      900      950      970     1000      129      960     1100   
                                          VAR    BASINP    GEOM    SYMINP    ZMAT    AOBASIS   BASIS     P2S    ABASIS      S 
                                         1400     1410     1420     1200     1210     1080     1600     1650     1700   
                                           T        V       ECP      H0       H01     AOSYM     SMH    MOLCAS    OPER   

 PROGRAMS   *        TOTAL       INT
 CPU TIMES  *       187.45    186.64
 REAL TIME  *       195.56 SEC
 DISK USED  *         3.87 GB      
 GA USED    *         0.00 MB       (max)       0.00 MB       (current)
 **********************************************************************************************************************************


 PROGRAM * RHF-SCF (OPEN SHELL)       Authors: W. Meyer, H.-J. Werner


 NUMBER OF ELECTRONS:      10+    9-    SPACE SYMMETRY=1    SPIN SYMMETRY: Doublet 
 CONVERGENCE THRESHOLDS:    1.00E-05 (Density)    1.00E-07 (Energy)
 MAX. NUMBER OF ITERATIONS:       60
 INTERPOLATION TYPE:            DIIS
 INTERPOLATION STEPS:              2 (START)      1 (STEP)
 LEVEL SHIFTS:                 -0.60 (CLOSED) -0.30 (OPEN) 


 Singly occupied orbitals:      4.1
 
 Extra symmetries of mos in symmetry 1:   1   3   2   1
 Orbital guess generated from atomic densities. Full valence occupancy:    4   1   1   1   1   1   1   0


 Molecular orbital dump at record        4202.2

 ITERATION    DDIFF          GRAD             ENERGY        2-EL.EN.            DIPOLE MOMENTS         DIIS   ORB.
    1      0.000D+00      0.000D+00      -135.15014827    214.185367    0.00000    0.00000    0.00000    0    start
    2      0.000D+00      0.128D-01      -135.19697465    208.369185    0.00000    0.00000    0.00000    1    diag,B
    3      0.801D-02      0.440D-02      -135.20091406    209.269394    0.00000    0.00000    0.00000    2    diag,B
    4      0.565D-02      0.496D-03      -135.20114455    209.135834    0.00000    0.00000    0.00000    3    diag,B
    5      0.648D-03      0.180D-03      -135.20119421    209.080522    0.00000    0.00000    0.00000    4    diag,B
    6      0.984D-03      0.656D-04      -135.20119920    209.068183    0.00000    0.00000    0.00000    5    diag,B
    7      0.202D-03      0.317D-04      -135.20120054    209.062776    0.00000    0.00000    0.00000    6    fixocc
    8      0.149D-03      0.290D-04      -135.20120086    209.060338    0.00000    0.00000    0.00000    7    diag,B
    9      0.130D-03      0.291D-04      -135.20120105    209.059873    0.00000    0.00000    0.00000    8    diag,B
   10      0.763D-04      0.251D-04      -135.20120105    209.058958    0.00000    0.00000    0.00000    9    orth
   11      0.616D-04      0.586D-04      -135.20120117    209.058992    0.00000    0.00000    0.00000    9    diag,B
   12      0.608D-04      0.142D-04      -135.20120127    209.057922    0.00000    0.00000    0.00000    9    diag,B
   13      0.183D-04      0.273D-04      -135.20120128    209.057905    0.00000    0.00000    0.00000    9    diag,B
   14      0.231D-04      0.254D-04      -135.20120130    209.057563    0.00000    0.00000    0.00000    9    diag,B
   15      0.246D-04      0.241D-04      -135.20120132    209.057270    0.00000    0.00000    0.00000    9    diag,B
   16      0.267D-04      0.248D-04      -135.20120131    209.057719    0.00000    0.00000    0.00000    9    diag,B
   17      0.260D-04      0.161D-04      -135.20120131    209.057412    0.00000    0.00000    0.00000    9    diag,B
   18      0.276D-04      0.280D-04      -135.20120132    209.057419    0.00000    0.00000    0.00000    9    diag,B
   19      0.677D-04      0.511D-04      -135.20120130    209.057452    0.00000    0.00000    0.00000    9    diag,B
   20      0.992D-04      0.298D-04      -135.20120132    209.057504    0.00000    0.00000    0.00000    9    orth
   21      0.849D-04      0.867D-05      -135.20120128    209.057427    0.00000    0.00000    0.00000    9    diag,B
   22      0.482D-04      0.936D-05      -135.20120120    209.057118    0.00000    0.00000    0.00000    9    diag,B
   23      0.650D-04      0.315D-04      -135.20120133    209.057359    0.00000    0.00000    0.00000    9    diag,B
   24      0.524D-04      0.258D-04      -135.20120131    209.057385    0.00000    0.00000    0.00000    9    diag,B
   25      0.438D-04      0.334D-04      -135.20120114    209.057044    0.00000    0.00000    0.00000    9    diag,B
   26      0.160D-03      0.314D-04      -135.20120131    209.057348    0.00000    0.00000    0.00000    9    diag,B
   27      0.523D-03      0.411D-04      -135.20120127    209.057607    0.00000    0.00000    0.00000    9    diag,B
   28      0.515D-03      0.356D-04      -135.20120132    209.057354    0.00000    0.00000    0.00000    9    diag,B
   29      0.220D-03      0.586D-04      -135.20120132    209.057069    0.00000    0.00000    0.00000    9    diag,B
   30      0.133D-03      0.264D-04      -135.20120134    209.057105    0.00000    0.00000    0.00000    9    orth
   31      0.424D-04      0.145D-04      -135.20120134    209.057094    0.00000    0.00000    0.00000    9    diag,B
   32      0.178D-04      0.341D-05      -135.20120136    209.056758    0.00000    0.00000    0.00000    9    diag,B
   33      0.193D-04      0.180D-04      -135.20120136    209.056787    0.00000    0.00000    0.00000    9    diag,B
   34      0.331D-04      0.127D-04      -135.20120134    209.056628    0.00000    0.00000    0.00000    9    diag,B
   35      0.962D-04      0.145D-04      -135.20120136    209.056770    0.00000    0.00000    0.00000    9    diag,B
   36      0.121D-03      0.107D-04      -135.20120135    209.056550    0.00000    0.00000    0.00000    9    diag,B
   37      0.366D-04      0.343D-04      -135.20120134    209.056673    0.00000    0.00000    0.00000    9    diag,B
   38      0.563D-04      0.133D-04      -135.20120136    209.056575    0.00000    0.00000    0.00000    9    diag,B
   39      0.368D-04      0.183D-04      -135.20120128    209.056792    0.00000    0.00000    0.00000    9    diag,B
   40      0.976D-04      0.235D-04      -135.20120136    209.056505    0.00000    0.00000    0.00000    9    orth
   41      0.203D-03      0.179D-04      -135.20120108    209.056508    0.00000    0.00000    0.00000    9    diag,B
   42      0.206D-03      0.195D-04      -135.20120136    209.056564    0.00000    0.00000    0.00000    9    diag,B
   43      0.109D-03      0.115D-04      -135.20120136    209.056515    0.00000    0.00000    0.00000    9    diag,B
   44      0.249D-04      0.171D-04      -135.20120125    209.056405    0.00000    0.00000    0.00000    9    diag,B
   45      0.593D-04      0.219D-04      -135.20120135    209.056736    0.00000    0.00000    0.00000    9    diag,B
   46      0.669D-04      0.292D-04      -135.20120136    209.056701    0.00000    0.00000    0.00000    9    diag,B
   47      0.385D-04      0.126D-04      -135.20120128    209.055168    0.00000    0.00000    0.00000    9    diag,B
   48      0.584D-04      0.276D-04      -135.20120121    209.056697    0.00000    0.00000    0.00000    9    diag,B
   49      0.184D-03      0.569D-04      -135.20120133    209.056785    0.00000    0.00000    0.00000    9    diag,B
   50      0.169D-03      0.510D-04      -135.20120136    209.056709    0.00000    0.00000    0.00000    9    orth
   51      0.540D-04      0.301D-04      -135.20120136    209.056706    0.00000    0.00000    0.00000    9    diag,B
   52      0.107D-03      0.151D-04      -135.20120136    209.056696    0.00000    0.00000    0.00000    9    diag,B
   53      0.558D-04      0.172D-04      -135.20120136    209.056715    0.00000    0.00000    0.00000    9    diag,B
   54      0.311D-03      0.188D-04      -135.20120136    209.056721    0.00000    0.00000    0.00000    9    diag,B
   55      0.275D-03      0.229D-04      -135.20120135    209.056684    0.00000    0.00000    0.00000    9    diag,B
   56      0.206D-03      0.283D-04      -135.20120136    209.056698    0.00000    0.00000    0.00000    9    diag,B
   57      0.138D-03      0.261D-04      -135.20120124    209.056392    0.00000    0.00000    0.00000    9    diag,B
   58      0.110D-03      0.425D-04      -135.20120136    209.056730    0.00000    0.00000    0.00000    9    diag,B
   59      0.994D-04      0.477D-05      -135.20120130    209.056761    0.00000    0.00000    0.00000    9    orth
   60      0.539D-04      0.305D-04      -135.20120116    209.057193    0.00000    0.00000    0.00000    0    orth

 Final alpha occupancy:   4   1   1   1   1   1   1   0
 Final beta  occupancy:   3   1   1   1   1   1   1   0

 !RHF STATE 1.1 Energy               -135.201201161426
 Nuclear energy                         0.00000000
 One-electron energy                 -239.72979770
 Two-electron energy                  104.52859654
 Virial quotient                       -3.03828415
 !RHF STATE 1.1 Dipole moment           0.00000000     0.00000000     0.00000000
 Dipole moment /Debye                   0.00000000     0.00000000     0.00000000

 ELECTRON ORBITALS
 =================


   Orb  Occ    Energy  Couls-En    Coefficients

                                   1 1s      1 1s      1 1s      1 1s      1 1s      1 1s      1 1s      1 1s      1 1s      1 1s   
                                   1 1s      1 1s      1 1s      1 1s      1 1s      1 1s      1 1s      1 1s      1 1s      1 1s   
                                   1 1s      1 1s      1 1s      1 1s      1 1s      1 1s      1 1s      1 1s      1 1s      1 1s   
                                   1 1s      1 1s      1 1s      1 1s      1 1s      1 3d0     1 3d2+    1 3d0     1 3d2+    1 3d0  
                                   1 3d2+    1 3d0     1 3d2+    1 3d0     1 3d2+    1 3d0     1 3d2+    1 3d0     1 3d2+    1 3d0  
                                   1 3d2+    1 3d0     1 3d2+    1 3d0     1 3d2+    1 3d0     1 3d2+    1 3d0     1 3d2+    1 3d0  
                                   1 3d2+    1 3d0     1 3d2+    1 3d0     1 3d2+    1 3d0     1 3d2+    1 3d0     1 3d2+    1 3d0  
                                   1 3d2+    1 3d0     1 3d2+    1 3d0     1 3d2+    1 3d0     1 3d2+    1 5g0     1 5g4+    1 5g2+ 
                                   1 5g0     1 5g4+    1 5g2+    1 5g0     1 5g4+    1 5g2+ 

   1.1   2    -4.6873  -21.9473  0.000000 -0.000000  0.000000 -0.000000  0.000000 -0.000000  0.000000 -0.000000  0.000000 -0.000000
                                 0.000001 -0.000003  0.000008 -0.000021  0.000055 -0.000140  0.000354 -0.000885  0.002193 -0.005267
                                 0.012456 -0.027626  0.060399 -0.122058  0.234148  0.085928  1.506047  0.072662  0.348600  0.058604
                                -0.020953  0.008838 -0.002310 -2.016313  0.613970  0.000000 -0.000000 -0.000000  0.000000  0.000000
                                -0.000000 -0.000000  0.000000  0.000000 -0.000000 -0.000000  0.000000  0.000000 -0.000000 -0.000000
                                 0.000000  0.000000 -0.000000 -0.000000  0.000000  0.000000 -0.000001 -0.000000  0.000001  0.000001
                                -0.000004  0.000004 -0.000005 -0.000003  0.000002 -0.000003  0.000001  0.000000 -0.000000 -0.000000
                                 0.000000  0.000000 -0.000000 -0.000003  0.000007  0.000004 -0.000003 -0.000000 -0.000000  0.000000
                                -0.000000 -0.000000 -0.000000  0.000000  0.000000  0.000000

   2.1   2    -0.4522  -11.3628 -0.000000  0.000000 -0.000000  0.000000 -0.000000  0.000000 -0.000000  0.000000 -0.000000  0.000000
                                -0.000000  0.000000 -0.000000  0.000000 -0.000000  0.000000 -0.000000  0.000000 -0.000000  0.000001
                                -0.000001  0.000003 -0.000006  0.000015 -0.000042  0.000070  0.000089 -0.000551 -0.000582  0.000406
                                -0.000202  0.000592 -0.000156  0.000041  0.000632 -0.000000 -0.000000  0.000000  0.000000 -0.000000
                                -0.000000  0.000001  0.000002 -0.000004 -0.000006  0.000013  0.000020 -0.000037 -0.000060  0.000104
                                 0.000167 -0.000256 -0.000412  0.000707  0.001134 -0.001232 -0.001978  0.005477  0.008777  0.001239
                                 0.001956  0.029799  0.047667 -0.134245 -0.214898 -0.211235 -0.338189 -0.184688 -0.295654 -0.110198
                                -0.176440 -0.031096 -0.049761 -0.005177 -0.008239  0.011396  0.018252  0.000002  0.000005  0.000006
                                -0.000006 -0.000010 -0.000014  0.000027  0.000033  0.000057

   3.1   2    -0.4523  -11.3627  0.000000  0.000000 -0.000000  0.000000 -0.000000  0.000000 -0.000000  0.000000 -0.000000  0.000000
                                -0.000000  0.000000 -0.000000  0.000000 -0.000000  0.000000 -0.000000  0.000000 -0.000001  0.000002
                                -0.000004  0.000009 -0.000019  0.000040 -0.000091  0.000195  0.000453 -0.001031 -0.001031  0.000201
                                 0.000509  0.000358 -0.000126 -0.000253  0.001267 -0.000000  0.000000  0.000000 -0.000000 -0.000000
                                 0.000000  0.000002 -0.000001 -0.000006  0.000004  0.000020 -0.000013 -0.000060  0.000037  0.000166
                                -0.000104 -0.000410  0.000256  0.001130 -0.000705 -0.001967  0.001227  0.008746 -0.005460  0.002078
                                -0.001318  0.047838 -0.029897 -0.214956  0.134240 -0.338270  0.211068 -0.295617  0.184772 -0.176530
                                 0.110098 -0.049693  0.031210 -0.008475  0.005328  0.018364 -0.011263  0.000050  0.000025  0.000016
                                -0.000045 -0.000022 -0.000012  0.000014  0.000010  0.000004

   4.1   +    -0.2922   -7.1462 -0.000000  0.000000 -0.000000  0.000000 -0.000000  0.000000 -0.000000  0.000000 -0.000000  0.000000
                                -0.000000  0.000001 -0.000003  0.000007 -0.000018  0.000045 -0.000114  0.000285 -0.000706  0.001701
                                -0.004053  0.009085 -0.020395  0.043554 -0.097830  0.084908 -0.384767 -0.173353 -0.277904  0.184215
                                 0.647928  0.355824  0.011294  0.488786 -0.177702  0.000000 -0.000000 -0.000000  0.000000  0.000000
                                -0.000000 -0.000000  0.000000  0.000000 -0.000000 -0.000000  0.000000  0.000000 -0.000000 -0.000000
                                 0.000000  0.000000 -0.000001 -0.000001  0.000001  0.000002 -0.000003 -0.000009  0.000009 -0.000007
                                -0.000048 -0.000034 -0.000125  0.000124  0.000137  0.000138  0.000205  0.000348 -0.000042  0.000174
                                 0.000020  0.000051 -0.000006  0.000016  0.000126  0.000225 -0.000273  0.000011  0.000011 -0.000011
                                -0.000027 -0.000010  0.000022  0.000092  0.000086 -0.000095

   5.1   0     0.0392   -2.2691  0.000000 -0.000000  0.000000 -0.000000  0.000000 -0.000000  0.000000 -0.000000  0.000000 -0.000000
                                 0.000000 -0.000001  0.000002 -0.000006  0.000014 -0.000036  0.000092 -0.000231  0.000571 -0.001377
                                 0.003226 -0.007209  0.015729 -0.033859  0.080643 -0.263689 -0.899856  1.241748  0.864166 -0.538872
                                 0.847420 -2.274465  2.260936  0.703560 -1.423426 -0.000000  0.000000  0.000000 -0.000000 -0.000000
                                 0.000000  0.000000 -0.000000 -0.000000  0.000000  0.000000 -0.000000 -0.000000  0.000000  0.000000
                                -0.000000 -0.000000  0.000000  0.000000 -0.000000  0.000000  0.000001  0.000000 -0.000002  0.000003
                                 0.000010  0.000005  0.000025 -0.000003 -0.000023  0.000002 -0.000038 -0.000024  0.000021 -0.000018
                                -0.000003  0.000005  0.000010 -0.000006 -0.000026 -0.000030  0.000061 -0.000002 -0.000002  0.000002
                                 0.000006  0.000003 -0.000004 -0.000021 -0.000020  0.000018

   6.1   0     0.2174   -3.4185 -0.000000  0.000000 -0.000000  0.000000 -0.000000  0.000000 -0.000000  0.000000 -0.000000  0.000000
                                -0.000001  0.000002 -0.000004  0.000011 -0.000027  0.000069 -0.000175  0.000439 -0.001081  0.002604
                                -0.006002  0.013370 -0.028284  0.061307 -0.154233  0.857843  3.986058 -4.465696 -2.898029  2.000049
                                -5.034818  5.310516 -1.984953 -3.388408  5.738731  0.000000  0.000000 -0.000000 -0.000000  0.000000
                                 0.000000 -0.000000 -0.000000  0.000000  0.000000 -0.000000 -0.000000  0.000000  0.000000 -0.000000
                                -0.000000  0.000000  0.000000 -0.000001 -0.000001  0.000001  0.000002 -0.000003 -0.000005  0.000016
                                 0.000023  0.000039  0.000059 -0.000037 -0.000062 -0.000080 -0.000135  0.000044  0.000067 -0.000047
                                -0.000073  0.000088  0.000132 -0.000040 -0.000060  0.000100  0.000164 -0.000001 -0.000001 -0.000001
                                 0.000002  0.000002  0.000001 -0.000007 -0.000008 -0.000006

                                   1 2px     1 2px     1 2px     1 2px     1 2px     1 2px     1 2px     1 2px     1 2px     1 2px  
                                   1 2px     1 2px     1 2px     1 2px     1 2px     1 2px     1 2px     1 2px     1 2px     1 2px  
                                   1 2px     1 2px     1 2px     1 2px     1 2px     1 2px     1 2px     1 2px     1 2px     1 2px  
                                   1 2px     1 4f1+    1 4f3+    1 4f1+    1 4f3+    1 4f1+    1 4f3+    1 4f1+    1 4f3+    1 4f1+ 
                                   1 4f3+    1 4f1+    1 4f3+    1 4f1+    1 4f3+    1 4f1+    1 4f3+    1 4f1+    1 4f3+    1 4f1+ 
                                   1 4f3+    1 4f1+    1 4f3+    1 4f1+    1 4f3+    1 4f1+    1 4f3+    1 4f1+    1 4f3+    1 4f1+ 
                                   1 4f3+ 

   1.2   2    -2.7474  -17.6227 -0.000000  0.000000 -0.000000  0.000000 -0.000000  0.000000 -0.000000  0.000001 -0.000002  0.000007
                                -0.000021  0.000061 -0.000166  0.000421 -0.001012  0.002255 -0.004934  0.009088 -0.018941  0.011535
                                 0.105175  2.226832  0.206427  0.235584  0.199512  0.007264  0.004582 -0.001716  0.000530 -2.394699
                                 0.389209  0.000000 -0.000000 -0.000000  0.000000  0.000000 -0.000000 -0.000000  0.000000  0.000000
                                -0.000000 -0.000000  0.000000  0.000000 -0.000000  0.000000  0.000000 -0.000000 -0.000000  0.000000
                                -0.000000  0.000000  0.000001 -0.000000  0.000000  0.000000  0.000001 -0.000000 -0.000000  0.000000
                                -0.000000

   2.2   0     0.0235   -2.4343  0.000000 -0.000000  0.000000 -0.000000  0.000000 -0.000000  0.000000 -0.000000  0.000000 -0.000002
                                 0.000005 -0.000014  0.000038 -0.000096  0.000232 -0.000526  0.001159 -0.002402  0.005304 -0.010871
                                 0.029831  0.324277 -0.196490 -0.449867  0.108882 -0.088434  0.353471 -0.421292  1.184637 -0.280810
                                 0.444254  0.000000  0.000000 -0.000000 -0.000000  0.000000  0.000000 -0.000000 -0.000000  0.000000
                                 0.000000 -0.000000 -0.000000  0.000000  0.000000 -0.000000 -0.000000  0.000001  0.000002  0.000004
                                 0.000010  0.000004  0.000008 -0.000002 -0.000006 -0.000004 -0.000010 -0.000002 -0.000005  0.000003
                                 0.000007

   3.2   0     0.0745   -3.2953 -0.000000  0.000000 -0.000000  0.000000 -0.000000  0.000000 -0.000000  0.000000 -0.000001  0.000002
                                -0.000005  0.000016 -0.000042  0.000106 -0.000254  0.000587 -0.001288  0.002977 -0.006577  0.020878
                                -0.095760 -1.550402  0.436052  1.094442 -0.349608  0.461145 -0.513064  2.003335 -1.417536  1.469036
                                -1.319327  0.000000  0.000000 -0.000000 -0.000000  0.000000  0.000000 -0.000000 -0.000000  0.000000
                                 0.000000 -0.000000 -0.000000  0.000000  0.000000 -0.000000 -0.000001  0.000001  0.000003  0.000007
                                 0.000016  0.000006  0.000013 -0.000004 -0.000009 -0.000007 -0.000016 -0.000003 -0.000007  0.000005
                                 0.000013

                                   1 2py     1 2py     1 2py     1 2py     1 2py     1 2py     1 2py     1 2py     1 2py     1 2py  
                                   1 2py     1 2py     1 2py     1 2py     1 2py     1 2py     1 2py     1 2py     1 2py     1 2py  
                                   1 2py     1 2py     1 2py     1 2py     1 2py     1 2py     1 2py     1 2py     1 2py     1 2py  
                                   1 2py     1 4f1-    1 4f3-    1 4f1-    1 4f3-    1 4f1-    1 4f3-    1 4f1-    1 4f3-    1 4f1- 
                                   1 4f3-    1 4f1-    1 4f3-    1 4f1-    1 4f3-    1 4f1-    1 4f3-    1 4f1-    1 4f3-    1 4f1- 
                                   1 4f3-    1 4f1-    1 4f3-    1 4f1-    1 4f3-    1 4f1-    1 4f3-    1 4f1-    1 4f3-    1 4f1- 
                                   1 4f3- 

   1.3   2    -2.7474  -17.6227 -0.000000  0.000000 -0.000000  0.000000 -0.000000  0.000000 -0.000000  0.000001 -0.000002  0.000007
                                -0.000021  0.000061 -0.000166  0.000421 -0.001012  0.002255 -0.004934  0.009088 -0.018941  0.011534
                                 0.105177  2.226850  0.206420  0.235565  0.199519  0.007265  0.004583 -0.001715  0.000530 -2.394715
                                 0.389226 -0.000000  0.000000  0.000000 -0.000000 -0.000000  0.000000  0.000000 -0.000000 -0.000000
                                 0.000000  0.000000 -0.000000 -0.000000  0.000000  0.000000 -0.000000 -0.000000 -0.000000 -0.000000
                                 0.000000 -0.000000  0.000000  0.000000 -0.000000  0.000001  0.000001  0.000000  0.000000 -0.000000
                                -0.000000

   2.3   0     0.0235   -2.4340  0.000000 -0.000000  0.000000 -0.000000  0.000000 -0.000000  0.000000 -0.000000  0.000000 -0.000002
                                 0.000005 -0.000014  0.000038 -0.000096  0.000232 -0.000526  0.001159 -0.002402  0.005304 -0.010872
                                 0.029838  0.324396 -0.196516 -0.449934  0.108907 -0.088473  0.353472 -0.421427  1.184751 -0.280924
                                 0.444343  0.000000  0.000000 -0.000000 -0.000000  0.000000  0.000000 -0.000000 -0.000000  0.000000
                                 0.000000 -0.000000 -0.000000  0.000000  0.000000 -0.000000 -0.000000  0.000002  0.000002  0.000008
                                 0.000010  0.000007  0.000008 -0.000005 -0.000006 -0.000008 -0.000010 -0.000004 -0.000005  0.000006
                                 0.000007

   3.3   0     0.0745   -3.2953 -0.000000  0.000000 -0.000000  0.000000 -0.000000  0.000000 -0.000000  0.000000 -0.000001  0.000002
                                -0.000005  0.000016 -0.000042  0.000106 -0.000254  0.000587 -0.001288  0.002978 -0.006578  0.020880
                                -0.095766 -1.550477  0.436085  1.094522 -0.349627  0.461157 -0.513165  2.003447 -1.417480  1.469103
                                -1.319410  0.000000  0.000000 -0.000000 -0.000000  0.000000  0.000000 -0.000000 -0.000000  0.000000
                                 0.000000 -0.000000 -0.000000  0.000000  0.000000 -0.000000 -0.000001  0.000003  0.000003  0.000013
                                 0.000017  0.000010  0.000014 -0.000007 -0.000010 -0.000013 -0.000017 -0.000006 -0.000008  0.000011
                                 0.000013

                                   1 3d2-    1 3d2-    1 3d2-    1 3d2-    1 3d2-    1 3d2-    1 3d2-    1 3d2-    1 3d2-    1 3d2- 
                                   1 3d2-    1 3d2-    1 3d2-    1 3d2-    1 3d2-    1 3d2-    1 3d2-    1 3d2-    1 3d2-    1 3d2- 
                                   1 3d2-    1 5g2-    1 5g4-    1 5g2-    1 5g4-    1 5g2-    1 5g4- 

   1.4   2    -0.4521  -11.3625  0.000000 -0.000000  0.000000 -0.000002  0.000007 -0.000024  0.000071 -0.000196  0.000485 -0.001336
                                 0.002328 -0.010340 -0.002324 -0.056197  0.253341  0.398674  0.348614  0.208048  0.058684  0.009729
                                -0.021459 -0.000000  0.000000  0.000000  0.000001  0.000001  0.000002

   2.4   0     0.2725   -3.7428  0.000000 -0.000001  0.000003 -0.000015  0.000059 -0.000199  0.000588 -0.001529  0.003628 -0.008136
                                 0.018942 -0.049847  0.257151  0.677902 -0.801109 -1.689358  0.549784 -0.854248  1.411080 -0.662411
                                 1.773922  0.000000  0.000000 -0.000001 -0.000001  0.000001  0.000001

   3.4   0     0.9240   -4.5539 -0.000000  0.000002 -0.000010  0.000047 -0.000184  0.000623 -0.001835  0.004796 -0.011411  0.025959
                                -0.059478  0.163065 -0.769717 -1.986177  2.099246  4.773629 -2.403799  2.744953 -1.132520  1.991059
                                -5.516765  0.000001  0.000002 -0.000002 -0.000005  0.000004  0.000010

                                   1 2pz     1 2pz     1 2pz     1 2pz     1 2pz     1 2pz     1 2pz     1 2pz     1 2pz     1 2pz  
                                   1 2pz     1 2pz     1 2pz     1 2pz     1 2pz     1 2pz     1 2pz     1 2pz     1 2pz     1 2pz  
                                   1 2pz     1 2pz     1 2pz     1 2pz     1 2pz     1 2pz     1 2pz     1 2pz     1 2pz     1 2pz  
                                   1 2pz     1 4f0     1 4f2+    1 4f0     1 4f2+    1 4f0     1 4f2+    1 4f0     1 4f2+    1 4f0  
                                   1 4f2+    1 4f0     1 4f2+    1 4f0     1 4f2+    1 4f0     1 4f2+    1 4f0     1 4f2+    1 4f0  
                                   1 4f2+    1 4f0     1 4f2+    1 4f0     1 4f2+    1 4f0     1 4f2+    1 4f0     1 4f2+    1 4f0  
                                   1 4f2+ 

   1.5   2    -2.7474  -17.6227 -0.000000  0.000000 -0.000000  0.000000 -0.000000  0.000000 -0.000000  0.000001 -0.000002  0.000007
                                -0.000021  0.000061 -0.000166  0.000421 -0.001012  0.002255 -0.004934  0.009088 -0.018941  0.011535
                                 0.105176  2.226833  0.206428  0.235587  0.199511  0.007264  0.004581 -0.001715  0.000530 -2.394700
                                 0.389206 -0.000000  0.000000  0.000000 -0.000000 -0.000000  0.000000  0.000000 -0.000000 -0.000000
                                 0.000000  0.000000 -0.000000 -0.000000 -0.000000  0.000000  0.000000 -0.000001 -0.000001 -0.000002
                                -0.000002  0.000000  0.000000  0.000002  0.000001  0.000002  0.000002 -0.000000 -0.000000 -0.000000
                                -0.000000

   2.5   0     0.0235   -2.4343  0.000000 -0.000000  0.000000 -0.000000  0.000000 -0.000000  0.000000 -0.000000  0.000000 -0.000002
                                 0.000005 -0.000014  0.000038 -0.000096  0.000232 -0.000526  0.001159 -0.002402  0.005304 -0.010871
                                 0.029830  0.324260 -0.196485 -0.449855  0.108878 -0.088428  0.353467 -0.421274  1.184624 -0.280794
                                 0.444240  0.000000  0.000000 -0.000000 -0.000000  0.000000  0.000000 -0.000000 -0.000000  0.000000
                                 0.000000 -0.000000 -0.000000  0.000000  0.000000 -0.000000 -0.000000  0.000002  0.000001  0.000009
                                 0.000007  0.000008  0.000006 -0.000005 -0.000004 -0.000010 -0.000007 -0.000005 -0.000003  0.000006
                                 0.000005

   3.5   0     0.0745   -3.2953 -0.000000  0.000000 -0.000000  0.000000 -0.000000  0.000000 -0.000000  0.000000 -0.000001  0.000002
                                -0.000005  0.000016 -0.000042  0.000106 -0.000254  0.000587 -0.001288  0.002977 -0.006577  0.020878
                                -0.095759 -1.550394  0.436049  1.094433 -0.349606  0.461143 -0.513054  2.003324 -1.417542  1.469028
                                -1.319318  0.000000  0.000000 -0.000000 -0.000000  0.000000  0.000000 -0.000000 -0.000000  0.000000
                                 0.000000 -0.000000 -0.000000  0.000000  0.000000 -0.000000 -0.000000  0.000003  0.000003  0.000014
                                 0.000012  0.000012  0.000010 -0.000008 -0.000007 -0.000014 -0.000012 -0.000007 -0.000005  0.000010
                                 0.000010

                                   1 3d1+    1 3d1+    1 3d1+    1 3d1+    1 3d1+    1 3d1+    1 3d1+    1 3d1+    1 3d1+    1 3d1+ 
                                   1 3d1+    1 3d1+    1 3d1+    1 3d1+    1 3d1+    1 3d1+    1 3d1+    1 3d1+    1 3d1+    1 3d1+ 
                                   1 3d1+    1 5g1+    1 5g3+    1 5g1+    1 5g3+    1 5g1+    1 5g3+ 

   1.6   2    -0.4522  -11.3626  0.000000 -0.000000  0.000000 -0.000002  0.000007 -0.000024  0.000071 -0.000196  0.000485 -0.001336
                                 0.002328 -0.010340 -0.002324 -0.056198  0.253341  0.398677  0.348614  0.208048  0.058683  0.009730
                                -0.021462 -0.000000  0.000000  0.000000  0.000001  0.000001  0.000002

   2.6   0     0.2725   -3.7428  0.000000 -0.000001  0.000003 -0.000015  0.000059 -0.000199  0.000588 -0.001529  0.003628 -0.008136
                                 0.018942 -0.049846  0.257145  0.677886 -0.801091 -1.689321  0.549766 -0.854229  1.411072 -0.662395
                                 1.773880  0.000000  0.000000 -0.000000 -0.000001  0.000000  0.000001

   3.6   0     0.9239   -4.5539 -0.000000  0.000002 -0.000010  0.000047 -0.000184  0.000623 -0.001835  0.004796 -0.011411  0.025958
                                -0.059477  0.163064 -0.769709 -1.986155  2.099224  4.773576 -2.403783  2.744950 -1.132527  1.991038
                                -5.516706  0.000001  0.000001 -0.000002 -0.000004  0.000003  0.000007

                                   1 3d1-    1 3d1-    1 3d1-    1 3d1-    1 3d1-    1 3d1-    1 3d1-    1 3d1-    1 3d1-    1 3d1- 
                                   1 3d1-    1 3d1-    1 3d1-    1 3d1-    1 3d1-    1 3d1-    1 3d1-    1 3d1-    1 3d1-    1 3d1- 
                                   1 3d1-    1 5g1-    1 5g3-    1 5g1-    1 5g3-    1 5g1-    1 5g3- 

   1.7   2    -0.4521  -11.3625  0.000000 -0.000000  0.000000 -0.000002  0.000007 -0.000024  0.000071 -0.000196  0.000485 -0.001336
                                 0.002328 -0.010340 -0.002324 -0.056197  0.253341  0.398675  0.348614  0.208048  0.058684  0.009729
                                -0.021459 -0.000000  0.000000  0.000001  0.000001  0.000002  0.000002

   2.7   0     0.2725   -3.7428  0.000000 -0.000001  0.000003 -0.000015  0.000059 -0.000199  0.000588 -0.001529  0.003628 -0.008136
                                 0.018942 -0.049847  0.257151  0.677901 -0.801108 -1.689356  0.549783 -0.854247  1.411079 -0.662410
                                 1.773920  0.000000  0.000000 -0.000001 -0.000001  0.000001  0.000001

   3.7   0     0.9240   -4.5539 -0.000000  0.000002 -0.000010  0.000047 -0.000184  0.000623 -0.001835  0.004796 -0.011411  0.025959
                                -0.059478  0.163065 -0.769717 -1.986175  2.099245  4.773626 -2.403798  2.744953 -1.132520  1.991058
                                -5.516761  0.000001  0.000001 -0.000004 -0.000004  0.000008  0.000007

                                   1 4f2-    1 4f2-    1 4f2-    1 4f2-    1 4f2-    1 4f2-    1 4f2-    1 4f2-    1 4f2-    1 4f2- 
                                   1 4f2-    1 4f2-    1 4f2-    1 4f2-    1 4f2- 

   1.8   0     0.6558   -4.1268  0.000011 -0.000077  0.000354 -0.001260  0.003705 -0.009827  0.025386 -0.076611  0.471462  2.337747
                                 2.097419 -1.331874 -2.390113 -1.451082  1.321295

   2.8   0     1.5378   -4.8310 -0.000023  0.000155 -0.000717  0.002542 -0.007518  0.019671 -0.051906  0.154151 -0.960138 -5.128013
                                -4.785445  2.899822  5.505705  3.958704 -1.041151

 HOMO      4.1    -0.292167 =      -7.9503eV
 LUMO      2.5     0.023530 =       0.6403eV
 LUMO-HOMO         0.315698 =       8.5906eV

 No convergence



 **********************************************************************************************************************************
 DATASETS  * FILE   NREC   LENGTH (MB)   RECORD NAMES
              1      19       20.92       500      610      700      900      950      970     1000      129      960     1100   
                                          VAR    BASINP    GEOM    SYMINP    ZMAT    AOBASIS   BASIS     P2S    ABASIS      S 
                                         1400     1410     1420     1200     1210     1080     1600     1650     1700   
                                           T        V       ECP      H0       H01     AOSYM     SMH    MOLCAS    OPER   

              2       5        5.99       200      700     1000      520     4202   
                                        OPTIONS   GEOM     BASIS   MCVARS     RHF  

 PROGRAMS   *        TOTAL       RHF       INT
 CPU TIMES  *       196.90      9.45    186.64
 REAL TIME  *       208.95 SEC
 DISK USED  *         4.57 GB      
 SF USED    *         0.09 MB      
 GA USED    *         0.00 MB       (max)       0.00 MB       (current)
 **********************************************************************************************************************************


 PROGRAM * POP (Mulliken population analysis)

 
 Density matrix read from record         4202.2  Type=RHF/CHARGE (state 1.1)
 
 Population analysis by basis function type

 Unique atom        s        p        d        f        g    Total    Charge
   1  AU      3.00000  6.00000 10.00000  0.00000  0.00000 19.00000  + 0.00000


 **********************************************************************************************************************************
 DATASETS  * FILE   NREC   LENGTH (MB)   RECORD NAMES
              1      19       20.92       500      610      700      900      950      970     1000      129      960     1100   
                                          VAR    BASINP    GEOM    SYMINP    ZMAT    AOBASIS   BASIS     P2S    ABASIS      S 
                                         1400     1410     1420     1200     1210     1080     1600     1650     1700   
                                           T        V       ECP      H0       H01     AOSYM     SMH    MOLCAS    OPER   

              2       5        5.99       200      700     1000      520     4202   
                                        OPTIONS   GEOM     BASIS   MCVARS     RHF  

 PROGRAMS   *        TOTAL       POP       RHF       INT
 CPU TIMES  *       196.90      0.00      9.45    186.64
 REAL TIME  *       208.96 SEC
 DISK USED  *         4.57 GB      
 SF USED    *         0.09 MB      
 GA USED    *         0.00 MB       (max)       0.00 MB       (current)
 **********************************************************************************************************************************


 PROGRAM * MULTI (Direct Multiconfiguration SCF)       Authors: P.J. Knowles, H.-J. Werner (1984)     S.T. Elbert (1988)


 Number of closed-shell orbitals:   9 (   3   1   1   1   1   1   1   0 )
 Number of active  orbitals:        1 (   1   0   0   0   0   0   0   0 )
 Number of external orbitals:     355 (  82  60  60  26  60  26  26  15 )

 State symmetry 1

 Orbital occupancy restrictions for symmetry 1
  1      1       2                               

 Number of electrons:     1    Spin symmetry=Doublet   Space symmetry=1
 Number of states:        1
 Number of CSFs:          1
 
 Maximum number of shells:             1
 Maximum number of spin couplings:     1

 Storage for configuration lists       2, coupling coefficients      1, address lists      7

 Molecular orbitals read from record     4202.2  Type=RHF/CANONICAL (state 1.1)
 *** IN SYMMETRY 1 ORBITAL  2 SYMMETRY CONTAMINATION OF 0.386D+00 HAS BEEN REMOVED
 *** IN SYMMETRY 1 ORBITAL  3 SYMMETRY CONTAMINATION OF 0.386D+00 HAS BEEN REMOVED
 *** IN SYMMETRY 1 ORBITAL  4 SYMMETRY CONTAMINATION OF 0.839D-03 HAS BEEN REMOVED

 EXTRA SYMMETRY OF MOS IN SYMMETRY 1:   1 3 2 1 1 1 2 3 1 3   2 4 5 6 2 3 1 2 3 4   5 6 1 3 2 6 4 5 1 2   3 1 2 3 1 2 3 1 3 2
                                        1 3 2 3 2 1 3 2 1 2   3 1 3 2 1 2 3 1 3 2   1 1 3 2 1 2 3 1 2 3   1 1 2 3 1 1 1 1 1 1
                                        1 1 1 1 1 1
 EXTRA SYMMETRY OF MOS IN SYMMETRY 2:   1 1 1 1 2 3 1 2 3 1   2 3 1 2 3 1 2 3 2 3   1 2 3 1 2 3 1 3 2 1   3 2 1 1 3 2 1 3 2 1
                                        3 2 1 3 2 1 1 3 2 1   1 1 1 1 1 1 1 1 1 1   1
 EXTRA SYMMETRY OF MOS IN SYMMETRY 3:   1 1 1 1 2 3 1 2 3 1   2 3 1 2 3 1 2 3 2 3   1 3 2 1 3 2 1 3 2 1   3 2 1 1 3 2 1 3 2 1
                                        2 3 1 3 2 1 1 3 2 1   1 1 1 1 1 1 1 1 1 1   1
 EXTRA SYMMETRY OF MOS IN SYMMETRY 4:   1 1 1 2 3 1 1 2 3 1   2 3 1 1 1 1 1 1 1 1   1 1 1 1 1 1 1
 EXTRA SYMMETRY OF MOS IN SYMMETRY 5:   1 1 1 1 2 3 1 2 3 1   2 3 1 2 3 1 2 3 2 3   1 3 2 1 2 3 1 3 2 1   3 2 1 1 3 2 1 2 3 1
                                        2 3 1 2 3 1 1 3 2 1   1 1 1 1 1 1 1 1 1 1   1
 EXTRA SYMMETRY OF MOS IN SYMMETRY 6:   1 1 1 2 3 1 1 2 3 1   2 3 1 1 1 1 1 1 1 1   1 1 1 1 1 1 1
 EXTRA SYMMETRY OF MOS IN SYMMETRY 7:   1 1 1 3 2 1 1 3 2 1   3 2 1 1 1 1 1 1 1 1   1 1 1 1 1 1 1

 Wavefunction dump at record             5202.2

 Convergence thresholds  0.10E-01 (gradient)  0.10E-05 (energy)  0.10E-02 (step length)

 Number of orbital rotations:      589   (     3 Core/Active    504 Core/Virtual   0 Active/Active     82 Active/Virtual)
 Total number of variables:        590


 ITER. MIC  NCI  NEG     ENERGY(VAR)     ENERGY(PROJ)   ENERGY CHANGE     GRAD(0)  GRAD(ORB)   GRAD(CI)     STEP       TIME

   1   24    4    0    -135.20120136    -135.20120137   -0.00000001    0.00030027 0.00000000 0.00000000  0.14D-03      1.36

 ** WVFN ****  CONVERGENCE REACHED, FINAL GRADIENT:  0.22D-08


 First order charge density matrix for state 1.1 saved on record  5202.2 (density set 1)

 Results for state 1.1
 =====================

 !MCSCF STATE 1.1 Energy             -135.201201370237
 Nuclear energy                         0.00000000
 Kinetic energy                        44.49898012
 One electron energy                 -239.72929378
 Two electron energy                  104.52809241
 Virial ratio                           4.03829888

 !MCSCF STATE 1.1 Dipole moment         0.00000000     0.00000000     0.00000000
 Dipole moment /Debye                   0.00000000     0.00000000     0.00000000


 NATURAL ORBITALS
 ================

   Orb     Occ        Energy       Coefficients

                                   1 1s      1 1s      1 1s      1 1s      1 1s      1 1s      1 1s      1 1s      1 1s      1 1s   
                                   1 1s      1 1s      1 1s      1 1s      1 1s      1 1s      1 1s      1 1s      1 1s      1 1s   
                                   1 1s      1 1s      1 1s      1 1s      1 1s      1 1s      1 1s      1 1s      1 1s      1 1s   
                                   1 1s      1 1s      1 1s      1 1s      1 1s      1 3d0     1 3d2+    1 3d0     1 3d2+    1 3d0  
                                   1 3d2+    1 3d0     1 3d2+    1 3d0     1 3d2+    1 3d0     1 3d2+    1 3d0     1 3d2+    1 3d0  
                                   1 3d2+    1 3d0     1 3d2+    1 3d0     1 3d2+    1 3d0     1 3d2+    1 3d0     1 3d2+    1 3d0  
                                   1 3d2+    1 3d0     1 3d2+    1 3d0     1 3d2+    1 3d0     1 3d2+    1 3d0     1 3d2+    1 3d0  
                                   1 3d2+    1 3d0     1 3d2+    1 3d0     1 3d2+    1 3d0     1 3d2+    1 5g0     1 5g4+    1 5g2+ 
                                   1 5g0     1 5g4+    1 5g2+    1 5g0     1 5g4+    1 5g2+ 

   1.1  2.00000    -4.687347     0.000000 -0.000000  0.000000 -0.000000  0.000000 -0.000000  0.000000 -0.000000  0.000000 -0.000000
                                 0.000001 -0.000003  0.000008 -0.000021  0.000055 -0.000140  0.000354 -0.000885  0.002193 -0.005267
                                 0.012456 -0.027626  0.060398 -0.122056  0.234143  0.085943  1.506091  0.072626  0.348595  0.058605
                                -0.020954  0.008839 -0.002310 -2.016354  0.613996  0.000000  0.000000  0.000000  0.000000  0.000000
                                 0.000000  0.000000  0.000000  0.000000  0.000000  0.000000  0.000000  0.000000  0.000000  0.000000
                                 0.000000  0.000000  0.000000  0.000000  0.000000  0.000000  0.000000  0.000000  0.000000  0.000000
                                 0.000000  0.000000  0.000000  0.000000  0.000000  0.000000  0.000000  0.000000  0.000000  0.000000
                                 0.000000  0.000000  0.000000  0.000000  0.000000  0.000000  0.000000  0.000000  0.000000  0.000000
                                 0.000000  0.000000  0.000000  0.000000  0.000000  0.000000

   2.1  2.00000    -0.452162     0.000000  0.000000  0.000000  0.000000  0.000000  0.000000  0.000000  0.000000  0.000000  0.000000
                                 0.000000  0.000000  0.000000  0.000000  0.000000  0.000000  0.000000  0.000000  0.000000  0.000000
                                 0.000000  0.000000  0.000000  0.000000  0.000000  0.000000  0.000000  0.000000  0.000000  0.000000
                                 0.000000  0.000000  0.000000  0.000000  0.000000  0.000000 -0.000000  0.000000  0.000000  0.000000
                                -0.000000  0.000000  0.000002  0.000000 -0.000007  0.000000  0.000024  0.000000 -0.000071  0.000000
                                 0.000196  0.000000 -0.000485  0.000000  0.001336  0.000000 -0.002328  0.000000  0.010340  0.000000
                                 0.002323  0.000000  0.056197  0.000000 -0.253341  0.000000 -0.398675  0.000000 -0.348616  0.000000
                                -0.208046  0.000000 -0.058679  0.000000 -0.009728  0.000000  0.021458  0.000000  0.000000  0.000000
                                 0.000000  0.000000  0.000000  0.000000  0.000000  0.000000

   3.1  2.00000    -0.452162     0.000000  0.000000  0.000000  0.000000  0.000000  0.000000  0.000000  0.000000  0.000000  0.000000
                                 0.000000  0.000000  0.000000  0.000000  0.000000  0.000000  0.000000  0.000000  0.000000  0.000000
                                 0.000000  0.000000  0.000000  0.000000  0.000000  0.000000  0.000000  0.000000  0.000000  0.000000
                                 0.000000  0.000000  0.000000  0.000000  0.000000 -0.000000  0.000000  0.000000  0.000000 -0.000000
                                 0.000000  0.000002  0.000000 -0.000007  0.000000  0.000024  0.000000 -0.000071  0.000000  0.000196
                                 0.000000 -0.000485  0.000000  0.001336  0.000000 -0.002328  0.000000  0.010340  0.000000  0.002323
                                 0.000000  0.056197  0.000000 -0.253341  0.000000 -0.398675  0.000000 -0.348616  0.000000 -0.208046
                                 0.000000 -0.058679  0.000000 -0.009728  0.000000  0.021458  0.000000  0.000000  0.000000  0.000000
                                 0.000000  0.000000  0.000000  0.000000  0.000000  0.000000

   4.1  1.00000    -0.143907    -0.000000  0.000000 -0.000000  0.000000 -0.000000  0.000000 -0.000000  0.000000 -0.000000  0.000000
                                -0.000000  0.000001 -0.000003  0.000007 -0.000018  0.000045 -0.000114  0.000285 -0.000706  0.001701
                                -0.004052  0.009084 -0.020392  0.043548 -0.097816  0.084879 -0.384771 -0.173331 -0.277888  0.184196
                                 0.647822  0.355810  0.011463  0.488793 -0.177685  0.000000  0.000000  0.000000  0.000000  0.000000
                                 0.000000  0.000000  0.000000  0.000000  0.000000  0.000000  0.000000  0.000000  0.000000  0.000000
                                 0.000000  0.000000  0.000000  0.000000  0.000000  0.000000  0.000000  0.000000  0.000000  0.000000
                                 0.000000  0.000000  0.000000  0.000000  0.000000  0.000000  0.000000  0.000000  0.000000  0.000000
                                 0.000000  0.000000  0.000000  0.000000  0.000000  0.000000  0.000000  0.000000  0.000000  0.000000
                                 0.000000  0.000000  0.000000  0.000000  0.000000  0.000000

                                   1 2px     1 2px     1 2px     1 2px     1 2px     1 2px     1 2px     1 2px     1 2px     1 2px  
                                   1 2px     1 2px     1 2px     1 2px     1 2px     1 2px     1 2px     1 2px     1 2px     1 2px  
                                   1 2px     1 2px     1 2px     1 2px     1 2px     1 2px     1 2px     1 2px     1 2px     1 2px  
                                   1 2px     1 4f1+    1 4f3+    1 4f1+    1 4f3+    1 4f1+    1 4f3+    1 4f1+    1 4f3+    1 4f1+ 
                                   1 4f3+    1 4f1+    1 4f3+    1 4f1+    1 4f3+    1 4f1+    1 4f3+    1 4f1+    1 4f3+    1 4f1+ 
                                   1 4f3+    1 4f1+    1 4f3+    1 4f1+    1 4f3+    1 4f1+    1 4f3+    1 4f1+    1 4f3+    1 4f1+ 
                                   1 4f3+ 

   1.2  2.00000    -2.747439    -0.000000  0.000000 -0.000000  0.000000 -0.000000  0.000000 -0.000000  0.000001 -0.000002  0.000007
                                -0.000021  0.000061 -0.000166  0.000421 -0.001012  0.002255 -0.004934  0.009088 -0.018941  0.011535
                                 0.105176  2.226839  0.206424  0.235578  0.199515  0.007264  0.004582 -0.001715  0.000530 -2.394706
                                 0.389215  0.000000  0.000000  0.000000  0.000000  0.000000  0.000000  0.000000  0.000000  0.000000
                                 0.000000  0.000000  0.000000  0.000000  0.000000  0.000000  0.000000  0.000000  0.000000  0.000000
                                 0.000000  0.000000  0.000000  0.000000  0.000000  0.000000  0.000000  0.000000  0.000000  0.000000
                                 0.000000

                                   1 2py     1 2py     1 2py     1 2py     1 2py     1 2py     1 2py     1 2py     1 2py     1 2py  
                                   1 2py     1 2py     1 2py     1 2py     1 2py     1 2py     1 2py     1 2py     1 2py     1 2py  
                                   1 2py     1 2py     1 2py     1 2py     1 2py     1 2py     1 2py     1 2py     1 2py     1 2py  
                                   1 2py     1 4f1-    1 4f3-    1 4f1-    1 4f3-    1 4f1-    1 4f3-    1 4f1-    1 4f3-    1 4f1- 
                                   1 4f3-    1 4f1-    1 4f3-    1 4f1-    1 4f3-    1 4f1-    1 4f3-    1 4f1-    1 4f3-    1 4f1- 
                                   1 4f3-    1 4f1-    1 4f3-    1 4f1-    1 4f3-    1 4f1-    1 4f3-    1 4f1-    1 4f3-    1 4f1- 
                                   1 4f3- 

   1.3  2.00000    -2.747439    -0.000000  0.000000 -0.000000  0.000000 -0.000000  0.000000 -0.000000  0.000001 -0.000002  0.000007
                                -0.000021  0.000061 -0.000166  0.000421 -0.001012  0.002255 -0.004934  0.009088 -0.018941  0.011535
                                 0.105176  2.226839  0.206424  0.235578  0.199515  0.007264  0.004582 -0.001715  0.000530 -2.394706
                                 0.389215  0.000000  0.000000  0.000000  0.000000  0.000000  0.000000  0.000000  0.000000  0.000000
                                 0.000000  0.000000  0.000000  0.000000  0.000000  0.000000  0.000000  0.000000  0.000000  0.000000
                                 0.000000  0.000000  0.000000  0.000000  0.000000  0.000000  0.000000  0.000000  0.000000  0.000000
                                 0.000000

                                   1 3d2-    1 3d2-    1 3d2-    1 3d2-    1 3d2-    1 3d2-    1 3d2-    1 3d2-    1 3d2-    1 3d2- 
                                   1 3d2-    1 3d2-    1 3d2-    1 3d2-    1 3d2-    1 3d2-    1 3d2-    1 3d2-    1 3d2-    1 3d2- 
                                   1 3d2-    1 5g2-    1 5g4-    1 5g2-    1 5g4-    1 5g2-    1 5g4- 

   1.4  2.00000    -0.452162     0.000000 -0.000000  0.000000 -0.000002  0.000007 -0.000024  0.000071 -0.000196  0.000485 -0.001336
                                 0.002328 -0.010340 -0.002323 -0.056197  0.253341  0.398675  0.348616  0.208046  0.058679  0.009728
                                -0.021458  0.000000  0.000000  0.000000  0.000000  0.000000  0.000000

                                   1 2pz     1 2pz     1 2pz     1 2pz     1 2pz     1 2pz     1 2pz     1 2pz     1 2pz     1 2pz  
                                   1 2pz     1 2pz     1 2pz     1 2pz     1 2pz     1 2pz     1 2pz     1 2pz     1 2pz     1 2pz  
                                   1 2pz     1 2pz     1 2pz     1 2pz     1 2pz     1 2pz     1 2pz     1 2pz     1 2pz     1 2pz  
                                   1 2pz     1 4f0     1 4f2+    1 4f0     1 4f2+    1 4f0     1 4f2+    1 4f0     1 4f2+    1 4f0  
                                   1 4f2+    1 4f0     1 4f2+    1 4f0     1 4f2+    1 4f0     1 4f2+    1 4f0     1 4f2+    1 4f0  
                                   1 4f2+    1 4f0     1 4f2+    1 4f0     1 4f2+    1 4f0     1 4f2+    1 4f0     1 4f2+    1 4f0  
                                   1 4f2+ 

   1.5  2.00000    -2.747439    -0.000000  0.000000 -0.000000  0.000000 -0.000000  0.000000 -0.000000  0.000001 -0.000002  0.000007
                                -0.000021  0.000061 -0.000166  0.000421 -0.001012  0.002255 -0.004934  0.009088 -0.018941  0.011535
                                 0.105176  2.226839  0.206424  0.235578  0.199515  0.007264  0.004582 -0.001715  0.000530 -2.394706
                                 0.389215  0.000000  0.000000  0.000000  0.000000  0.000000  0.000000  0.000000  0.000000  0.000000
                                 0.000000  0.000000  0.000000  0.000000  0.000000  0.000000  0.000000  0.000000  0.000000  0.000000
                                 0.000000  0.000000  0.000000  0.000000  0.000000  0.000000  0.000000  0.000000  0.000000  0.000000
                                 0.000000

                                   1 3d1+    1 3d1+    1 3d1+    1 3d1+    1 3d1+    1 3d1+    1 3d1+    1 3d1+    1 3d1+    1 3d1+ 
                                   1 3d1+    1 3d1+    1 3d1+    1 3d1+    1 3d1+    1 3d1+    1 3d1+    1 3d1+    1 3d1+    1 3d1+ 
                                   1 3d1+    1 5g1+    1 5g3+    1 5g1+    1 5g3+    1 5g1+    1 5g3+ 

   1.6  2.00000    -0.452162     0.000000 -0.000000  0.000000 -0.000002  0.000007 -0.000024  0.000071 -0.000196  0.000485 -0.001336
                                 0.002328 -0.010340 -0.002323 -0.056197  0.253341  0.398675  0.348616  0.208046  0.058679  0.009728
                                -0.021458  0.000000  0.000000  0.000000  0.000000  0.000000  0.000000

                                   1 3d1-    1 3d1-    1 3d1-    1 3d1-    1 3d1-    1 3d1-    1 3d1-    1 3d1-    1 3d1-    1 3d1- 
                                   1 3d1-    1 3d1-    1 3d1-    1 3d1-    1 3d1-    1 3d1-    1 3d1-    1 3d1-    1 3d1-    1 3d1- 
                                   1 3d1-    1 5g1-    1 5g3-    1 5g1-    1 5g3-    1 5g1-    1 5g3- 

   1.7  2.00000    -0.452162     0.000000 -0.000000  0.000000 -0.000002  0.000007 -0.000024  0.000071 -0.000196  0.000485 -0.001336
                                 0.002328 -0.010340 -0.002323 -0.056197  0.253341  0.398675  0.348616  0.208046  0.058679  0.009728
                                -0.021458  0.000000  0.000000  0.000000  0.000000  0.000000  0.000000
 

 EXTRA SYMMETRY OF MOS IN SYMMETRY 1:   1 3 2 1 1 1 3 2 1 2   3 6 5 4 3 2 1 2 3 4   6 5 1 2 3 4 6 5 1 3   2 1 3 2 1 3 2 1 3 2
                                        1 3 2 3 2 1 2 3 1 2   3 1 2 3 1 2 3 1 2 3   1 1 3 2 1 2 3 1 2 3   1 1 3 2 1 1 1 1 1 1
                                        1 1 1 1 1 1
 EXTRA SYMMETRY OF MOS IN SYMMETRY 2:   1 1 1 1 3 2 1 2 3 1   3 2 1 3 2 1 3 2 2 3   1 2 3 1 2 3 1 2 3 1   2 3 1 1 2 3 1 3 2 1
                                        3 2 1 2 3 1 1 2 3 1   1 1 1 1 1 1 1 1 1 1   1
 EXTRA SYMMETRY OF MOS IN SYMMETRY 3:   1 1 1 1 3 2 1 3 2 1   3 2 1 3 2 1 3 2 3 2   1 2 3 1 2 3 1 2 3 1   2 3 1 1 2 3 1 3 2 1
                                        3 2 1 2 3 1 1 2 3 1   1 1 1 1 1 1 1 1 1 1   1
 EXTRA SYMMETRY OF MOS IN SYMMETRY 4:   1 1 1 3 2 1 1 2 3 1   2 3 1 1 1 1 1 1 1 1   1 1 1 1 1 1 1
 EXTRA SYMMETRY OF MOS IN SYMMETRY 5:   1 1 1 1 2 3 1 2 3 1   3 2 1 3 2 1 3 2 3 2   1 2 3 1 2 3 1 2 3 1   2 3 1 1 2 3 1 2 3 1
                                        2 3 1 3 2 1 1 3 2 1   1 1 1 1 1 1 1 1 1 1   1
 EXTRA SYMMETRY OF MOS IN SYMMETRY 7:   1 1 1 3 2 1 1 2 3 1   2 3 1 1 1 1 1 1 1 1   1 1 1 1 1 1 1

 Natural orbital dump at molpro section  5202.2    (Orbital set 2)


 CI vector
 =========

 /             1.0000000


 **********************************************************************************************************************************
 DATASETS  * FILE   NREC   LENGTH (MB)   RECORD NAMES
              1      20       32.94       500      610      700      900      950      970     1000      129      960     1100   
                                          VAR    BASINP    GEOM    SYMINP    ZMAT    AOBASIS   BASIS     P2S    ABASIS      S 
                                         1400     1410     1420     1200     1210     1080     1600     1650     1700     1380   
                                           T        V       ECP      H0       H01     AOSYM     SMH    MOLCAS    OPER     JKOP   

              2       6        9.24       200      700     1000      520     4202     5202   
                                        OPTIONS   GEOM     BASIS   MCVARS     RHF     MCSCF   

 PROGRAMS   *        TOTAL     MULTI       POP       RHF       INT
 CPU TIMES  *       200.33      3.42      0.00      9.45    186.64
 REAL TIME  *       213.60 SEC
 DISK USED  *         4.57 GB      
 SF USED    *        51.48 MB      
 GA USED    *         0.00 MB       (max)       0.00 MB       (current)
 **********************************************************************************************************************************


 PROGRAM * RHF-SCF (OPEN SHELL)       Authors: W. Meyer, H.-J. Werner


 NUMBER OF ELECTRONS:      10+    9-    SPACE SYMMETRY=1    SPIN SYMMETRY: Doublet 
 CONVERGENCE THRESHOLDS:    1.00E-05 (Density)    1.00E-07 (Energy)
 MAX. NUMBER OF ITERATIONS:        0
 INTERPOLATION TYPE:            DIIS
 INTERPOLATION STEPS:              2 (START)      1 (STEP)
 LEVEL SHIFTS:                 -0.60 (CLOSED) -0.30 (OPEN) 


 Singly occupied orbitals:      4.1
 Molecular orbitals read from record     5202.2  Type=MCSCF/NATURAL (state 1.1)

 Molecular orbital dump at record        2103.2

 ITERATION    DDIFF          GRAD             ENERGY        2-EL.EN.            DIPOLE MOMENTS         DIIS   ORB.
    1      0.000D+00      0.000D+00      -135.20120137    209.056185    0.00000    0.00000    0.00000    0    start

 Final alpha occupancy:   4   1   1   1   1   1   1   0
 Final beta  occupancy:   3   1   1   1   1   1   1   0

 !RHF STATE 1.1 Energy               -135.201201370237
 Nuclear energy                         0.00000000
 One-electron energy                 -239.72929378
 Two-electron energy                  104.52809241
 Virial quotient                       -3.03829888
 !RHF STATE 1.1 Dipole moment           0.00000000     0.00000000     0.00000000
 Dipole moment /Debye                   0.00000000     0.00000000     0.00000000

 Orbital energies:

         1.1          2.1          3.1          4.1          5.1          6.1
     -4.687347    -0.452162    -0.452162    -0.143907     0.041311     0.226025

         1.2          2.2          3.2
     -2.747439     0.026838     0.086437

         1.3          2.3          3.3
     -2.747439     0.026838     0.086438

         1.4          2.4          3.4
     -0.452162     0.277360     0.931575

         1.5          2.5          3.5
     -2.747439     0.026838     0.086438

         1.6          2.6          3.6
     -0.452162     0.277360     0.931575

         1.7          2.7          3.7
     -0.452162     0.277360     0.931575

         1.8          2.8
      0.662982     1.543674

 HOMO      4.1    -0.143907 =      -3.9159eV
 LUMO      2.2     0.026838 =       0.7303eV
 LUMO-HOMO         0.170745 =       4.6462eV


 **********************************************************************************************************************************
 DATASETS  * FILE   NREC   LENGTH (MB)   RECORD NAMES
              1      20       32.94       500      610      700      900      950      970     1000      129      960     1100   
                                          VAR    BASINP    GEOM    SYMINP    ZMAT    AOBASIS   BASIS     P2S    ABASIS      S 
                                         1400     1410     1420     1200     1210     1080     1600     1650     1700     1380   
                                           T        V       ECP      H0       H01     AOSYM     SMH    MOLCAS    OPER     JKOP   

              2       7       12.43       200      700     1000      520     4202     5202     2103   
                                        OPTIONS   GEOM     BASIS   MCVARS     RHF     MCSCF     RHF  

 PROGRAMS   *        TOTAL       RHF     MULTI       POP       RHF       INT
 CPU TIMES  *       202.46      2.13      3.42      0.00      9.45    186.64
 REAL TIME  *       217.12 SEC
 DISK USED  *         4.57 GB      
 SF USED    *        51.48 MB      
 GA USED    *         0.00 MB       (max)       0.00 MB       (current)
 **********************************************************************************************************************************
 SETTING SCF(1)         =      -135.20120137  AU                              
 SETTING _CC_NORM_MAX   =         2.00000000                                  


 PROGRAM * CCSD (Restricted open-shell coupled cluster)     Authors: C. Hampel, H.-J. Werner, 1991, M. Deegan, P.J. Knowles, 1992


 Convergence thresholds:  THRVAR = 1.00D-08  THRDEN = 1.00D-06

 CCSD(T)     terms to be evaluated (factor= 1.000)


 Number of closed-shell orbitals:   9 (   3   1   1   1   1   1   1   0 )
 Number of active  orbitals:        1 (   1   0   0   0   0   0   0   0 )
 Number of external orbitals:     355 (  82  60  60  26  60  26  26  15 )

 Memory could be reduced to 104.31 Mwords without degradation in triples

 Number of N-1 electron functions:              19
 Number of N-2 electron functions:             171
 Number of singly external CSFs:              1097
 Number of doubly external CSFs:           2120319
 Total number of CSFs:                     2121416

 Molecular orbitals read from record     2103.2  Type=RHF/CANONICAL (state 1.1)

 Integral transformation finished. Total CPU:   2.26 sec, npass=  1  Memory used:  18.50 MW

 Starting RMP2 calculation

 Wavefunction is spin-projected

 ITER.      SQ.NORM     CORR.ENERGY   TOTAL ENERGY   ENERGY CHANGE        DEN1      VAR(S)    VAR(P)  DIIS     TIME
   1      1.14067392    -0.73823015  -135.93943152    -0.73823015    -0.00140018  0.32D-05  0.53D-03  1  1     3.68
   2      1.14191669    -0.73971046  -135.94091183    -0.00148031    -0.00000333  0.23D-07  0.21D-05  2  2     5.21
   3      1.14198081    -0.73975054  -135.94095191    -0.00004008    -0.00000001  0.80D-10  0.65D-08  3  3     6.51
   4      1.14198234    -0.73975089  -135.94095226    -0.00000035    -0.00000000  0.15D-12  0.23D-10  4  4     7.79

 Norm of t1 vector:      0.01616676      S-energy:    -0.00044542      T1 diagnostic:  0.00001094
 Norm of t2 vector:      0.37645846      P-energy:    -0.73930547
                                         Alpha-Beta:  -0.50774848
                                         Alpha-Alpha: -0.12729639
                                         Beta-Beta:   -0.10426060

 Spin contamination <S**2-Sz**2-Sz>     0.00000000
  Reference energy                   -135.201201370237
  RHF-RMP2 correlation energy          -0.739750888852
 !RHF-RMP2 energy                    -135.940952259090
 (NB above energy spin projected)

 Starting RCCSD calculation

 ITER.      SQ.NORM     CORR.ENERGY   TOTAL ENERGY   ENERGY CHANGE        DEN1      VAR(S)    VAR(P)  DIIS     TIME
   1      1.11624420    -0.68393893  -135.88514030    -0.68393893    -0.01444526  0.24D-02  0.24D-02  1  1    10.47
   2      1.12489278    -0.69685119  -135.89805256    -0.01291226    -0.00079428  0.24D-03  0.22D-03  2  2    13.12
   3      1.12788513    -0.69776816  -135.89896953    -0.00091697    -0.00010076  0.88D-04  0.13D-04  3  3    15.66
   4      1.12960629    -0.69830586  -135.89950723    -0.00053769    -0.00001253  0.11D-04  0.19D-05  4  4    18.27
   5      1.13029818    -0.69846333  -135.89966470    -0.00015747    -0.00000094  0.83D-06  0.16D-06  5  5    22.78
   6      1.13044923    -0.69848078  -135.89968215    -0.00001745    -0.00000004  0.35D-07  0.82D-08  6  6    24.13
   7      1.13047558    -0.69848499  -135.89968636    -0.00000421    -0.00000000  0.12D-08  0.68D-09  6  1    26.99
   8      1.13047733    -0.69848507  -135.89968644    -0.00000008    -0.00000000  0.80D-10  0.56D-10  6  2    29.85

 Norm of t1 vector:      0.08450811      S-energy:    -0.00050493      T1 diagnostic:  0.01341005
                                                                       D1 diagnostic:  0.04907192
 Norm of t2 vector:      0.35119184      P-energy:    -0.69798014
                                         Alpha-Beta:  -0.49771546
                                         Alpha-Alpha: -0.10991920
                                         Beta-Beta:   -0.09034548

 Singles amplitudes (print threshold =  0.500E-01):

         I         SYM. A    A   T(IA) [Alpha-Alpha]

         4         1         3     -0.05195878

 Spin contamination <S**2-Sz**2-Sz>     0.00000000

 Memory could be reduced to 106.18 Mwords without degradation in triples
 

  Correlated core orbitals:             1.1       1.2       1.3       1.5
  Orbital energies:                    -4.6933   -2.7512   -2.7512   -2.7512
 
  RCCSD core-core energy               -0.102534256099
  RCCSD core-valence energy            -0.228117780985
  RCCSD valence correlation energy     -0.367833036853
 

 RESULTS
 =======

  Reference energy                   -135.201201370237
  RCCSD singles energy                 -0.000504932818
  RCCSD pair energy                    -0.697980141119
  RCCSD correlation energy             -0.698485073937
  Triples (T) contribution             -0.026919763166
  Total correlation energy             -0.725404837104
 
  RHF-RCCSD energy                   -135.899686444175
  RHF-RCCSD[T] energy                -135.927244983068
  RHF-RCCSD-T energy                 -135.926429780072
 !RHF-RCCSD(T) energy                -135.926606207341

 Program statistics:

 Available memory in ccsd:               511999000
 Min. memory needed in ccsd:               6270096
 Max. memory used in ccsd:                 8856394
 Max. memory used in cckext:               6831890 ( 8 integral passes)
 Max. memory used in cckint:              18500488 ( 1 integral passes)



 **********************************************************************************************************************************
 DATASETS  * FILE   NREC   LENGTH (MB)   RECORD NAMES
              1      20       32.94       500      610      700      900      950      970     1000      129      960     1100   
                                          VAR    BASINP    GEOM    SYMINP    ZMAT    AOBASIS   BASIS     P2S    ABASIS      S 
                                         1400     1410     1420     1200     1210     1080     1600     1650     1700     1380   
                                           T        V       ECP      H0       H01     AOSYM     SMH    MOLCAS    OPER     JKOP   

              2       7       12.43       200      700     1000      520     4202     5202     2103   
                                        OPTIONS   GEOM     BASIS   MCVARS     RHF     MCSCF     RHF  

 PROGRAMS   *        TOTAL  RCCSD(T)       RHF     MULTI       POP       RHF       INT
 CPU TIMES  *       262.56     60.07      2.13      3.42      0.00      9.45    186.64
 REAL TIME  *       331.08 SEC
 DISK USED  *        11.04 GB      
 SF USED    *         1.62 GB      
 GA USED    *         0.00 MB       (max)       0.00 MB       (current)
 **********************************************************************************************************************************
 SETTING CCSD(1)        =      -135.92660621  AU                              

 DO I                   =         2.00000000   

 Running procedure=AS2DTEN


 PROGRAM * RHF-SCF (CLOSED SHELL)       Authors: W. Meyer, H.-J. Werner


 NUMBER OF ELECTRONS:      10+   10-    SPACE SYMMETRY=1    SPIN SYMMETRY: Singlet 
 CONVERGENCE THRESHOLDS:    1.00E-05 (Density)    1.00E-07 (Energy)
 MAX. NUMBER OF ITERATIONS:       60
 INTERPOLATION TYPE:            DIIS
 INTERPOLATION STEPS:              2 (START)      1 (STEP)
 LEVEL SHIFTS:                  0.00 (CLOSED)  0.00 (OPEN) 

 Number of closed-shell orbitals:   10 (   4   1   1   1   1   1   1   0 )


 
 Extra symmetries of mos in symmetry 1:   1   3   2   1
 Orbital guess generated from atomic densities. Full valence occupancy:    4   1   1   1   1   1   1   0


 Molecular orbital dump at record        2114.2

 ITERATION    DDIFF          GRAD             ENERGY        2-EL.EN.            DIPOLE MOMENTS         DIIS   ORB.
    1      0.000D+00      0.000D+00      -135.08953813    228.638670    0.00000    0.00000    0.00000    0    start
    2      0.000D+00      0.167D-01      -135.12985373    211.154008    0.00000    0.00000    0.00000    1    diag
    3      0.143D-01      0.166D-01      -135.22382876    218.643028    0.00000    0.00000    0.00000    2    diag
    4      0.968D-02      0.683D-03      -135.22518862    218.445932    0.00000    0.00000    0.00000    3    diag
    5      0.165D-02      0.277D-03      -135.22553007    218.302599    0.00000    0.00000    0.00000    4    diag
    6      0.129D-02      0.919D-04      -135.22554412    218.240083    0.00000    0.00000    0.00000    5    diag
    7      0.667D-03      0.409D-04      -135.22554551    218.235436    0.00000    0.00000    0.00000    6    diag
    8      0.165D-03      0.541D-04      -135.22554568    218.229364    0.00000    0.00000    0.00000    7    diag
    9      0.997D-04      0.225D-04      -135.22554577    218.231664    0.00000    0.00000    0.00000    8    diag
   10      0.733D-04      0.318D-04      -135.22554583    218.231202    0.00000    0.00000    0.00000    9    orth
   11      0.249D-04      0.125D-04      -135.22554563    218.229718    0.00000    0.00000    0.00000    9    diag
   12      0.522D-04      0.401D-04      -135.22554575    218.221053    0.00000    0.00000    0.00000    9    diag
   13      0.152D-03      0.430D-04      -135.22554587    218.231566    0.00000    0.00000    0.00000    9    diag
   14      0.121D-03      0.957D-05      -135.22554588    218.228606    0.00000    0.00000    0.00000    9    diag
   15      0.198D-03      0.990D-05      -135.22554588    218.227755    0.00000    0.00000    0.00000    9    diag
   16      0.295D-04      0.242D-04      -135.22554588    218.228684    0.00000    0.00000    0.00000    9    diag
   17      0.285D-04      0.462D-04      -135.22554588    218.227944    0.00000    0.00000    0.00000    9    diag
   18      0.354D-04      0.314D-04      -135.22554588    218.226946    0.00000    0.00000    0.00000    9    diag
   19      0.181D-04      0.378D-04      -135.22554585    218.226666    0.00000    0.00000    0.00000    9    fixocc
   20      0.532D-04      0.241D-04      -135.22554586    218.224816    0.00000    0.00000    0.00000    9    orth
   21      0.342D-04      0.320D-04      -135.22554584    218.225685    0.00000    0.00000    0.00000    9    diag
   22      0.570D-04      0.251D-04      -135.22554567    218.221665    0.00000    0.00000    0.00000    9    diag
   23      0.141D-03      0.407D-04      -135.22554588    218.228188    0.00000    0.00000    0.00000    9    diag
   24      0.118D-03      0.178D-04      -135.22554588    218.229016    0.00000    0.00000    0.00000    9    diag
   25      0.826D-05      0.323D-04      -135.22554588    218.228489    0.00000    0.00000    0.00000    9    diag
   26      0.139D-04      0.152D-04      -135.22554586    218.231615    0.00000    0.00000    0.00000    9    diag
   27      0.206D-04      0.481D-04      -135.22554588    218.229323    0.00000    0.00000    0.00000    9    diag
   28      0.225D-04      0.209D-04      -135.22554588    218.229544    0.00000    0.00000    0.00000    9    diag
   29      0.124D-04      0.587D-04      -135.22554588    218.227921    0.00000    0.00000    0.00000    9    diag
   30      0.238D-04      0.270D-04      -135.22554587    218.226108    0.00000    0.00000    0.00000    9    orth
   31      0.395D-04      0.229D-04      -135.22554575    218.221493    0.00000    0.00000    0.00000    9    diag
   32      0.270D-03      0.418D-04      -135.22554574    218.228391    0.00000    0.00000    0.00000    9    diag
   33      0.461D-03      0.576D-04      -135.22554584    218.228414    0.00000    0.00000    0.00000    9    diag
   34      0.234D-04      0.475D-04      -135.22554565    218.228476    0.00000    0.00000    0.00000    9    diag
   35      0.309D-03      0.263D-04      -135.22554579    218.228903    0.00000    0.00000    0.00000    9    diag
   36      0.620D-04      0.237D-04      -135.22554586    218.228588    0.00000    0.00000    0.00000    9    diag
   37      0.624D-04      0.246D-04      -135.22554584    218.228473    0.00000    0.00000    0.00000    9    diag
   38      0.148D-04      0.246D-04      -135.22554582    218.227929    0.00000    0.00000    0.00000    9    diag
   39      0.476D-03      0.405D-04      -135.22554582    218.228181    0.00000    0.00000    0.00000    9    diag
   40      0.876D-04      0.577D-04      -135.22554584    218.228280    0.00000    0.00000    0.00000    9    orth
   41      0.471D-04      0.389D-04      -135.22554547    218.228050    0.00000    0.00000    0.00000    9    diag
   42      0.315D-04      0.348D-04      -135.22554586    218.228175    0.00000    0.00000    0.00000    9    diag
   43      0.106D-03      0.457D-04      -135.22554586    218.228372    0.00000    0.00000    0.00000    9    diag
   44      0.407D-04      0.144D-04      -135.22554586    218.228085    0.00000    0.00000    0.00000    9    diag
   45      0.488D-04      0.321D-04      -135.22554585    218.229802    0.00000    0.00000    0.00000    9    diag
   46      0.225D-04      0.309D-04      -135.22554587    218.228274    0.00000    0.00000    0.00000    9    diag
   47      0.151D-04      0.228D-04      -135.22554587    218.228144    0.00000    0.00000    0.00000    9    diag
   48      0.226D-04      0.364D-04      -135.22554587    218.228312    0.00000    0.00000    0.00000    9    diag
   49      0.388D-04      0.300D-04      -135.22554587    218.228444    0.00000    0.00000    0.00000    9    diag
   50      0.268D-04      0.323D-04      -135.22554587    218.228726    0.00000    0.00000    0.00000    9    orth
   51      0.185D-04      0.375D-04      -135.22554587    218.228294    0.00000    0.00000    0.00000    9    diag
   52      0.675D-04      0.410D-04      -135.22554586    218.227518    0.00000    0.00000    0.00000    9    diag
   53      0.787D-04      0.306D-04      -135.22554583    218.227981    0.00000    0.00000    0.00000    9    diag
   54      0.367D-03      0.233D-04      -135.22554579    218.228272    0.00000    0.00000    0.00000    9    diag
[...]
                                -0.581061  0.000000  0.000000  0.000000  0.000000  0.000000  0.000000  0.000000  0.000000  0.000000
                                 0.000000  0.000000  0.000000  0.000000  0.000000  0.000000  0.000000  0.000000  0.000000  0.000000
                                 0.000000  0.000000  0.000000  0.000000  0.000000  0.000000  0.000000  0.000000  0.000000  0.000000
                                 0.000000

   3.5  0.00000    -0.791470     0.000000  0.000000  0.000000  0.000000  0.000000  0.000000  0.000000  0.000000  0.000000  0.000000
                                 0.000000  0.000000  0.000000  0.000000  0.000000  0.000000  0.000000  0.000000  0.000000  0.000000
                                 0.000000  0.000000  0.000000  0.000000  0.000000  0.000000  0.000000  0.000000  0.000000  0.000000
                                 0.000000 -0.000001  0.000000  0.000010  0.000000 -0.000047  0.000000  0.000151  0.000000 -0.000494
                                 0.000000  0.000924  0.000000 -0.003630  0.000000  0.005950  0.000000 -0.025863  0.000000 -0.420736
                                 0.000000 -0.282451  0.000000  0.274275  0.000000  0.656867  0.000000  0.761916  0.000000  0.243968
                                 0.000000

                                   1 3d1+    1 3d1+    1 3d1+    1 3d1+    1 3d1+    1 3d1+    1 3d1+    1 3d1+    1 3d1+    1 3d1+ 
                                   1 3d1+    1 3d1+    1 3d1+    1 3d1+    1 3d1+    1 3d1+    1 3d1+    1 3d1+    1 3d1+    1 3d1+ 
                                   1 3d1+    1 5g1+    1 5g3+    1 5g1+    1 5g3+    1 5g1+    1 5g3+ 

   1.6  1.00000    -2.691431     0.000000 -0.000000  0.000000 -0.000002  0.000007 -0.000023  0.000070 -0.000197  0.000490 -0.001411
                                 0.002329 -0.011497 -0.008921 -0.085308  0.345259  0.567201  0.292525  0.029338 -0.000724  0.026356
                                -0.071423  0.000000  0.000000  0.000000  0.000000  0.000000  0.000000

                                   1 3d1-    1 3d1-    1 3d1-    1 3d1-    1 3d1-    1 3d1-    1 3d1-    1 3d1-    1 3d1-    1 3d1- 
                                   1 3d1-    1 3d1-    1 3d1-    1 3d1-    1 3d1-    1 3d1-    1 3d1-    1 3d1-    1 3d1-    1 3d1- 
                                   1 3d1-    1 5g1-    1 5g3-    1 5g1-    1 5g3-    1 5g1-    1 5g3- 

   1.7  1.00000    -2.691431     0.000000 -0.000000  0.000000 -0.000002  0.000007 -0.000023  0.000070 -0.000197  0.000490 -0.001411
                                 0.002329 -0.011497 -0.008921 -0.085308  0.345259  0.567201  0.292525  0.029338 -0.000724  0.026356
                                -0.071423  0.000000  0.000000  0.000000  0.000000  0.000000  0.000000

                                   1 4f2-    1 4f2-    1 4f2-    1 4f2-    1 4f2-    1 4f2-    1 4f2-    1 4f2-    1 4f2-    1 4f2- 
                                   1 4f2-    1 4f2-    1 4f2-    1 4f2-    1 4f2- 

   1.8  0.25000    -0.902658    -0.000000  0.000001 -0.000008  0.000015 -0.000082 -0.000077 -0.000691 -0.001362  0.013214 -0.163486
                                -0.086060  0.112173  0.347584  0.536369  0.467065

 Total charge:   5.000000000000
 

 EXTRA SYMMETRY OF MOS IN SYMMETRY 1:   1 3 2 1 2 3 1 1 2 3   1 4 5 6 2 3 1 4 5 6   2 3 1 4 5 6 3 2 1 2   3 1 2 3 1 2 3 1 2 3
                                        1 3 2 3 2 1 3 2 1 3   2 1 3 2 1 3 2 1 3 2   1 1 3 2 1 3 2 1 3 2   1 1 2 3 1 1 1 1 1 1
                                        1 1 1 1 1 1
 EXTRA SYMMETRY OF MOS IN SYMMETRY 2:   1 1 3 2 1 1 3 1 2 1   3 2 1 3 2 1 3 2 3 2   1 3 2 1 3 2 1 3 2 1   3 2 1 1 3 2 1 3 2 1
                                        3 2 1 3 2 1 1 3 2 1   1 1 1 1 1 1 1 1 1 1   1
 EXTRA SYMMETRY OF MOS IN SYMMETRY 3:   1 1 3 2 1 1 3 1 2 1   3 2 1 3 2 1 3 2 3 2   1 3 2 1 3 2 1 3 2 1   3 2 1 1 3 2 1 3 2 1
                                        3 2 1 3 2 1 1 3 2 1   1 1 1 1 1 1 1 1 1 1   1
 EXTRA SYMMETRY OF MOS IN SYMMETRY 4:   1 1 1 2 3 1 3 2 1 3   2 1 1 1 1 1 1 1 1 1   1 1 1 1 1 1 1
 EXTRA SYMMETRY OF MOS IN SYMMETRY 5:   1 1 2 3 1 1 2 1 3 1   2 3 1 2 3 1 2 3 2 3   1 2 3 1 2 3 1 2 3 1   2 3 1 1 2 3 1 2 3 1
                                        2 3 1 2 3 1 1 2 3 1   1 1 1 1 1 1 1 1 1 1   1
 EXTRA SYMMETRY OF MOS IN SYMMETRY 6:   1 1 1 3 2 1 2 3 1 2   3 1 1 1 1 1 1 1 1 1   1 1 1 1 1 1 1
 EXTRA SYMMETRY OF MOS IN SYMMETRY 7:   1 1 1 3 2 1 2 3 1 2   3 1 1 1 1 1 1 1 1 1   1 1 1 1 1 1 1

 Natural orbital dump (state averaged) at molpro section  5202.2    (Orbital set 2)


 CI vector for state symmetry 1
 ==============================

 // 00 00 / 00 / / /      1.0000000

 CI vector for state symmetry 2
 ==============================

 // /0 00 / 00 / / 0      1.0000000

 CI vector for state symmetry 3
 ==============================

 // 00 /0 / 00 / / 0      1.0000000

 CI vector for state symmetry 4
 ==============================

 // 00 00 / /0 / / 0      1.0000000


 **********************************************************************************************************************************
 DATASETS  * FILE   NREC   LENGTH (MB)   RECORD NAMES
              1      20       49.30       500      610      700      900      950      970     1000      129      960     1100   
                                          VAR    BASINP    GEOM    SYMINP    ZMAT    AOBASIS   BASIS     P2S    ABASIS      S 
                                         1400     1410     1420     1200     1210     1080     1600     1650     1700     1380   
                                           T        V       ECP      H0       H01     AOSYM     SMH    MOLCAS    OPER     JKOP   

              2      25       63.04       200      700     1000      520     4202     5202     2103     2114     2146     2115   
                                        OPTIONS   GEOM     BASIS   MCVARS     RHF     MCSCF     RHF      RHF     MCSCF     RHF  
                                         5202(1)  2105     5202(2)  2101     2109     2107     2117     5202(3)  2119     2121   
                                         MCSCF     RHF     MCSCF     RHF      RHF      RHF      RHF     MCSCF     RHF      RHF  
                                         2123     2125     2110     2113     2111   
                                          RHF      RHF      RHF      RHF      RHF  

 PROGRAMS   *        TOTAL     MULTI       POP       RHF  RCCSD(T)       RHF  RCCSD(T)       RHF     MULTI       POP       RHF
 CPU TIMES  *       918.04     10.04      0.00      4.85      1.28      2.12      5.89      0.45      1.36      0.00      2.43
 REAL TIME  *      1386.74 SEC
 DISK USED  *        11.95 GB      
 SF USED    *         1.62 GB      
 GA USED    *         0.00 MB       (max)       0.00 MB       (current)
 **********************************************************************************************************************************


 PROGRAM * RHF-SCF (OPEN SHELL)       Authors: W. Meyer, H.-J. Werner


 NUMBER OF ELECTRONS:      10+    4-    SPACE SYMMETRY=8    SPIN SYMMETRY: Septet  
 CONVERGENCE THRESHOLDS:    1.00E-05 (Density)    1.00E-07 (Energy)
 MAX. NUMBER OF ITERATIONS:        0
 INTERPOLATION TYPE:            DIIS
 INTERPOLATION STEPS:              2 (START)      1 (STEP)
 LEVEL SHIFTS:                 -0.60 (CLOSED) -0.30 (OPEN) 


 Singly occupied orbitals:      2.1       3.1       1.4       1.6       1.7       1.8
 Molecular orbitals read from record     5202.2  Type=MCSCF/NATURAL  

 Molecular orbital dump at record        2135.2

 ITERATION    DDIFF          GRAD             ENERGY        2-EL.EN.            DIPOLE MOMENTS         DIIS   ORB.
    1      0.000D+00      0.000D+00      -127.82174460    127.485908    0.00000    0.00000    0.00000    0    start

 Final alpha occupancy:   3   1   1   1   1   1   1   1
 Final beta  occupancy:   1   1   1   0   1   0   0   0

 !RHF STATE 1.8 Energy               -127.821744596944
 Nuclear energy                         0.00000000
 One-electron energy                 -191.56469845
 Two-electron energy                   63.74295385
 Virial quotient                       -3.27508238
 !RHF STATE 1.8 Dipole moment           0.00000000     0.00000000     0.00000000
 Dipole moment /Debye                   0.00000000     0.00000000     0.00000000

 Orbital energies:

         1.1          2.1          3.1          4.1          5.1
     -7.430229    -2.689585    -2.689588    -1.907769    -0.984160

         1.2          2.2          3.2
     -5.394412    -1.504394    -0.789970

         1.3          2.3          3.3
     -5.394412    -1.504394    -0.789969

         1.4          2.4          3.4
     -2.691430    -0.984461    -0.513231

         1.5          2.5          3.5
     -5.394414    -1.504397    -0.791470

         1.6          2.6          3.6
     -2.691431    -0.984462    -0.513232

         1.7          2.7          3.7
     -2.691431    -0.984462    -0.513232

         1.8          2.8          3.8
     -0.902658    -0.314931     0.942286

 HOMO      1.8    -0.902658 =     -24.5626eV
 LUMO      4.1    -1.907769 =     -51.9130eV
 LUMO-HOMO        -1.005111 =     -27.3505eV


 **********************************************************************************************************************************
 DATASETS  * FILE   NREC   LENGTH (MB)   RECORD NAMES
              1      20       49.30       500      610      700      900      950      970     1000      129      960     1100   
                                          VAR    BASINP    GEOM    SYMINP    ZMAT    AOBASIS   BASIS     P2S    ABASIS      S 
                                         1400     1410     1420     1200     1210     1080     1600     1650     1700     1380   
                                           T        V       ECP      H0       H01     AOSYM     SMH    MOLCAS    OPER     JKOP   

              2      26       66.56       200      700     1000      520     4202     5202     2103     2114     2146     2115   
                                        OPTIONS   GEOM     BASIS   MCVARS     RHF     MCSCF     RHF      RHF     MCSCF     RHF  
                                         5202(1)  2105     5202(2)  2101     2109     2107     2117     5202(3)  2119     2121   
                                         MCSCF     RHF     MCSCF     RHF      RHF      RHF      RHF     MCSCF     RHF      RHF  
                                         2123     2125     2110     2113     2111     2135   
                                          RHF      RHF      RHF      RHF      RHF      RHF  

 PROGRAMS   *        TOTAL       RHF     MULTI       POP       RHF  RCCSD(T)       RHF  RCCSD(T)       RHF     MULTI       POP
 CPU TIMES  *       918.48      0.44     10.04      0.00      4.85      1.28      2.12      5.89      0.45      1.36      0.00
 REAL TIME  *      1387.21 SEC
 DISK USED  *        11.95 GB      
 SF USED    *         1.62 GB      
 GA USED    *         0.00 MB       (max)       0.00 MB       (current)
 **********************************************************************************************************************************
 SETTING SCF(15)        =      -127.82174460  AU                              
 SETTING _CC_NORM_MAX   =         2.00000000                                  


 PROGRAM * CCSD (Restricted open-shell coupled cluster)     Authors: C. Hampel, H.-J. Werner, 1991, M. Deegan, P.J. Knowles, 1992


 Convergence thresholds:  THRVAR = 1.00D-08  THRDEN = 1.00D-06

 CCSD(T)     terms to be evaluated (factor= 1.000)


 Number of closed-shell orbitals:   4 (   1   1   1   0   1   0   0   0 )
 Number of active  orbitals:        6 (   2   0   0   1   0   1   1   1 )
 Number of external orbitals:     355 (  83  60  60  26  60  26  26  14 )

 Memory could be reduced to 102.43 Mwords without degradation in triples

 Number of N-1 electron functions:              14
 Number of N-2 electron functions:              91
 Number of singly external CSFs:               796
 Number of doubly external CSFs:           1075671
 Total number of CSFs:                     1076467

 Molecular orbitals read from record     2135.2  Type=RHF/CANONICAL (state 1.8)

 Integral transformation finished. Total CPU:   1.85 sec, npass=  1  Memory used:  19.80 MW

 Starting RMP2 calculation

 Wavefunction is spin-projected

 ITER.      SQ.NORM     CORR.ENERGY   TOTAL ENERGY   ENERGY CHANGE        DEN1      VAR(S)    VAR(P)  DIIS     TIME
   1      1.04946610    -0.40999374  -128.23173833    -0.40999374    -0.00030422  0.98D-06  0.56D-04  1  1     5.46
   2      1.04959815    -0.41031193  -128.23205652    -0.00031819    -0.00000051  0.55D-09  0.17D-06  2  2     6.06
   3      1.04960196    -0.41031516  -128.23205976    -0.00000324    -0.00000000  0.13D-11  0.23D-08  3  3     6.61
   4      1.04960226    -0.41031530  -128.23205990    -0.00000014    -0.00000000  0.21D-13  0.97D-11  4  4     7.11

 Norm of t1 vector:      0.02583444      S-energy:    -0.00360908      T1 diagnostic:  0.00334982
 Norm of t2 vector:      0.22121222      P-energy:    -0.40670622
                                         Alpha-Beta:  -0.27136947
                                         Alpha-Alpha: -0.10836560
                                         Beta-Beta:   -0.02697115

 Spin contamination <S**2-Sz**2-Sz>     0.00000000
  Reference energy                   -127.821744596945
  RHF-RMP2 correlation energy          -0.410315302719
 !RHF-RMP2 energy                    -128.232059899665
 (NB above energy spin projected)

 Starting RCCSD calculation

 ITER.      SQ.NORM     CORR.ENERGY   TOTAL ENERGY   ENERGY CHANGE        DEN1      VAR(S)    VAR(P)  DIIS     TIME
   1      1.04899178    -0.41182499  -128.23356959    -0.41182499    -0.00280541  0.51D-04  0.38D-03  1  1     9.75
   2      1.05025321    -0.41470539  -128.23644999    -0.00288040    -0.00011350  0.46D-05  0.61D-04  2  2    11.22
   3      1.05082867    -0.41489955  -128.23664414    -0.00019416    -0.00004910  0.57D-06  0.38D-04  3  3    12.60
   4      1.05213215    -0.41512895  -128.23687355    -0.00022940    -0.00002223  0.24D-06  0.17D-04  4  4    14.01
   5      1.05473695    -0.41536203  -128.23710663    -0.00023309    -0.00000340  0.34D-06  0.18D-05  5  5    15.41
   6      1.05569874    -0.41542352  -128.23716811    -0.00006148    -0.00000019  0.10D-08  0.88D-07  6  6    16.81
   7      1.05579577    -0.41542906  -128.23717366    -0.00000554    -0.00000002  0.12D-08  0.81D-08  6  1    18.21
   8      1.05581099    -0.41543044  -128.23717503    -0.00000138    -0.00000000  0.17D-09  0.22D-09  6  2    19.65
   9      1.05581270    -0.41543062  -128.23717522    -0.00000019    -0.00000000  0.58D-11  0.12D-10  6  4    21.05

 Norm of t1 vector:      0.02680279      S-energy:    -0.00353666      T1 diagnostic:  0.00357252
                                                                       D1 diagnostic:  0.00717149
 Norm of t2 vector:      0.23472178      P-energy:    -0.41189396
                                         Alpha-Beta:  -0.28100784
                                         Alpha-Alpha: -0.10584776
                                         Beta-Beta:   -0.02503836

 Spin contamination <S**2-Sz**2-Sz>     0.00000000

 Memory could be reduced to 106.33 Mwords without degradation in triples
 

  Correlated core orbitals:             1.1       1.2       1.3       1.5
  Orbital energies:                    -7.6054   -5.6283   -5.6283   -5.6283
 
  RCCSD core-core energy               -0.136443238814
  RCCSD core-valence energy            -0.209153851602
  RCCSD valence correlation energy     -0.069833533298
 

 RESULTS
 =======

  Reference energy                   -127.821744596945
  RCCSD singles energy                 -0.003536664127
  RCCSD pair energy                    -0.411893959587
  RCCSD correlation energy             -0.415430623714
  Triples (T) contribution             -0.008074582708
  Total correlation energy             -0.423505206422
 
  RHF-RCCSD energy                   -128.237175220660
  RHF-RCCSD[T] energy                -128.245216418202
  RHF-RCCSD-T energy                 -128.245250260371
 !RHF-RCCSD(T) energy                -128.245249803368

 Program statistics:

 Available memory in ccsd:               511999000
 Min. memory needed in ccsd:               3698493
 Max. memory used in ccsd:                 5009178
 Max. memory used in cckext:               4035369 ( 9 integral passes)
 Max. memory used in cckint:              19801882 ( 1 integral passes)



 **********************************************************************************************************************************
 DATASETS  * FILE   NREC   LENGTH (MB)   RECORD NAMES
              1      20       49.30       500      610      700      900      950      970     1000      129      960     1100   
                                          VAR    BASINP    GEOM    SYMINP    ZMAT    AOBASIS   BASIS     P2S    ABASIS      S 
                                         1400     1410     1420     1200     1210     1080     1600     1650     1700     1380   
                                           T        V       ECP      H0       H01     AOSYM     SMH    MOLCAS    OPER     JKOP   

              2      26       66.56       200      700     1000      520     4202     5202     2103     2114     2146     2115   
                                        OPTIONS   GEOM     BASIS   MCVARS     RHF     MCSCF     RHF      RHF     MCSCF     RHF  
                                         5202(1)  2105     5202(2)  2101     2109     2107     2117     5202(3)  2119     2121   
                                         MCSCF     RHF     MCSCF     RHF      RHF      RHF      RHF     MCSCF     RHF      RHF  
                                         2123     2125     2110     2113     2111     2135   
                                          RHF      RHF      RHF      RHF      RHF      RHF  

 PROGRAMS   *        TOTAL  RCCSD(T)       RHF     MULTI       POP       RHF  RCCSD(T)       RHF  RCCSD(T)       RHF     MULTI
 CPU TIMES  *       955.33     36.78      0.44     10.04      0.00      4.85      1.28      2.12      5.89      0.45      1.36
 REAL TIME  *      1440.40 SEC
 DISK USED  *        11.95 GB      
 SF USED    *         1.62 GB      
 GA USED    *         0.00 MB       (max)       0.00 MB       (current)
 **********************************************************************************************************************************
 SETTING CCSD(15)       =      -128.24524980  AU                              
                                                                                                                                                                                                                                                                

         SCF             CCSD
    -135.20120137   -135.92660621
    -135.22554562   -136.01066711
    -135.04398485   -135.74120161
    -135.13428779   -135.87087749
    -134.91812460   -135.58795993
    -134.83766937   -135.50510855
    -134.21445698   -134.82967685
    -133.07826044   -133.63385339
    -131.43341061   -131.93755887
    -129.24604990   -129.70393502
    -126.53182500   -126.93498678
    -102.55791738   -102.82233164
     -72.39455434    -72.52049312
     -34.03207263    -34.08311185
    -127.82174460   -128.24524980
                                                  

 RCCSD(T)/USERDEF energy=   -128.245249803368

        RCCSD(T)        RHF-SCF         MULTI           RHF-SCF         RCCSD(T)        RHF-SCF         RCCSD(T)        RHF-SCF 
   -128.24524980   -127.82174460   -128.38105948   -127.82305589    -34.08311185    -34.03207263    -72.52049312    -72.39455434
 **********************************************************************************************************************************
 Molpro calculation terminated
 Variable memory released
