/global/cscratch1/sd/bkincaid/cutoffs/Mo/250-610/runs/scf_540

     Program PWSCF v.6.4.1 starts on 17Jan2022 at 15:38:24 

     This program is part of the open-source Quantum ESPRESSO suite
     for quantum simulation of materials; please cite
         "P. Giannozzi et al., J. Phys.:Condens. Matter 21 395502 (2009);
         "P. Giannozzi et al., J. Phys.:Condens. Matter 29 465901 (2017);
          URL http://www.quantum-espresso.org", 
     in publications or presentations arising from this work. More details at
     http://www.quantum-espresso.org/quote

     Parallel version (MPI & OpenMP), running on      32 processor cores
     Number of MPI processes:                32
     Threads/MPI process:                     1

     MPI processes distributed on     1 nodes
     R & G space division:  proc/nbgrp/npool/nimage =      32
     Reading input from scf_540.in

     Current dimensions of program PWSCF are:
     Max number of different atomic species (ntypx) = 10
     Max number of k-points (npk) =  40000
     Max angular momentum in pseudopotentials (lmaxx) =  3

     IMPORTANT: XC functional enforced from input :
     Exchange-correlation      = PBE ( 1  4  3  4 0 0)
     Any further DFT definition will be discarded
     Please, verify this is what you really want


     gamma-point specific algorithms are used

     Subspace diagonalization in iterative solution of the eigenvalue problem:
     one sub-group per band group will be used
     scalapack distributed-memory algorithm (size of sub-group:  4*  4 procs)

     Message from routine setup:
     DEPRECATED: symmetry with ibrav=0, use correct ibrav instead
 
     Parallelization info
     --------------------
     sticks:   dense  smooth     PW     G-vecs:    dense   smooth      PW
     Min        2761    2761    689               617774   617774   77202
     Max        2764    2764    692               617784   617784   77212
     Sum       88405   88405  22097             19768843 19768843 2470567
 


     bravais-lattice index     =            0
     lattice parameter (alat)  =      22.6767  a.u.
     unit-cell volume          =   11661.1222 (a.u.)^3
     number of atoms/cell      =            1
     number of atomic types    =            1
     number of electrons       =        14.00 (up:  10.00, down:   4.00)
     number of Kohn-Sham states=           12
     kinetic-energy cutoff     =     540.0000  Ry
     charge density cutoff     =    2160.0000  Ry
     convergence threshold     =      1.0E-06
     mixing beta               =       0.7000
     number of iterations used =            8  plain     mixing
     Exchange-correlation      = PBE ( 1  4  3  4 0 0)

     celldm(1)=  22.676714  celldm(2)=   0.000000  celldm(3)=   0.000000
     celldm(4)=   0.000000  celldm(5)=   0.000000  celldm(6)=   0.000000

     crystal axes: (cart. coord. in units of alat)
               a(1) = (   1.000000   0.000000   0.000000 )  
               a(2) = (   0.000000   1.000000   0.000000 )  
               a(3) = (   0.000000   0.000000   1.000000 )  

     reciprocal axes: (cart. coord. in units 2 pi/alat)
               b(1) = (  1.000000  0.000000  0.000000 )  
               b(2) = (  0.000000  1.000000  0.000000 )  
               b(3) = (  0.000000  0.000000  1.000000 )  


     PseudoPot. # 1 for Mo read from file:
     ./Mo.upf
     MD5 check sum: 8a384037cce4b47caa47c893dc3d0248
     Pseudo is Norm-conserving, Zval = 14.0
     Generated by new atomic code, or converted to UPF format
     Using radial grid of 1172 points,  2 beta functions with: 
                l(1) =   1
                l(2) =   2

     atomic species   valence    mass     pseudopotential
        Mo            14.00    95.94000     Mo( 1.00)

     Starting magnetic structure 
     atomic species   magnetization
        Mo           0.500

     48 Sym. Ops., with inversion, found


                                    s                        frac. trans.

      isym =  1     identity                                     

 cryst.   s( 1) = (     1          0          0      )
                  (     0          1          0      )
                  (     0          0          1      )

 cart.    s( 1) = (  1.0000000  0.0000000  0.0000000 )
                  (  0.0000000  1.0000000  0.0000000 )
                  (  0.0000000  0.0000000  1.0000000 )


      isym =  2     180 deg rotation - cart. axis [0,0,1]        

 cryst.   s( 2) = (    -1          0          0      )
                  (     0         -1          0      )
                  (     0          0          1      )

 cart.    s( 2) = ( -1.0000000  0.0000000  0.0000000 )
                  (  0.0000000 -1.0000000  0.0000000 )
                  (  0.0000000  0.0000000  1.0000000 )


      isym =  3     180 deg rotation - cart. axis [0,1,0]        

 cryst.   s( 3) = (    -1          0          0      )
                  (     0          1          0      )
                  (     0          0         -1      )

 cart.    s( 3) = ( -1.0000000  0.0000000  0.0000000 )
                  (  0.0000000  1.0000000  0.0000000 )
                  (  0.0000000  0.0000000 -1.0000000 )


      isym =  4     180 deg rotation - cart. axis [1,0,0]        

 cryst.   s( 4) = (     1          0          0      )
                  (     0         -1          0      )
                  (     0          0         -1      )

 cart.    s( 4) = (  1.0000000  0.0000000  0.0000000 )
                  (  0.0000000 -1.0000000  0.0000000 )
                  (  0.0000000  0.0000000 -1.0000000 )


      isym =  5     180 deg rotation - cart. axis [1,1,0]        

 cryst.   s( 5) = (     0          1          0      )
                  (     1          0          0      )
                  (     0          0         -1      )

 cart.    s( 5) = (  0.0000000  1.0000000  0.0000000 )
                  (  1.0000000  0.0000000  0.0000000 )
                  (  0.0000000  0.0000000 -1.0000000 )


      isym =  6     180 deg rotation - cart. axis [1,-1,0]       

 cryst.   s( 6) = (     0         -1          0      )
                  (    -1          0          0      )
                  (     0          0         -1      )

 cart.    s( 6) = (  0.0000000 -1.0000000  0.0000000 )
                  ( -1.0000000  0.0000000  0.0000000 )
                  (  0.0000000  0.0000000 -1.0000000 )


      isym =  7      90 deg rotation - cart. axis [0,0,-1]       

 cryst.   s( 7) = (     0         -1          0      )
                  (     1          0          0      )
                  (     0          0          1      )

 cart.    s( 7) = (  0.0000000  1.0000000  0.0000000 )
                  ( -1.0000000  0.0000000  0.0000000 )
                  (  0.0000000  0.0000000  1.0000000 )


      isym =  8      90 deg rotation - cart. axis [0,0,1]        

 cryst.   s( 8) = (     0          1          0      )
                  (    -1          0          0      )
                  (     0          0          1      )

 cart.    s( 8) = (  0.0000000 -1.0000000  0.0000000 )
                  (  1.0000000  0.0000000  0.0000000 )
                  (  0.0000000  0.0000000  1.0000000 )


      isym =  9     180 deg rotation - cart. axis [1,0,1]        

 cryst.   s( 9) = (     0          0          1      )
                  (     0         -1          0      )
                  (     1          0          0      )

 cart.    s( 9) = (  0.0000000  0.0000000  1.0000000 )
                  (  0.0000000 -1.0000000  0.0000000 )
                  (  1.0000000  0.0000000  0.0000000 )


      isym = 10     180 deg rotation - cart. axis [-1,0,1]       

 cryst.   s(10) = (     0          0         -1      )
                  (     0         -1          0      )
                  (    -1          0          0      )

 cart.    s(10) = (  0.0000000  0.0000000 -1.0000000 )
                  (  0.0000000 -1.0000000  0.0000000 )
                  ( -1.0000000  0.0000000  0.0000000 )


      isym = 11      90 deg rotation - cart. axis [0,1,0]        

 cryst.   s(11) = (     0          0         -1      )
                  (     0          1          0      )
                  (     1          0          0      )

 cart.    s(11) = (  0.0000000  0.0000000  1.0000000 )
                  (  0.0000000  1.0000000  0.0000000 )
                  ( -1.0000000  0.0000000  0.0000000 )


      isym = 12      90 deg rotation - cart. axis [0,-1,0]       

 cryst.   s(12) = (     0          0          1      )
                  (     0          1          0      )
                  (    -1          0          0      )

 cart.    s(12) = (  0.0000000  0.0000000 -1.0000000 )
                  (  0.0000000  1.0000000  0.0000000 )
                  (  1.0000000  0.0000000  0.0000000 )


      isym = 13     180 deg rotation - cart. axis [0,1,1]        

 cryst.   s(13) = (    -1          0          0      )
                  (     0          0          1      )
                  (     0          1          0      )

 cart.    s(13) = ( -1.0000000  0.0000000  0.0000000 )
                  (  0.0000000  0.0000000  1.0000000 )
                  (  0.0000000  1.0000000  0.0000000 )


      isym = 14     180 deg rotation - cart. axis [0,1,-1]       

 cryst.   s(14) = (    -1          0          0      )
                  (     0          0         -1      )
                  (     0         -1          0      )

 cart.    s(14) = ( -1.0000000  0.0000000  0.0000000 )
                  (  0.0000000  0.0000000 -1.0000000 )
                  (  0.0000000 -1.0000000  0.0000000 )


      isym = 15      90 deg rotation - cart. axis [-1,0,0]       

 cryst.   s(15) = (     1          0          0      )
                  (     0          0         -1      )
                  (     0          1          0      )

 cart.    s(15) = (  1.0000000  0.0000000  0.0000000 )
                  (  0.0000000  0.0000000  1.0000000 )
                  (  0.0000000 -1.0000000  0.0000000 )


      isym = 16      90 deg rotation - cart. axis [1,0,0]        

 cryst.   s(16) = (     1          0          0      )
                  (     0          0          1      )
                  (     0         -1          0      )

 cart.    s(16) = (  1.0000000  0.0000000  0.0000000 )
                  (  0.0000000  0.0000000 -1.0000000 )
                  (  0.0000000  1.0000000  0.0000000 )


      isym = 17     120 deg rotation - cart. axis [-1,-1,-1]     

 cryst.   s(17) = (     0          0          1      )
                  (     1          0          0      )
                  (     0          1          0      )

 cart.    s(17) = (  0.0000000  1.0000000  0.0000000 )
                  (  0.0000000  0.0000000  1.0000000 )
                  (  1.0000000  0.0000000  0.0000000 )


      isym = 18     120 deg rotation - cart. axis [-1,1,1]       

 cryst.   s(18) = (     0          0         -1      )
                  (    -1          0          0      )
                  (     0          1          0      )

 cart.    s(18) = (  0.0000000 -1.0000000  0.0000000 )
                  (  0.0000000  0.0000000  1.0000000 )
                  ( -1.0000000  0.0000000  0.0000000 )


      isym = 19     120 deg rotation - cart. axis [1,1,-1]       

 cryst.   s(19) = (     0          0         -1      )
                  (     1          0          0      )
                  (     0         -1          0      )

 cart.    s(19) = (  0.0000000  1.0000000  0.0000000 )
                  (  0.0000000  0.0000000 -1.0000000 )
                  ( -1.0000000  0.0000000  0.0000000 )


      isym = 20     120 deg rotation - cart. axis [1,-1,1]       

 cryst.   s(20) = (     0          0          1      )
                  (    -1          0          0      )
                  (     0         -1          0      )

 cart.    s(20) = (  0.0000000 -1.0000000  0.0000000 )
                  (  0.0000000  0.0000000 -1.0000000 )
                  (  1.0000000  0.0000000  0.0000000 )


      isym = 21     120 deg rotation - cart. axis [1,1,1]        

 cryst.   s(21) = (     0          1          0      )
                  (     0          0          1      )
                  (     1          0          0      )

 cart.    s(21) = (  0.0000000  0.0000000  1.0000000 )
                  (  1.0000000  0.0000000  0.0000000 )
                  (  0.0000000  1.0000000  0.0000000 )


      isym = 22     120 deg rotation - cart. axis [-1,1,-1]      

 cryst.   s(22) = (     0         -1          0      )
                  (     0          0         -1      )
                  (     1          0          0      )

 cart.    s(22) = (  0.0000000  0.0000000  1.0000000 )
                  ( -1.0000000  0.0000000  0.0000000 )
                  (  0.0000000 -1.0000000  0.0000000 )


      isym = 23     120 deg rotation - cart. axis [1,-1,-1]      

 cryst.   s(23) = (     0         -1          0      )
                  (     0          0          1      )
                  (    -1          0          0      )

 cart.    s(23) = (  0.0000000  0.0000000 -1.0000000 )
                  ( -1.0000000  0.0000000  0.0000000 )
                  (  0.0000000  1.0000000  0.0000000 )


      isym = 24     120 deg rotation - cart. axis [-1,-1,1]      

 cryst.   s(24) = (     0          1          0      )
                  (     0          0         -1      )
                  (    -1          0          0      )

 cart.    s(24) = (  0.0000000  0.0000000 -1.0000000 )
                  (  1.0000000  0.0000000  0.0000000 )
                  (  0.0000000 -1.0000000  0.0000000 )


      isym = 25     inversion                                    

 cryst.   s(25) = (    -1          0          0      )
                  (     0         -1          0      )
                  (     0          0         -1      )

 cart.    s(25) = ( -1.0000000  0.0000000  0.0000000 )
                  (  0.0000000 -1.0000000  0.0000000 )
                  (  0.0000000  0.0000000 -1.0000000 )


      isym = 26     inv. 180 deg rotation - cart. axis [0,0,1]   

 cryst.   s(26) = (     1          0          0      )
                  (     0          1          0      )
                  (     0          0         -1      )

 cart.    s(26) = (  1.0000000  0.0000000  0.0000000 )
                  (  0.0000000  1.0000000  0.0000000 )
                  (  0.0000000  0.0000000 -1.0000000 )


      isym = 27     inv. 180 deg rotation - cart. axis [0,1,0]   

 cryst.   s(27) = (     1          0          0      )
                  (     0         -1          0      )
                  (     0          0          1      )

 cart.    s(27) = (  1.0000000  0.0000000  0.0000000 )
                  (  0.0000000 -1.0000000  0.0000000 )
                  (  0.0000000  0.0000000  1.0000000 )


      isym = 28     inv. 180 deg rotation - cart. axis [1,0,0]   

 cryst.   s(28) = (    -1          0          0      )
                  (     0          1          0      )
                  (     0          0          1      )

 cart.    s(28) = ( -1.0000000  0.0000000  0.0000000 )
                  (  0.0000000  1.0000000  0.0000000 )
                  (  0.0000000  0.0000000  1.0000000 )


      isym = 29     inv. 180 deg rotation - cart. axis [1,1,0]   

 cryst.   s(29) = (     0         -1          0      )
                  (    -1          0          0      )
                  (     0          0          1      )

 cart.    s(29) = (  0.0000000 -1.0000000  0.0000000 )
                  ( -1.0000000  0.0000000  0.0000000 )
                  (  0.0000000  0.0000000  1.0000000 )


      isym = 30     inv. 180 deg rotation - cart. axis [1,-1,0]  

 cryst.   s(30) = (     0          1          0      )
                  (     1          0          0      )
                  (     0          0          1      )

 cart.    s(30) = (  0.0000000  1.0000000  0.0000000 )
                  (  1.0000000  0.0000000  0.0000000 )
                  (  0.0000000  0.0000000  1.0000000 )


      isym = 31     inv.  90 deg rotation - cart. axis [0,0,-1]  

 cryst.   s(31) = (     0          1          0      )
                  (    -1          0          0      )
                  (     0          0         -1      )

 cart.    s(31) = (  0.0000000 -1.0000000  0.0000000 )
                  (  1.0000000  0.0000000  0.0000000 )
                  (  0.0000000  0.0000000 -1.0000000 )


      isym = 32     inv.  90 deg rotation - cart. axis [0,0,1]   

 cryst.   s(32) = (     0         -1          0      )
                  (     1          0          0      )
                  (     0          0         -1      )

 cart.    s(32) = (  0.0000000  1.0000000  0.0000000 )
                  ( -1.0000000  0.0000000  0.0000000 )
                  (  0.0000000  0.0000000 -1.0000000 )


      isym = 33     inv. 180 deg rotation - cart. axis [1,0,1]   

 cryst.   s(33) = (     0          0         -1      )
                  (     0          1          0      )
                  (    -1          0          0      )

 cart.    s(33) = (  0.0000000  0.0000000 -1.0000000 )
                  (  0.0000000  1.0000000  0.0000000 )
                  ( -1.0000000  0.0000000  0.0000000 )


      isym = 34     inv. 180 deg rotation - cart. axis [-1,0,1]  

 cryst.   s(34) = (     0          0          1      )
                  (     0          1          0      )
                  (     1          0          0      )

 cart.    s(34) = (  0.0000000  0.0000000  1.0000000 )
                  (  0.0000000  1.0000000  0.0000000 )
                  (  1.0000000  0.0000000  0.0000000 )


      isym = 35     inv.  90 deg rotation - cart. axis [0,1,0]   

 cryst.   s(35) = (     0          0          1      )
                  (     0         -1          0      )
                  (    -1          0          0      )

 cart.    s(35) = (  0.0000000  0.0000000 -1.0000000 )
                  (  0.0000000 -1.0000000  0.0000000 )
                  (  1.0000000  0.0000000  0.0000000 )


      isym = 36     inv.  90 deg rotation - cart. axis [0,-1,0]  

 cryst.   s(36) = (     0          0         -1      )
                  (     0         -1          0      )
                  (     1          0          0      )

 cart.    s(36) = (  0.0000000  0.0000000  1.0000000 )
                  (  0.0000000 -1.0000000  0.0000000 )
                  ( -1.0000000  0.0000000  0.0000000 )


      isym = 37     inv. 180 deg rotation - cart. axis [0,1,1]   

 cryst.   s(37) = (     1          0          0      )
                  (     0          0         -1      )
                  (     0         -1          0      )

 cart.    s(37) = (  1.0000000  0.0000000  0.0000000 )
                  (  0.0000000  0.0000000 -1.0000000 )
                  (  0.0000000 -1.0000000  0.0000000 )


      isym = 38     inv. 180 deg rotation - cart. axis [0,1,-1]  

 cryst.   s(38) = (     1          0          0      )
                  (     0          0          1      )
                  (     0          1          0      )

 cart.    s(38) = (  1.0000000  0.0000000  0.0000000 )
                  (  0.0000000  0.0000000  1.0000000 )
                  (  0.0000000  1.0000000  0.0000000 )


      isym = 39     inv.  90 deg rotation - cart. axis [-1,0,0]  

 cryst.   s(39) = (    -1          0          0      )
                  (     0          0          1      )
                  (     0         -1          0      )

 cart.    s(39) = ( -1.0000000  0.0000000  0.0000000 )
                  (  0.0000000  0.0000000 -1.0000000 )
                  (  0.0000000  1.0000000  0.0000000 )


      isym = 40     inv.  90 deg rotation - cart. axis [1,0,0]   

 cryst.   s(40) = (    -1          0          0      )
                  (     0          0         -1      )
                  (     0          1          0      )

 cart.    s(40) = ( -1.0000000  0.0000000  0.0000000 )
                  (  0.0000000  0.0000000  1.0000000 )
                  (  0.0000000 -1.0000000  0.0000000 )


      isym = 41     inv. 120 deg rotation - cart. axis [-1,-1,-1]

 cryst.   s(41) = (     0          0         -1      )
                  (    -1          0          0      )
                  (     0         -1          0      )

 cart.    s(41) = (  0.0000000 -1.0000000  0.0000000 )
                  (  0.0000000  0.0000000 -1.0000000 )
                  ( -1.0000000  0.0000000  0.0000000 )


      isym = 42     inv. 120 deg rotation - cart. axis [-1,1,1]  

 cryst.   s(42) = (     0          0          1      )
                  (     1          0          0      )
                  (     0         -1          0      )

 cart.    s(42) = (  0.0000000  1.0000000  0.0000000 )
                  (  0.0000000  0.0000000 -1.0000000 )
                  (  1.0000000  0.0000000  0.0000000 )


      isym = 43     inv. 120 deg rotation - cart. axis [1,1,-1]  

 cryst.   s(43) = (     0          0          1      )
                  (    -1          0          0      )
                  (     0          1          0      )

 cart.    s(43) = (  0.0000000 -1.0000000  0.0000000 )
                  (  0.0000000  0.0000000  1.0000000 )
                  (  1.0000000  0.0000000  0.0000000 )


      isym = 44     inv. 120 deg rotation - cart. axis [1,-1,1]  

 cryst.   s(44) = (     0          0         -1      )
                  (     1          0          0      )
                  (     0          1          0      )

 cart.    s(44) = (  0.0000000  1.0000000  0.0000000 )
                  (  0.0000000  0.0000000  1.0000000 )
                  ( -1.0000000  0.0000000  0.0000000 )


      isym = 45     inv. 120 deg rotation - cart. axis [1,1,1]   

 cryst.   s(45) = (     0         -1          0      )
                  (     0          0         -1      )
                  (    -1          0          0      )

 cart.    s(45) = (  0.0000000  0.0000000 -1.0000000 )
                  ( -1.0000000  0.0000000  0.0000000 )
                  (  0.0000000 -1.0000000  0.0000000 )


      isym = 46     inv. 120 deg rotation - cart. axis [-1,1,-1] 

 cryst.   s(46) = (     0          1          0      )
                  (     0          0          1      )
                  (    -1          0          0      )

 cart.    s(46) = (  0.0000000  0.0000000 -1.0000000 )
                  (  1.0000000  0.0000000  0.0000000 )
                  (  0.0000000  1.0000000  0.0000000 )


      isym = 47     inv. 120 deg rotation - cart. axis [1,-1,-1] 

 cryst.   s(47) = (     0          1          0      )
                  (     0          0         -1      )
                  (     1          0          0      )

 cart.    s(47) = (  0.0000000  0.0000000  1.0000000 )
                  (  1.0000000  0.0000000  0.0000000 )
                  (  0.0000000 -1.0000000  0.0000000 )


      isym = 48     inv. 120 deg rotation - cart. axis [-1,-1,1] 

 cryst.   s(48) = (     0         -1          0      )
                  (     0          0          1      )
                  (     1          0          0      )

 cart.    s(48) = (  0.0000000  0.0000000  1.0000000 )
                  ( -1.0000000  0.0000000  0.0000000 )
                  (  0.0000000  1.0000000  0.0000000 )


   Cartesian axes

     site n.     atom                  positions (alat units)
         1           Mo  tau(   1) = (   0.5000000   0.5000000   0.5000000  )

   Crystallographic axes

     site n.     atom                  positions (cryst. coord.)
         1           Mo  tau(   1) = (  0.5000000  0.5000000  0.5000000  )

     number of k points=     1
                       cart. coord. in units 2pi/alat
        k(    1) = (   0.0000000   0.0000000   0.0000000), wk =   1.0000000

                       cryst. coord.
        k(    1) = (   0.0000000   0.0000000   0.0000000), wk =   1.0000000

     Dense  grid:  9884422 G-vectors     FFT dimensions: ( 360, 360, 360)

     Dynamical RAM for                 wfc:       7.07 MB

     Dynamical RAM for     wfc (w. buffer):      21.21 MB

     Dynamical RAM for           str. fact:       4.71 MB

     Dynamical RAM for           local pot:       0.00 MB

     Dynamical RAM for          nlocal pot:       4.71 MB

     Dynamical RAM for                qrad:       1.92 MB

     Dynamical RAM for          rho,v,vnew:      99.47 MB

     Dynamical RAM for               rhoin:      33.16 MB

     Dynamical RAM for            rho*nmix:     150.83 MB

     Dynamical RAM for           G-vectors:      20.03 MB

     Dynamical RAM for          h,s,v(r/c):       0.00 MB

     Dynamical RAM for          <psi|beta>:       0.00 MB

     Dynamical RAM for                 psi:      28.28 MB

     Dynamical RAM for                hpsi:      28.28 MB

     Dynamical RAM for      wfcinit/wfcrot:      14.14 MB

     Estimated static dynamical RAM per process >     416.66 MB

     Estimated max dynamical RAM per process >     473.22 MB

     Estimated total dynamical RAM >      14.79 GB
     Generating pointlists ...
     new r_m :   0.4125 (alat units)  9.3541 (a.u.) for type    1

     Initial potential from superposition of free atoms

     starting charge   11.99998, renormalised to   14.00000

     negative rho (up, down):  1.523E-03 0.000E+00
     Starting wfcs are    9 randomized atomic wfcs +    3 random wfcs

     total cpu time spent up to now is       13.9 secs

     Self-consistent Calculation

     iteration #  1     ecut=   540.00 Ry     beta= 0.70
     Davidson diagonalization with overlap
     ethr =  1.00E-02,  avg # of iterations =  9.0

     negative rho (up, down):  0.000E+00 4.088E-01

     total cpu time spent up to now is       35.9 secs

     total energy              =    -126.80393336 Ry
     Harris-Foulkes estimate   =    -138.29848308 Ry
     estimated scf accuracy    <      14.95359647 Ry

     total magnetization       =     6.00 Bohr mag/cell
     absolute magnetization    =     6.01 Bohr mag/cell

     iteration #  2     ecut=   540.00 Ry     beta= 0.70
     Davidson diagonalization with overlap
     ethr =  1.00E-02,  avg # of iterations =  6.5

     negative rho (up, down):  0.000E+00 3.922E-01

     total cpu time spent up to now is       54.5 secs

     total energy              =    -136.40896180 Ry
     Harris-Foulkes estimate   =    -141.45843139 Ry
     estimated scf accuracy    <       8.68401168 Ry

     total magnetization       =     6.00 Bohr mag/cell
     absolute magnetization    =     6.00 Bohr mag/cell

     iteration #  3     ecut=   540.00 Ry     beta= 0.70
     Davidson diagonalization with overlap
     ethr =  1.00E-02,  avg # of iterations =  2.0

     negative rho (up, down):  0.000E+00 3.929E-01

     total cpu time spent up to now is       67.2 secs

     total energy              =    -136.65560186 Ry
     Harris-Foulkes estimate   =    -136.97749347 Ry
     estimated scf accuracy    <       1.61388350 Ry

     total magnetization       =     6.00 Bohr mag/cell
     absolute magnetization    =     6.00 Bohr mag/cell

     iteration #  4     ecut=   540.00 Ry     beta= 0.70
     Davidson diagonalization with overlap
     ethr =  1.00E-02,  avg # of iterations =  1.0

     negative rho (up, down):  1.796E-07 7.799E-01

     total cpu time spent up to now is       78.0 secs

     total energy              =    -135.75662743 Ry
     Harris-Foulkes estimate   =    -136.66534152 Ry
     estimated scf accuracy    <       1.14881854 Ry

     total magnetization       =     6.00 Bohr mag/cell
     absolute magnetization    =     6.00 Bohr mag/cell

     iteration #  5     ecut=   540.00 Ry     beta= 0.70
     Davidson diagonalization with overlap
     ethr =  8.21E-03,  avg # of iterations =  2.5

     negative rho (up, down):  2.257E-07 7.653E-01

     total cpu time spent up to now is       90.7 secs

     total energy              =    -136.09824649 Ry
     Harris-Foulkes estimate   =    -136.08971365 Ry
     estimated scf accuracy    <       0.16738056 Ry

     total magnetization       =     6.00 Bohr mag/cell
     absolute magnetization    =     6.00 Bohr mag/cell

     iteration #  6     ecut=   540.00 Ry     beta= 0.70
     Davidson diagonalization with overlap
     ethr =  1.20E-03,  avg # of iterations =  4.5

     negative rho (up, down):  3.126E-02 6.920E-01

     total cpu time spent up to now is      104.5 secs

     total energy              =    -136.13352215 Ry
     Harris-Foulkes estimate   =    -136.11326239 Ry
     estimated scf accuracy    <       0.22752646 Ry

     total magnetization       =     6.00 Bohr mag/cell
     absolute magnetization    =     6.00 Bohr mag/cell

     iteration #  7     ecut=   540.00 Ry     beta= 0.70
     Davidson diagonalization with overlap
     ethr =  1.20E-03,  avg # of iterations =  1.0

     negative rho (up, down):  2.858E-01 6.973E-01

     total cpu time spent up to now is      115.4 secs

     total energy              =    -136.11656402 Ry
     Harris-Foulkes estimate   =    -136.13630409 Ry
     estimated scf accuracy    <       0.29059341 Ry

     total magnetization       =     6.00 Bohr mag/cell
     absolute magnetization    =     6.00 Bohr mag/cell

     iteration #  8     ecut=   540.00 Ry     beta= 0.70
     Davidson diagonalization with overlap
     ethr =  1.20E-03,  avg # of iterations =  5.0

     negative rho (up, down):  2.898E-01 1.859E-01

     total cpu time spent up to now is      128.0 secs

     total energy              =    -136.07951181 Ry
     Harris-Foulkes estimate   =    -136.11970112 Ry
     estimated scf accuracy    <       0.23472340 Ry

     total magnetization       =     6.00 Bohr mag/cell
     absolute magnetization    =     6.00 Bohr mag/cell

     iteration #  9     ecut=   540.00 Ry     beta= 0.70
     Davidson diagonalization with overlap
     ethr =  1.20E-03,  avg # of iterations =  1.0

     negative rho (up, down):  1.871E-01 2.546E-01

     total cpu time spent up to now is      138.9 secs

     total energy              =    -136.06005357 Ry
     Harris-Foulkes estimate   =    -136.08450032 Ry
     estimated scf accuracy    <       0.13908256 Ry

     total magnetization       =     6.00 Bohr mag/cell
     absolute magnetization    =     6.00 Bohr mag/cell

     iteration # 10     ecut=   540.00 Ry     beta= 0.70
     Davidson diagonalization with overlap
     ethr =  9.93E-04,  avg # of iterations =  1.0

     negative rho (up, down):  7.442E-02 6.494E-01

     total cpu time spent up to now is      150.0 secs

     total energy              =    -136.03264400 Ry
     Harris-Foulkes estimate   =    -136.06327857 Ry
     estimated scf accuracy    <       0.08743848 Ry

     total magnetization       =     6.00 Bohr mag/cell
     absolute magnetization    =     6.00 Bohr mag/cell

     iteration # 11     ecut=   540.00 Ry     beta= 0.70
     Davidson diagonalization with overlap
     ethr =  6.25E-04,  avg # of iterations =  3.5

     negative rho (up, down):  2.350E-03 5.351E-01

     total cpu time spent up to now is      163.0 secs

     total energy              =    -136.04273617 Ry
     Harris-Foulkes estimate   =    -136.04586353 Ry
     estimated scf accuracy    <       0.01243077 Ry

     total magnetization       =     6.00 Bohr mag/cell
     absolute magnetization    =     6.00 Bohr mag/cell

     iteration # 12     ecut=   540.00 Ry     beta= 0.70
     Davidson diagonalization with overlap
     ethr =  8.88E-05,  avg # of iterations =  4.5

     negative rho (up, down):  2.397E-03 5.271E-01

     total cpu time spent up to now is      177.7 secs

     total energy              =    -136.04212800 Ry
     Harris-Foulkes estimate   =    -136.04342546 Ry
     estimated scf accuracy    <       0.00262886 Ry

     total magnetization       =     6.00 Bohr mag/cell
     absolute magnetization    =     6.00 Bohr mag/cell

     iteration # 13     ecut=   540.00 Ry     beta= 0.70
     Davidson diagonalization with overlap
     ethr =  1.88E-05,  avg # of iterations = 12.0

     negative rho (up, down):  3.402E-04 5.849E-01

     total cpu time spent up to now is      196.8 secs

     total energy              =    -136.04290620 Ry
     Harris-Foulkes estimate   =    -136.04281257 Ry
     estimated scf accuracy    <       0.00067083 Ry

     total magnetization       =     6.00 Bohr mag/cell
     absolute magnetization    =     6.00 Bohr mag/cell

     iteration # 14     ecut=   540.00 Ry     beta= 0.70
     Davidson diagonalization with overlap
     ethr =  4.79E-06,  avg # of iterations =  2.5

     negative rho (up, down):  1.184E-08 5.769E-01

     total cpu time spent up to now is      209.1 secs

     total energy              =    -136.04314448 Ry
     Harris-Foulkes estimate   =    -136.04292352 Ry
     estimated scf accuracy    <       0.00042190 Ry

     total magnetization       =     6.00 Bohr mag/cell
     absolute magnetization    =     6.00 Bohr mag/cell

     iteration # 15     ecut=   540.00 Ry     beta= 0.70
     Davidson diagonalization with overlap
     ethr =  3.01E-06,  avg # of iterations =  6.0

     negative rho (up, down):  9.392E-05 4.967E-01

     total cpu time spent up to now is      224.7 secs

     total energy              =    -136.04314683 Ry
     Harris-Foulkes estimate   =    -136.04331638 Ry
     estimated scf accuracy    <       0.00086565 Ry

     total magnetization       =     6.00 Bohr mag/cell
     absolute magnetization    =     6.00 Bohr mag/cell

     iteration # 16     ecut=   540.00 Ry     beta= 0.70
     Davidson diagonalization with overlap
     ethr =  3.01E-06,  avg # of iterations =  4.0

     negative rho (up, down):  2.053E-05 6.109E-01

     total cpu time spent up to now is      238.5 secs

     total energy              =    -136.04306448 Ry
     Harris-Foulkes estimate   =    -136.04318573 Ry
     estimated scf accuracy    <       0.00025261 Ry

     total magnetization       =     6.00 Bohr mag/cell
     absolute magnetization    =     6.00 Bohr mag/cell

     iteration # 17     ecut=   540.00 Ry     beta= 0.70
     Davidson diagonalization with overlap
     ethr =  1.80E-06,  avg # of iterations =  2.5

     negative rho (up, down):  2.385E-06 7.020E-01

     total cpu time spent up to now is      250.7 secs

     total energy              =    -136.04299420 Ry
     Harris-Foulkes estimate   =    -136.04308307 Ry
     estimated scf accuracy    <       0.00004644 Ry

     total magnetization       =     6.00 Bohr mag/cell
     absolute magnetization    =     6.00 Bohr mag/cell

     iteration # 18     ecut=   540.00 Ry     beta= 0.70
     Davidson diagonalization with overlap
     c_bands:  1 eigenvalues not converged
     ethr =  3.32E-07,  avg # of iterations = 12.0

     negative rho (up, down):  0.000E+00 7.044E-01

     total cpu time spent up to now is      266.8 secs

     total energy              =    -136.04292845 Ry
     Harris-Foulkes estimate   =    -136.04300119 Ry
     estimated scf accuracy    <       0.00000187 Ry

     total magnetization       =     6.00 Bohr mag/cell
     absolute magnetization    =     6.00 Bohr mag/cell

     iteration # 19     ecut=   540.00 Ry     beta= 0.70
     Davidson diagonalization with overlap
     ethr =  1.33E-08,  avg # of iterations =  5.5

     negative rho (up, down):  0.000E+00 1.072E-07
 
     Magnetic moment per site:
     atom:    1    charge:   13.9991    magn:    5.9991    constr:    0.0000

     total cpu time spent up to now is      280.5 secs

     End of self-consistent calculation

 ------ SPIN UP ------------


          k = 0.0000 0.0000 0.0000 (****** PWs)   bands (ev):

   -64.8734 -39.1981 -39.1979 -39.1979  -4.4208  -4.2673  -4.2673  -4.2672
    -4.2672  -4.2672  -1.0779  -1.0768

     occupation numbers 
     1.0000   1.0000   1.0000   1.0000   1.0000   1.0000   1.0000   1.0000
     1.0000   1.0000   0.0000   0.0000

 ------ SPIN DOWN ----------


          k = 0.0000 0.0000 0.0000 (****** PWs)   bands (ev):

   -62.0433 -36.1112 -36.1111 -36.1111  -1.4493  -0.8435  -0.8430  -0.8420
    -0.8418  -0.8417   0.2212   0.8894

     occupation numbers 
     1.0000   1.0000   1.0000   1.0000   0.0000   0.0000   0.0000   0.0000
     0.0000   0.0000   0.0000   0.0000

     highest occupied, lowest unoccupied level (ev):    -4.2672   -1.4493

!    total energy              =    -136.04285189 Ry
     Harris-Foulkes estimate   =    -136.04292935 Ry
     estimated scf accuracy    <       0.00000008 Ry

     The total energy is the sum of the following terms:

     one-electron contribution =    -184.09679450 Ry
     hartree contribution      =      88.45979456 Ry
     xc contribution           =     -15.88244366 Ry
     ewald contribution        =     -24.52340829 Ry

     total magnetization       =     6.00 Bohr mag/cell
     absolute magnetization    =     6.00 Bohr mag/cell

     convergence has been achieved in  19 iterations

     Writing output data file pwscf.save/
 
     init_run     :     13.16s CPU     13.71s WALL (       1 calls)
     electrons    :    260.91s CPU    267.70s WALL (       1 calls)

     Called by init_run:
     wfcinit      :      2.24s CPU      2.33s WALL (       1 calls)
     wfcinit:atom :      0.02s CPU      0.03s WALL (       2 calls)
     wfcinit:wfcr :      2.18s CPU      2.25s WALL (       2 calls)
     potinit      :      3.35s CPU      3.57s WALL (       1 calls)
     hinit0       :      0.30s CPU      0.43s WALL (       1 calls)

     Called by electrons:
     c_bands      :    143.79s CPU    145.13s WALL (      19 calls)
     sum_band     :     39.81s CPU     39.88s WALL (      19 calls)
     v_of_rho     :     59.67s CPU     62.82s WALL (      20 calls)
     v_h          :      4.91s CPU      5.16s WALL (      20 calls)
     v_xc         :     54.75s CPU     57.66s WALL (      20 calls)
     mix_rho      :     18.18s CPU     19.97s WALL (      19 calls)

     Called by c_bands:
     init_us_2    :      0.69s CPU      0.69s WALL (      78 calls)
     regterg      :    142.59s CPU    143.92s WALL (      38 calls)

     Called by sum_band:

     Called by *egterg:
     h_psi        :    131.36s CPU    131.59s WALL (     212 calls)
     g_psi        :      0.40s CPU      0.40s WALL (     172 calls)
     rdiaghg      :      0.23s CPU      0.25s WALL (     210 calls)
     regterg:over :      3.12s CPU      3.13s WALL (     172 calls)
     regterg:upda :      6.01s CPU      6.08s WALL (     172 calls)
     regterg:last :      1.64s CPU      1.64s WALL (      46 calls)
     rdiaghg:chol :      0.05s CPU      0.05s WALL (     210 calls)
     rdiaghg:inve :      0.01s CPU      0.01s WALL (     210 calls)
     rdiaghg:para :      0.03s CPU      0.03s WALL (     420 calls)

     Called by h_psi:
     h_psi:pot    :    130.61s CPU    130.83s WALL (     212 calls)
     h_psi:calbec :      0.56s CPU      0.58s WALL (     212 calls)
     vloc_psi     :    129.24s CPU    129.44s WALL (     212 calls)
     add_vuspsi   :      0.81s CPU      0.81s WALL (     212 calls)

     General routines
     calbec       :      0.55s CPU      0.57s WALL (     212 calls)
     fft          :     52.60s CPU     53.05s WALL (     296 calls)
     ffts         :      5.57s CPU      5.59s WALL (      38 calls)
     fftw         :    123.43s CPU    123.60s WALL (    1742 calls)
 
     Parallel routines
     fft_scatt_xy :     33.34s CPU     33.37s WALL (    2076 calls)
     fft_scatt_yz :     60.97s CPU     61.36s WALL (    2076 calls)
 
     PWSCF        :   4m34.91s CPU   4m43.82s WALL

 
   This run was terminated on:  15:43: 8  17Jan2022            

=------------------------------------------------------------------------------=
   JOB DONE.
=------------------------------------------------------------------------------=
