
 Primary working directories    : /global/cscratch1/sd/bkincaid
 Secondary working directories  : /global/cscratch1/sd/bkincaid
 Wavefunction directory         : /global/homes/b/bkincaid/wfu/
 Main file repository           : /global/cscratch1/sd/bkincaid/

 SHA1      : 19cd028119e0e09f93f0674bd8af7968d9b3eff6
 NAME      : 2015.1.36
 ARCHNAME  : linux/x86_64
 FC        : /opt/cray/pe/craype/2.5.14/bin/ftn
 BLASLIB   : -L/opt/intel/compilers_and_libraries_2018.1.163/linux/mkl/lib/intel64 -Wl,-_start-group -lmkl_intel_ilp64 -lmkl_intel_thread -lmkl_core -Wl,-_end-group -liomp5
 id        : lbl

 Nodes     nprocs
 nid00783    11
 Number of processes for MPI-2 version of Molpro:   nprocs(total)=   12   nprocs(compute)=   11   nprocs(helper)=    1

 Using customized tuning parameters: mindgm=7; mindgv=16; mindgc=1; mindgr=1; noblas=0; minvec=7
 default implementation of scratch files=sf  

 ***,Calculation for PtH groundstate
 memory,1024,m
 gthresh,twoint=1.0E-15
 gthresh,throvl=1.0E-15
                                                                                 !symmetry,nosym
 
 set,dkroll=1,dkho=10,dkhp=4
 
 basis={
 
 Including file /global/u1/b/bkincaid/molpro/Pt/molecules/PtO/tz/UC/1.7/O-contracted.basis
 
 Including file /global/u1/b/bkincaid/molpro/Pt/molecules/PtO/tz/UC/1.7/Pt-contracted.basis
 }
 
 ne = 86
 z = 1.7
 
 geometry={
 2
 PtH
 Pt 0.0 0.0 0.0
 O 0.0 0.0 z
 }
 
 A1=20
 B1=10
 B2=9
 A2=4
 
 basis={
 
 Including file /global/u1/b/bkincaid/molpro/Pt/molecules/PtO/tz/UC/1.7/Pt-aug-cc-pwCVTZ.basis
 
 Including file /global/u1/b/bkincaid/molpro/Pt/molecules/PtO/tz/UC/1.7/O-aug-cc-pCVTZ.basis
 }
 
 {rhf
 wf,nelec=ne,spin=0,sym=1
 occ,A1,B1,B2,A2
 closed,A1,B1,B2,A2
 orbital,2101.2
 }
 
 {rhf,nitord=1,maxit=0;
 start,2101.2
 wf,nelec=ne,spin=0,sym=1
 occ,A1,B1,B2,A2
 closed,A1,B1,B2,A2
 rotate,13.1,15.1,0
 orbital,3101.2
 }
 
 scf=energy
 _CC_NORM_MAX=2.0
 {rccsd(t);maxit,100;core,14,7,7,3}
 ccsd=energy
 
 table,z,scf,ccsd
 save, 3.csv, new
 

 Variables initialized (889), CPU time= 0.00 sec
 Commands  initialized (702), CPU time= 0.01 sec, 572 directives.
 Default parameters read. Elapsed time= 0.13 sec

 Checking input...
 Passed
1


                                         ***  PROGRAM SYSTEM MOLPRO  ***
                                       Copyright, TTI GmbH Stuttgart, 2015
                                    Version 2015.1 linked Dec 29 2018 15:55:43


 **********************************************************************************************************************************
 LABEL *   Calculation for PtH groundstate                                               
  64 bit mpp version                                                                     DATE: 10-Sep-21          TIME: 14:31:30  
 **********************************************************************************************************************************

 SHA1:             19cd028119e0e09f93f0674bd8af7968d9b3eff6
 **********************************************************************************************************************************

 THRESHOLDS:

 ZERO    =  1.00D-12  ONEINT  =  1.00D-12  TWOINT  =  1.00D-15  PREFAC  =  1.00D-14  LOCALI  =  1.00D-09  EORDER  =  1.00D-04
 ENERGY  =  0.00D+00  ETEST   =  0.00D+00  EDENS   =  0.00D+00  THRDEDEF=  1.00D-06  GRADIENT=  1.00D-02  STEP    =  1.00D-03
 ORBITAL =  1.00D-05  CIVEC   =  1.00D-05  COEFF   =  1.00D-04  PRINTCI =  5.00D-02  PUNCHCI =  9.90D+01  OPTGRAD =  3.00D-04
 OPTENERG=  1.00D-06  OPTSTEP =  3.00D-04  THRGRAD =  1.00D-10  COMPRESS=  1.00D-11  VARMIN  =  1.00D-07  VARMAX  =  1.00D-03
 THRDOUB =  0.00D+00  THRDIV  =  1.00D-05  THRRED  =  1.00D-07  THRPSP  =  1.00D+00  THRDC   =  1.00D-10  THRCS   =  1.00D-10
 THRNRM  =  1.00D-08  THREQ   =  0.00D+00  THRDE   =  1.00D+00  THRREF  =  1.00D-05  SPARFAC =  1.00D+00  THRDLP  =  1.00D-07
 THRDIA  =  1.00D-10  THRDLS  =  1.00D-07  THRGPS  =  0.00D+00  THRKEX  =  0.00D+00  THRDIS  =  2.00D-01  THRVAR  =  1.00D-10
 THRLOC  =  1.00D-06  THRGAP  =  1.00D-06  THRLOCT = -1.00D+00  THRGAPT = -1.00D+00  THRORB  =  1.00D-06  THRMLTP =  0.00D+00
 THRCPQCI=  1.00D-10  KEXTA   =  0.00D+00  THRCOARS=  0.00D+00  SYMTOL  =  1.00D-06  GRADTOL =  1.00D-06  THROVL  =  1.00D-08
 THRORTH =  1.00D-08  GRID    =  1.00D-06  GRIDMAX =  1.00D-03  DTMAX   =  0.00D+00  THROCCDE=  1.00D-01  THROCCDE=  1.00D-01



 THRESHOLDS:

 ZERO    =  1.00D-12  ONEINT  =  1.00D-12  TWOINT  =  1.00D-15  PREFAC  =  1.00D-14  LOCALI  =  1.00D-09  EORDER  =  1.00D-04
 ENERGY  =  0.00D+00  ETEST   =  0.00D+00  EDENS   =  0.00D+00  THRDEDEF=  1.00D-06  GRADIENT=  1.00D-02  STEP    =  1.00D-03
 ORBITAL =  1.00D-05  CIVEC   =  1.00D-05  COEFF   =  1.00D-04  PRINTCI =  5.00D-02  PUNCHCI =  9.90D+01  OPTGRAD =  3.00D-04
 OPTENERG=  1.00D-06  OPTSTEP =  3.00D-04  THRGRAD =  1.00D-10  COMPRESS=  1.00D-11  VARMIN  =  1.00D-07  VARMAX  =  1.00D-03
 THRDOUB =  0.00D+00  THRDIV  =  1.00D-05  THRRED  =  1.00D-07  THRPSP  =  1.00D+00  THRDC   =  1.00D-10  THRCS   =  1.00D-10
 THRNRM  =  1.00D-08  THREQ   =  0.00D+00  THRDE   =  1.00D+00  THRREF  =  1.00D-05  SPARFAC =  1.00D+00  THRDLP  =  1.00D-07
 THRDIA  =  1.00D-10  THRDLS  =  1.00D-07  THRGPS  =  0.00D+00  THRKEX  =  0.00D+00  THRDIS  =  2.00D-01  THRVAR  =  1.00D-10
 THRLOC  =  1.00D-06  THRGAP  =  1.00D-06  THRLOCT = -1.00D+00  THRGAPT = -1.00D+00  THRORB  =  1.00D-06  THRMLTP =  0.00D+00
 THRCPQCI=  1.00D-10  KEXTA   =  0.00D+00  THRCOARS=  0.00D+00  SYMTOL  =  1.00D-06  GRADTOL =  1.00D-06  THROVL  =  1.00D-15
 THRORTH =  1.00D-08  GRID    =  1.00D-06  GRIDMAX =  1.00D-03  DTMAX   =  0.00D+00  THROCCDE=  1.00D-01  THROCCDE=  1.00D-01


 SETTING DKROLL         =         1.00000000                                  
 SETTING DKHO           =        10.00000000                                  
 SETTING DKHP           =         4.00000000                                  

 Variable memory set to 1024000000 words,  buffer space   230000 words

 SETTING BASIS          =    USERDEF
 SETTING NE             =        86.00000000                                  
 SETTING Z              =         1.70000000                                  

Geometry recognized as XYZ

 SETTING A1             =        20.00000000                                  
 SETTING B1             =        10.00000000                                  
 SETTING B2             =         9.00000000                                  
 SETTING A2             =         4.00000000                                  
 SETTING BASIS          =    USERDEF


 Recomputing integrals since basis changed


 Using spherical harmonics



 PROGRAM * SEWARD (Integral evaluation for generally contracted gaussian basis sets)     Author: Roland Lindh, 1990

 Geometry written to block  1 of record 700


 Point group  C2v 



 ATOMIC COORDINATES

 NR  ATOM    CHARGE       X              Y              Z

   1  PT     78.00    0.000000000    0.000000000    0.000000000
   2  O       8.00    0.000000000    0.000000000    3.212534412

 Bond lengths in Bohr (Angstrom)

 1-2  3.212534412
     ( 1.700000000)

 NUCLEAR CHARGE:                   86
 NUMBER OF PRIMITIVE AOS:         515
 NUMBER OF SYMMETRY AOS:          418
 NUMBER OF CONTRACTIONS:          418   ( 171A1  + 100B1  + 100B2  +  47A2  )
 NUMBER OF CORE ORBITALS:          35   (  16A1  +   8B1  +   8B2  +   3A2  )
 NUMBER OF VALENCE ORBITALS:       10   (   5A1  +   2B1  +   2B2  +   1A2  )


 NUCLEAR REPULSION ENERGY  194.23916448

 One-electron integrals computed with SEWARD

 10nd-order Douglas-Kroll-Hess method activated. McWeeny DKH parametrization is used.

 Computing Douglas-Kroll / X2C integrals

 AO integral compression algorithm  1   Integral accuracy      1.0D-15

     3531.080 MB (compressed) written to integral file ( 38.0%)

     Node minimum: 192.152 MB, node maximum: 664.273 MB


 NUMBER OF SORTED TWO-ELECTRON INTEGRALS:   89205809.     BUFFER LENGTH:  32768
 NUMBER OF SEGMENTS:   3  SEGMENT LENGTH:   31992396      RECORD LENGTH: 524288

 Memory used in sort:      32.55 MW

 SORT1 READ  1160821837. AND WROTE    36656890. INTEGRALS IN    107 RECORDS. CPU TIME:   125.30 SEC, REAL TIME:   133.50 SEC
 SORT2 READ   399125806. AND WROTE   981437681. INTEGRALS IN  19371 RECORDS. CPU TIME:   371.05 SEC, REAL TIME:   373.91 SEC

 Node minimum:    89159788.  Node maximum:    89385973. integrals

 OPERATOR DM      FOR CENTER  0  COORDINATES:    0.000000    0.000000    0.000000

 EXTRA SYMMETRY OF AOS IN SYMMETRY 1:   1 1 1 1 1 1 1 1 1 1   1 1 1 1 1 1 1 1 1 1   1 1 1 1 1 1 1 1 1 1   1 1 1 1 1 1 1 1 1 1
                                        1 1 1 1 1 1 1 1 1 1   1 1 1 1 1 1 1 1 1 1   2 1 2 1 2 1 2 1 2 1   2 1 2 1 2 1 2 1 2 1
                                        2 1 2 1 2 1 2 1 2 1   2 1 2 1 2 1 2 1 2 1   2 1 2 1 2 1 2 1 2 1   2 1 2 1 2 1 2 1 2 1
                                        2 1 2 1 2 1 2 1 2 1   3 2 1 3 2 1 3 2 1 1   1 1 1 1 1 1 1 1 1 1   1 1 1 1 1 1 1 1 1 1
                                        2 1 2 1 2 1 2 1 2 1   2
 EXTRA SYMMETRY OF AOS IN SYMMETRY 2:   1 1 1 1 1 1 1 1 1 1   1 1 1 1 1 1 1 1 1 1   1 1 1 1 1 1 1 1 1 1   1 1 1 1 1 1 1 1 1 1
                                        1 1 1 1 1 2 1 2 1 2   1 2 1 2 1 2 1 2 1 2   1 2 1 2 1 2 1 2 1 2   1 2 1 2 1 2 1 2 1 2
                                        1 2 1 2 1 1 1 1 1 1   1 1 1 1 1 1 1 2 1 2
 EXTRA SYMMETRY OF AOS IN SYMMETRY 3:   1 1 1 1 1 1 1 1 1 1   1 1 1 1 1 1 1 1 1 1   1 1 1 1 1 1 1 1 1 1   1 1 1 1 1 1 1 1 1 1
                                        1 1 1 1 1 2 1 2 1 2   1 2 1 2 1 2 1 2 1 2   1 2 1 2 1 2 1 2 1 2   1 2 1 2 1 2 1 2 1 2
                                        1 2 1 2 1 1 1 1 1 1   1 1 1 1 1 1 1 2 1 2
 EXTRA SYMMETRY OF AOS IN SYMMETRY 4:   1 1 1 1 1 1 1 1 1 1   1 1 1 1 1 1 1 1 1 1   1 1 1 1 1 1 1 1 1 1   1 1 1 1 1 1 2 1 2 1
                                        2 1 1 1 1 1 1

 Eigenvalues of metric

         1 0.631E-05 0.138E-04 0.386E-04 0.564E-04 0.677E-04 0.112E-03 0.175E-03 0.206E-03
         2 0.139E-04 0.272E-03 0.752E-03 0.956E-03 0.182E-02 0.191E-02 0.210E-02 0.239E-02
         3 0.139E-04 0.272E-03 0.752E-03 0.956E-03 0.182E-02 0.191E-02 0.210E-02 0.239E-02
         4 0.824E-03 0.191E-02 0.217E-02 0.243E-02 0.655E-02 0.712E-02 0.118E-01 0.170E-01


 **********************************************************************************************************************************
 DATASETS  * FILE   NREC   LENGTH (MB)   RECORD NAMES
              1      22       23.40       500      610      700      900      950      970     1000      129      960     1700   
                                          VAR    BASINP    GEOM    SYMINP    ZMAT    AOBASIS   BASIS     P2S    ABASIS    OPER   
                                         1101     1401     1411     1412     1650     1100     1400     1410     1200     1210   
                                          SR      EKINR    POTR     PVPR    MOLCAS      S      EKIN      POT      H0       H01  
                                         1080     1600   
                                         AOSYM     SMH  

 PROGRAMS   *        TOTAL       INT
 CPU TIMES  *       601.76    601.40
 REAL TIME  *       614.67 SEC
 DISK USED  *         8.35 GB      
 GA USED    *         0.00 MB       (max)       0.00 MB       (current)
 **********************************************************************************************************************************


 PROGRAM * RHF-SCF (CLOSED SHELL)       Authors: W. Meyer, H.-J. Werner


 NUMBER OF ELECTRONS:      43+   43-    SPACE SYMMETRY=1    SPIN SYMMETRY: Singlet 
 CONVERGENCE THRESHOLDS:    1.00E-05 (Density)    1.72E-07 (Energy)
 MAX. NUMBER OF ITERATIONS:       60
 INTERPOLATION TYPE:            DIIS
 INTERPOLATION STEPS:              2 (START)      1 (STEP)
 LEVEL SHIFTS:                  0.00 (CLOSED)  0.00 (OPEN) 

 Number of closed-shell orbitals:   43 (  20  10   9   4 )


 Orbital guess generated from atomic densities. Full valence occupancy:   21  10  10   4

 Molecular orbital dump at record        2101.2

 ITERATION    DDIFF          GRAD             ENERGY        2-EL.EN.            DIPOLE MOMENTS         DIIS   ORB.
    1      0.000D+00      0.000D+00    -18466.09273981  13200.519298    0.00000    0.00000   -0.81127    0    start
    2      0.000D+00      0.413D-01    -18475.48841811  14812.085730    0.00000    0.00000    8.14323    1    diag
    3      0.277D+01      0.865D-01    -18484.82463398  14464.277864    0.00000    0.00000    1.14319    2    diag
    4      0.104D+00      0.353D-01    -18486.90757903  14316.007283    0.00000    0.00000    1.16823    3    diag
    5      0.129D-01      0.175D-01    -18487.83570304  14170.046456    0.00000    0.00000   -1.34812    4    diag
    6      0.763D-02      0.519D-02    -18487.93707181  14146.547932    0.00000    0.00000   -1.03242    5    diag
    7      0.212D-02      0.159D-02    -18487.96214648  14124.409670    0.00000    0.00000   -1.50017    6    diag
    8      0.137D-02      0.863D-03    -18487.96905949  14119.577224    0.00000    0.00000   -1.62961    7    diag
    9      0.779D-03      0.869D-03    -18487.97273550  14122.093976    0.00000    0.00000   -1.58878    8    diag
   10      0.394D-03      0.465D-03    -18487.97725530  14122.333288    0.00000    0.00000   -1.58464    9    orth
   11      0.985D-03      0.120D-03    -18487.97775319  14121.243219    0.00000    0.00000   -1.59786    9    diag
   12      0.277D-03      0.582D-04    -18487.97790438  14120.710922    0.00000    0.00000   -1.60749    9    diag
   13      0.188D-03      0.231D-04    -18487.97792057  14120.618640    0.00000    0.00000   -1.60364    9    diag
   14      0.638D-04      0.102D-04    -18487.97792274  14120.590506    0.00000    0.00000   -1.60609    9    diag
   15      0.160D-04      0.383D-05    -18487.97792304  14120.596481    0.00000    0.00000   -1.60591    9    diag
   16      0.441D-05      0.171D-05    -18487.97792313  14120.600737    0.00000    0.00000   -1.60590    9    diag
   17      0.278D-05      0.731D-06    -18487.97792314  14120.597277    0.00000    0.00000   -1.60601    0    orth

 Final occupancy:  20  10   9   4

 !RHF STATE 1.1 Energy               -18487.9779231396    
 Nuclear energy                       194.23916448
 One-electron energy               -25742.51572623
 Two-electron energy                 7060.29863861
 Virial quotient                       -0.67714489
 !RHF STATE 1.1 Dipole moment           0.00000000     0.00000000    -1.60600756
 Dipole moment /Debye                   0.00000000     0.00000000    -4.08179669

 Orbital energies:

         1.1          2.1          3.1          4.1          5.1          6.1          7.1          8.1          9.1         10.1
  -2897.688530  -514.575228  -447.467950  -123.414508  -103.473446   -80.969379   -80.961902   -27.915308   -21.244321   -20.640658

        11.1         12.1         13.1         14.1         15.1         16.1         17.1         18.1         19.1         20.1
    -12.818238   -12.801362    -4.508135    -3.462835    -3.443826    -2.676523    -1.269552    -0.620770    -0.470433    -0.359367

        21.1         22.1
     -0.011612     0.019640

         1.2          2.2          3.2          4.2          5.2          6.2          7.2          8.2          9.2         10.2
   -447.465961  -103.464272   -80.964669   -21.223464   -12.808276    -3.448657    -3.441490    -2.640803    -0.610956    -0.405884

        11.2         12.2
      0.035680     0.101564

         1.3          2.3          3.3          4.3          5.3          6.3          7.3          8.3          9.3         10.3
   -447.468531  -103.473927   -80.965235   -21.241403   -12.811525    -3.462790    -3.442741    -2.649219    -0.495517    -0.011758

        11.3
      0.042699

         1.4          2.4          3.4          4.4          5.4          6.4
    -80.965596   -12.806994    -3.450550    -0.468490     0.109650     0.158511

 HOMO     20.1    -0.359367 =      -9.7789eV
 LUMO     10.3    -0.011758 =      -0.3199eV
 LUMO-HOMO         0.347609 =       9.4589eV


 **********************************************************************************************************************************
 DATASETS  * FILE   NREC   LENGTH (MB)   RECORD NAMES
              1      22       23.40       500      610      700      900      950      970     1000      129      960     1700   
                                          VAR    BASINP    GEOM    SYMINP    ZMAT    AOBASIS   BASIS     P2S    ABASIS    OPER   
                                         1101     1401     1411     1412     1650     1100     1400     1410     1200     1210   
                                          SR      EKINR    POTR     PVPR    MOLCAS      S      EKIN      POT      H0       H01  
                                         1080     1600   
                                         AOSYM     SMH  

              2       4        3.86       700     1000      520     2101   
                                         GEOM     BASIS   MCVARS     RHF  

 PROGRAMS   *        TOTAL       RHF       INT
 CPU TIMES  *       609.92      8.16    601.40
 REAL TIME  *       623.56 SEC
 DISK USED  *         8.69 GB      
 SF USED    *         0.21 MB      
 GA USED    *         0.00 MB       (max)       0.00 MB       (current)
 **********************************************************************************************************************************


 PROGRAM * RHF-SCF (CLOSED SHELL)       Authors: W. Meyer, H.-J. Werner


 NUMBER OF ELECTRONS:      43+   43-    SPACE SYMMETRY=1    SPIN SYMMETRY: Singlet 
 CONVERGENCE THRESHOLDS:    1.00E-05 (Density)    1.72E-07 (Energy)
 MAX. NUMBER OF ITERATIONS:        0
 INTERPOLATION TYPE:            DIIS
 INTERPOLATION STEPS:              2 (START)      1 (STEP)
 LEVEL SHIFTS:                  0.00 (CLOSED)  0.00 (OPEN) 

 Number of closed-shell orbitals:   43 (  20  10   9   4 )


 Molecular orbitals read from record     2101.2  Type=RHF/CANONICAL (state 1.1)

 Molecular orbital dump at record        3101.2
 ROTATION OF ORBITALS  13.1   15.1       90.00 DEGREES

 ITERATION    DDIFF          GRAD             ENERGY        2-EL.EN.            DIPOLE MOMENTS         DIIS   ORB.
    1      0.000D+00      0.000D+00    -18487.97792314  14120.597277    0.00000    0.00000   -1.60601    0    start

 Final occupancy:  20  10   9   4

 !RHF STATE 1.1 Energy               -18487.9779231396    
 Nuclear energy                       194.23916448
 One-electron energy               -25742.51572623
 Two-electron energy                 7060.29863861
 Virial quotient                       -0.67714489
 !RHF STATE 1.1 Dipole moment           0.00000000     0.00000000    -1.60600756
 Dipole moment /Debye                   0.00000000     0.00000000    -4.08179669

 Orbital energies:

         1.1          2.1          3.1          4.1          5.1          6.1          7.1          8.1          9.1         10.1
  -2897.688530  -514.575228  -447.467950  -123.414508  -103.473446   -80.969379   -80.961902   -27.915308   -21.244321   -20.640658

        11.1         12.1         13.1         14.1         15.1         16.1         17.1         18.1         19.1         20.1
    -12.818238   -12.801362    -4.508135    -3.462835    -3.443826    -2.676523    -1.269552    -0.620770    -0.470433    -0.359367

        21.1         22.1
     -0.011612     0.019640

         1.2          2.2          3.2          4.2          5.2          6.2          7.2          8.2          9.2         10.2
   -447.465961  -103.464272   -80.964669   -21.223464   -12.808276    -3.448657    -3.441490    -2.640803    -0.610956    -0.405884

        11.2         12.2
      0.035680     0.101564

         1.3          2.3          3.3          4.3          5.3          6.3          7.3          8.3          9.3         10.3
   -447.468531  -103.473927   -80.965235   -21.241403   -12.811525    -3.462790    -3.442741    -2.649219    -0.495517    -0.011758

        11.3
      0.042699

         1.4          2.4          3.4          4.4          5.4          6.4
    -80.965596   -12.806994    -3.450550    -0.468490     0.109650     0.158511

 HOMO     20.1    -0.359367 =      -9.7789eV
 LUMO     10.3    -0.011758 =      -0.3199eV
 LUMO-HOMO         0.347609 =       9.4589eV


 **********************************************************************************************************************************
 DATASETS  * FILE   NREC   LENGTH (MB)   RECORD NAMES
              1      22       23.40       500      610      700      900      950      970     1000      129      960     1700   
                                          VAR    BASINP    GEOM    SYMINP    ZMAT    AOBASIS   BASIS     P2S    ABASIS    OPER   
                                         1101     1401     1411     1412     1650     1100     1400     1410     1200     1210   
                                          SR      EKINR    POTR     PVPR    MOLCAS      S      EKIN      POT      H0       H01  
                                         1080     1600   
                                         AOSYM     SMH  

              2       5        8.43       700     1000      520     2101     3101   
                                         GEOM     BASIS   MCVARS     RHF      RHF  

 PROGRAMS   *        TOTAL       RHF       RHF       INT
 CPU TIMES  *       610.35      0.43      8.16    601.40
 REAL TIME  *       624.12 SEC
 DISK USED  *         8.69 GB      
 SF USED    *         0.21 MB      
 GA USED    *         0.00 MB       (max)       0.00 MB       (current)
 **********************************************************************************************************************************
 SETTING SCF            =    -18487.97792314  AU                              
 SETTING _CC_NORM_MAX   =         2.00000000                                  


 PROGRAM * CCSD (Restricted open-shell coupled cluster)     Authors: C. Hampel, H.-J. Werner, 1991, M. Deegan, P.J. Knowles, 1992


 Convergence thresholds:  THRVAR = 1.00D-08  THRDEN = 1.72D-06

 CCSD(T)     terms to be evaluated (factor= 1.000)


 Number of core orbitals:          31 (  14   7   7   3 )
 Number of closed-shell orbitals:  12 (   6   3   2   1 )
 Number of external orbitals:     375 ( 151  90  91  43 )

 Memory could be reduced to 279.02 Mwords without degradation in triples

 Number of N-1 electron functions:              24
 Number of N-2 electron functions:             276
 Number of singly external CSFs:              2802
 Number of doubly external CSFs:           7566540
 Total number of CSFs:                     7569342

 Molecular orbitals read from record     3101.2  Type=RHF/CANONICAL (state 1.1)

 Integral transformation finished. Total CPU:   9.90 sec, npass=  1  Memory used:  33.65 MW

 Starting RMP2 calculation

 Wavefunction is spin-projected

 ITER.      SQ.NORM     CORR.ENERGY   TOTAL ENERGY   ENERGY CHANGE        DEN1      VAR(S)    VAR(P)  DIIS     TIME
   1      1.26966608    -0.97823188-18488.95615502    -0.97823188    -0.00370959  0.20D-09  0.20D-02  1  1   397.13
   2      1.27467329    -0.98224879-18488.96017193    -0.00401692    -0.00001441  0.58D-11  0.11D-04  2  2   397.95
   3      1.27499877    -0.98240699-18488.96033013    -0.00015819    -0.00000004  0.11D-12  0.30D-07  3  3   398.96
   4      1.27500603    -0.98240865-18488.96033179    -0.00000167    -0.00000000  0.23D-14  0.16D-09  4  4   400.70

 Norm of t1 vector:      0.00008000      S-energy:    -0.00000000      T1 diagnostic:  0.00001155
 Norm of t2 vector:      0.52441017      P-energy:    -0.98240865
                                         Alpha-Beta:  -0.68301291
                                         Alpha-Alpha: -0.14969787
                                         Beta-Beta:   -0.14969787

 Spin contamination <S**2-Sz**2-Sz>     0.00000000
  Reference energy                   -18487.9779231396    
  RHF-RMP2 correlation energy          -0.982408650822
 !RHF-RMP2 energy                    -18488.9603317904    
 (NB above energy spin projected)

 Starting RCCSD calculation

 ITER.      SQ.NORM     CORR.ENERGY   TOTAL ENERGY   ENERGY CHANGE        DEN1      VAR(S)    VAR(P)  DIIS     TIME
   1      1.20781634    -0.87134044-18488.84926358    -0.87134044    -0.04551199  0.16D-01  0.96D-02  1  1   486.19
   2      1.23584666    -0.90492240-18488.88284554    -0.03358196    -0.00443859  0.75D-03  0.18D-02  2  2   495.56
   3      1.25310401    -0.90760132-18488.88552446    -0.00267892    -0.00120889  0.11D-02  0.21D-03  3  3   504.16
   4      1.26699566    -0.91062996-18488.88855310    -0.00302864    -0.00031464  0.29D-03  0.60D-04  4  4   514.16
   5      1.28041023    -0.91244808-18488.89037122    -0.00181813    -0.00009541  0.11D-03  0.14D-04  5  5   524.49
   6      1.28850613    -0.91288733-18488.89081047    -0.00043925    -0.00003288  0.39D-04  0.54D-05  6  6   534.74
   7      1.29463758    -0.91311985-18488.89104299    -0.00023252    -0.00000970  0.87D-05  0.21D-05  6  1   544.47
   8      1.29691081    -0.91313291-18488.89105605    -0.00001306    -0.00000227  0.19D-05  0.57D-06  6  3   554.23
   9      1.29837980    -0.91322200-18488.89114514    -0.00008909    -0.00000047  0.40D-06  0.11D-06  6  2   564.09
  10      1.29861352    -0.91322356-18488.89114670    -0.00000156    -0.00000016  0.13D-06  0.40D-07  6  5   574.33
  11      1.29864669    -0.91321991-18488.89114305     0.00000366    -0.00000006  0.44D-07  0.15D-07  6  4   586.91
  12      1.29876210    -0.91322559-18488.89114873    -0.00000568    -0.00000002  0.11D-07  0.45D-08  6  6   596.91
  13      1.29876234    -0.91321986-18488.89114300     0.00000573    -0.00000001  0.46D-08  0.13D-08  6  1   638.67
  14      1.29877119    -0.91322128-18488.89114442    -0.00000142    -0.00000000  0.18D-08  0.45D-09  6  3   648.43

 Norm of t1 vector:      0.24045552      S-energy:     0.00000216      T1 diagnostic:  0.03470677
                                                                       D1 diagnostic:  0.15024864
 Norm of t2 vector:      0.49086895      P-energy:    -0.91322343
                                         Alpha-Beta:  -0.66629176
                                         Alpha-Alpha: -0.12346584
                                         Beta-Beta:   -0.12346584

 Singles amplitudes (print threshold =  0.500E-01):

         I         SYM. A    A   T(IA) [Alpha-Alpha]

         6         1         1     -0.09432839
 
         I         SYM. A    A   T(IA) [Beta-Beta]

         6         1         1     -0.09432839

 Doubles amplitudes (print threshold =  0.500E-01):

         I         J         SYM. A    SYM. B    A         B      T(IJ, AB) [Alpha-Beta]

        11        11         3         3         1         1     -0.12039860
        11        11         3         3         1         2      0.05790783
        11        11         3         3         2         1      0.05790783

 Spin contamination <S**2-Sz**2-Sz>     0.00000000

 Memory could be reduced to 288.37 Mwords without degradation in triples
 

  Correlated core orbitals:            15.1      16.1       8.2       8.3
  Orbital energies:                    -4.5081   -2.6765   -2.6408   -2.6492
 
  RCCSD core-core energy               -0.094104555803
  RCCSD core-valence energy            -0.207979166519
  RCCSD valence correlation energy     -0.611137554398
 

 RESULTS
 =======

  Reference energy                   -18487.9779231396    
  RCCSD singles energy                  0.000002157355
  RCCSD pair energy                    -0.913223434075
  RCCSD correlation energy             -0.913221276720
  Triples (T) contribution             -0.052400949746
  Total correlation energy             -0.965622226467
 
  RHF-RCCSD energy                   -18488.8911444163    
  RHF-RCCSD[T] energy                -18488.9504989151    
  RHF-RCCSD-T energy                 -18488.9428222505    
 !RHF-RCCSD(T) energy                -18488.9435453661    

 Program statistics:

 Available memory in ccsd:              1023998628
 Min. memory needed in ccsd:              21690276
 Max. memory used in ccsd:                31061910
 Max. memory used in cckext:              29174621 (14 integral passes)
 Max. memory used in cckint:              33648281 ( 1 integral passes)



 **********************************************************************************************************************************
 DATASETS  * FILE   NREC   LENGTH (MB)   RECORD NAMES
              1      22       23.40       500      610      700      900      950      970     1000      129      960     1700   
                                          VAR    BASINP    GEOM    SYMINP    ZMAT    AOBASIS   BASIS     P2S    ABASIS    OPER   
                                         1101     1401     1411     1412     1650     1100     1400     1410     1200     1210   
                                          SR      EKINR    POTR     PVPR    MOLCAS      S      EKIN      POT      H0       H01  
                                         1080     1600   
                                         AOSYM     SMH  

              2       5        8.43       700     1000      520     2101     3101   
                                         GEOM     BASIS   MCVARS     RHF      RHF  

 PROGRAMS   *        TOTAL  RCCSD(T)       RHF       RHF       INT
 CPU TIMES  *      1440.87    829.55      0.43      8.16    601.40
 REAL TIME  *      1680.83 SEC
 DISK USED  *        19.20 GB      
 SF USED    *         4.82 GB      
 GA USED    *         0.00 MB       (max)       0.00 MB       (current)
 **********************************************************************************************************************************
 SETTING CCSD           =    -18488.94354537  AU                              
                                                                                                                                                                                                                                                                

      Z          SCF            CCSD
    1.7   -18487.97792   -18488.94355
                                                  

 RCCSD(T)/USERDEF energy= -18488.943545366059

        RCCSD(T)        RHF-SCF         RHF-SCF 
 -18488.94354537 -18487.97792314 -18487.97792314
 **********************************************************************************************************************************
 Molpro calculation terminated
 Variable memory released
