
 Primary working directories    : /global/cscratch1/sd/bkincaid
 Secondary working directories  : /global/cscratch1/sd/bkincaid
 Wavefunction directory         : /global/homes/b/bkincaid/wfu/
 Main file repository           : /global/cscratch1/sd/bkincaid/

 SHA1      : 19cd028119e0e09f93f0674bd8af7968d9b3eff6
 NAME      : 2015.1.36
 ARCHNAME  : linux/x86_64
 FC        : /opt/cray/pe/craype/2.5.14/bin/ftn
 BLASLIB   : -L/opt/intel/compilers_and_libraries_2018.1.163/linux/mkl/lib/intel64 -Wl,-_start-group -lmkl_intel_ilp64 -lmkl_intel_thread -lmkl_core -Wl,-_end-group -liomp5
 id        : lbl

 Nodes     nprocs
 nid12974    11
 Number of processes for MPI-2 version of Molpro:   nprocs(total)=   12   nprocs(compute)=   11   nprocs(helper)=    1

 Using customized tuning parameters: mindgm=7; mindgv=16; mindgc=1; mindgr=1; noblas=0; minvec=7
 default implementation of scratch files=sf  

 ***,Calculation for IrO groundstate
 memory,1024,m
 gthresh,twoint=1.0E-15
 gthresh,throvl=1.0E-15
 
 set,dkroll=1,dkho=10,dkhp=4
 
 basis={
 Including file /global/u1/b/bkincaid/molpro/Ir/molecules/tz/IrO/ae/1.400/tz.basis
 Including file /global/u1/b/bkincaid/molpro/Ir/molecules/tz/IrO/ae/1.400/O-aug-cc-CVTZ.basis
 }
 
 ne = 85
 
 A1=20
 B1=9
 B2=10
 A2=4
 
 do i=1,1
 z(i) = 1.400 - 0.1*(i-1)
 geometry={
 2
 IrO
 Ir 0.0 0.0 0.0
 O 0.0 0.0 z(i)
 }
 {rks,pbe0
 wf,nele=ne,spin=1,sym=4
         occ,A1,B1,B2,A2
         closed,A1,B1,B2,A2-1
 }
 pbe(i)=energy
 {rhf
 wf,nelec=ne,spin=1,sym=4
         occ,A1,B1,B2,A2
         closed,A1,B1,B2,A2-1
 }
 scf(i)=energy
 _CC_NORM_MAX=2.0
 {rccsd(t);maxit,100;core}
 ccsd(i)=energy
 enddo
 
 table,z,pbe,scf,ccsd
 save
 type,csv
 

 Variables initialized (889), CPU time= 0.00 sec
 Commands  initialized (702), CPU time= 0.01 sec, 572 directives.
 Default parameters read. Elapsed time= 0.18 sec

 Checking input...
 Passed
1


                                         ***  PROGRAM SYSTEM MOLPRO  ***
                                       Copyright, TTI GmbH Stuttgart, 2015
                                    Version 2015.1 linked Dec 29 2018 15:55:43


 **********************************************************************************************************************************
 LABEL *   Calculation for IrO groundstate                                               
  64 bit mpp version                                                                     DATE: 14-Mar-21          TIME: 17:11:43  
 **********************************************************************************************************************************

 SHA1:             19cd028119e0e09f93f0674bd8af7968d9b3eff6
 **********************************************************************************************************************************

 THRESHOLDS:

 ZERO    =  1.00D-12  ONEINT  =  1.00D-12  TWOINT  =  1.00D-15  PREFAC  =  1.00D-14  LOCALI  =  1.00D-09  EORDER  =  1.00D-04
 ENERGY  =  0.00D+00  ETEST   =  0.00D+00  EDENS   =  0.00D+00  THRDEDEF=  1.00D-06  GRADIENT=  1.00D-02  STEP    =  1.00D-03
 ORBITAL =  1.00D-05  CIVEC   =  1.00D-05  COEFF   =  1.00D-04  PRINTCI =  5.00D-02  PUNCHCI =  9.90D+01  OPTGRAD =  3.00D-04
 OPTENERG=  1.00D-06  OPTSTEP =  3.00D-04  THRGRAD =  1.00D-10  COMPRESS=  1.00D-11  VARMIN  =  1.00D-07  VARMAX  =  1.00D-03
 THRDOUB =  0.00D+00  THRDIV  =  1.00D-05  THRRED  =  1.00D-07  THRPSP  =  1.00D+00  THRDC   =  1.00D-10  THRCS   =  1.00D-10
 THRNRM  =  1.00D-08  THREQ   =  0.00D+00  THRDE   =  1.00D+00  THRREF  =  1.00D-05  SPARFAC =  1.00D+00  THRDLP  =  1.00D-07
 THRDIA  =  1.00D-10  THRDLS  =  1.00D-07  THRGPS  =  0.00D+00  THRKEX  =  0.00D+00  THRDIS  =  2.00D-01  THRVAR  =  1.00D-10
 THRLOC  =  1.00D-06  THRGAP  =  1.00D-06  THRLOCT = -1.00D+00  THRGAPT = -1.00D+00  THRORB  =  1.00D-06  THRMLTP =  0.00D+00
 THRCPQCI=  1.00D-10  KEXTA   =  0.00D+00  THRCOARS=  0.00D+00  SYMTOL  =  1.00D-06  GRADTOL =  1.00D-06  THROVL  =  1.00D-08
 THRORTH =  1.00D-08  GRID    =  1.00D-06  GRIDMAX =  1.00D-03  DTMAX   =  0.00D+00  THROCCDE=  1.00D-01  THROCCDE=  1.00D-01



 THRESHOLDS:

 ZERO    =  1.00D-12  ONEINT  =  1.00D-12  TWOINT  =  1.00D-15  PREFAC  =  1.00D-14  LOCALI  =  1.00D-09  EORDER  =  1.00D-04
 ENERGY  =  0.00D+00  ETEST   =  0.00D+00  EDENS   =  0.00D+00  THRDEDEF=  1.00D-06  GRADIENT=  1.00D-02  STEP    =  1.00D-03
 ORBITAL =  1.00D-05  CIVEC   =  1.00D-05  COEFF   =  1.00D-04  PRINTCI =  5.00D-02  PUNCHCI =  9.90D+01  OPTGRAD =  3.00D-04
 OPTENERG=  1.00D-06  OPTSTEP =  3.00D-04  THRGRAD =  1.00D-10  COMPRESS=  1.00D-11  VARMIN  =  1.00D-07  VARMAX  =  1.00D-03
 THRDOUB =  0.00D+00  THRDIV  =  1.00D-05  THRRED  =  1.00D-07  THRPSP  =  1.00D+00  THRDC   =  1.00D-10  THRCS   =  1.00D-10
 THRNRM  =  1.00D-08  THREQ   =  0.00D+00  THRDE   =  1.00D+00  THRREF  =  1.00D-05  SPARFAC =  1.00D+00  THRDLP  =  1.00D-07
 THRDIA  =  1.00D-10  THRDLS  =  1.00D-07  THRGPS  =  0.00D+00  THRKEX  =  0.00D+00  THRDIS  =  2.00D-01  THRVAR  =  1.00D-10
 THRLOC  =  1.00D-06  THRGAP  =  1.00D-06  THRLOCT = -1.00D+00  THRGAPT = -1.00D+00  THRORB  =  1.00D-06  THRMLTP =  0.00D+00
 THRCPQCI=  1.00D-10  KEXTA   =  0.00D+00  THRCOARS=  0.00D+00  SYMTOL  =  1.00D-06  GRADTOL =  1.00D-06  THROVL  =  1.00D-15
 THRORTH =  1.00D-08  GRID    =  1.00D-06  GRIDMAX =  1.00D-03  DTMAX   =  0.00D+00  THROCCDE=  1.00D-01  THROCCDE=  1.00D-01


 SETTING DKROLL         =         1.00000000                                  
 SETTING DKHO           =        10.00000000                                  
 SETTING DKHP           =         4.00000000                                  

 Variable memory set to 1024000000 words,  buffer space   230000 words

 SETTING BASIS          =    USERDEF
 SETTING NE             =        85.00000000                                  
 SETTING A1             =        20.00000000                                  
 SETTING B1             =         9.00000000                                  
 SETTING B2             =        10.00000000                                  
 SETTING A2             =         4.00000000                                  

 DO I                   =         1.00000000   
 SETTING Z(1)           =         1.40000000                                  

Geometry recognized as XYZ



 Recomputing integrals since basis changed


 Using spherical harmonics



 PROGRAM * SEWARD (Integral evaluation for generally contracted gaussian basis sets)     Author: Roland Lindh, 1990

 Geometry written to block  1 of record 700


 Point group  C2v 



 ATOMIC COORDINATES

 NR  ATOM    CHARGE       X              Y              Z

   1  IR     77.00    0.000000000    0.000000000    0.000000000
   2  O       8.00    0.000000000    0.000000000    2.645616574

 Bond lengths in Bohr (Angstrom)

 1-2  2.645616574
     ( 1.400000000)

 NUCLEAR CHARGE:                   85
 NUMBER OF PRIMITIVE AOS:         541
 NUMBER OF SYMMETRY AOS:          446
 NUMBER OF CONTRACTIONS:          446   ( 185A1  + 106B1  + 106B2  +  49A2  )
 NUMBER OF CORE ORBITALS:          35   (  16A1  +   8B1  +   8B2  +   3A2  )
 NUMBER OF VALENCE ORBITALS:       10   (   5A1  +   2B1  +   2B2  +   1A2  )


 NUCLEAR REPULSION ENERGY  232.83797280

 One-electron integrals computed with SEWARD

 10nd-order Douglas-Kroll-Hess method activated. McWeeny DKH parametrization is used.

 Computing Douglas-Kroll / X2C integrals

 AO integral compression algorithm  1   Integral accuracy      1.0D-15

     4777.312 MB (compressed) written to integral file ( 40.8%)

     Node minimum: 283.640 MB, node maximum: 838.337 MB


 NUMBER OF SORTED TWO-ELECTRON INTEGRALS:  115711532.     BUFFER LENGTH:  32768
 NUMBER OF SEGMENTS:   4  SEGMENT LENGTH:   31989761      RECORD LENGTH: 524288

 Memory used in sort:      32.55 MW

 SORT1 READ  1465035727. AND WROTE    47591032. INTEGRALS IN    139 RECORDS. CPU TIME:    23.48 SEC, REAL TIME:    31.27 SEC
 SORT2 READ   520233349. AND WROTE  1273302750. INTEGRALS IN  20801 RECORDS. CPU TIME:     1.60 SEC, REAL TIME:     5.79 SEC

 Node minimum:   115641882.  Node maximum:   115920125. integrals

 OPERATOR DM      FOR CENTER  0  COORDINATES:    0.000000    0.000000    0.000000

 EXTRA SYMMETRY OF AOS IN SYMMETRY 1:   1 1 1 1 1 1 1 1 1 1   1 1 1 1 1 1 1 1 1 1   1 1 1 1 1 1 1 1 1 1   1 1 1 1 1 1 1 1 1 1
                                        1 1 1 1 1 1 1 1 1 1   1 1 1 1 1 1 1 1 1 1   1 1 1 1 1 1 1 1 1 1   1 1 1 1 1 1 1 1 1 1
                                        1 1 1 1 1 1 1 1 1 1   1 1 1 1 1 1 1 1 1 1   1 1 1 1 1 1 1 1 1 1   1 1 1 1 1 1 1 1 1 1
                                        1 1 1 1 1 1 1 1 1 1   1 1 1 1 1 1 1 1 1 1   1 1 1 1 2 1 1 2 1 1   2 1 1 1 1 1 1 1 1 1
                                        1 1 1 1 1 1 1 1 1 1   1 1 1 1 1 1 1 1 1 1   1 1 1 1 1
 EXTRA SYMMETRY OF AOS IN SYMMETRY 2:   1 1 1 1 1 1 1 1 1 1   1 1 1 1 1 1 1 1 1 1   1 1 1 1 1 1 1 1 1 1   1 1 1 1 1 1 1 1 1 1
                                        1 1 1 1 1 1 1 1 1 1   1 1 1 1 1 2 1 2 1 2   1 2 1 2 1 2 1 2 1 2   1 2 1 2 1 2 1 2 1 2
                                        1 2 1 2 1 2 1 2 1 2   1 1 1 1 1 1 1 1 1 1   1 1 1 2 1 2
 EXTRA SYMMETRY OF AOS IN SYMMETRY 3:   1 1 1 1 1 1 1 1 1 1   1 1 1 1 1 1 1 1 1 1   1 1 1 1 1 1 1 1 1 1   1 1 1 1 1 1 1 1 1 1
                                        1 1 1 1 1 1 1 1 1 1   1 1 1 1 1 2 1 2 1 2   1 2 1 2 1 2 1 2 1 2   1 2 1 2 1 2 1 2 1 2
                                        1 2 1 2 1 2 1 2 1 2   1 1 1 1 1 1 1 1 1 1   1 1 1 2 1 2
 EXTRA SYMMETRY OF AOS IN SYMMETRY 4:   1 1 1 1 1 1 1 1 1 1   1 1 1 1 1 1 1 1 1 1   1 1 1 1 1 1 1 1 1 1   1 1 1 1 1 1 1 1 2 1
                                        2 1 2 1 1 1 1 1 1

 Eigenvalues of metric

         1 0.156E-06 0.347E-06 0.744E-06 0.805E-06 0.137E-05 0.442E-05 0.506E-05 0.112E-04
         2 0.171E-06 0.796E-06 0.510E-05 0.116E-04 0.260E-04 0.493E-04 0.547E-04 0.554E-04
         3 0.171E-06 0.796E-06 0.510E-05 0.116E-04 0.260E-04 0.493E-04 0.547E-04 0.554E-04
         4 0.805E-06 0.267E-04 0.544E-04 0.165E-03 0.628E-03 0.982E-03 0.214E-02 0.552E-02


 **********************************************************************************************************************************
 DATASETS  * FILE   NREC   LENGTH (MB)   RECORD NAMES
              1      22       23.93       500      610      700      900      950      970     1000      129      960     1700   
                                          VAR    BASINP    GEOM    SYMINP    ZMAT    AOBASIS   BASIS     P2S    ABASIS    OPER   
                                         1101     1401     1411     1412     1650     1100     1400     1410     1200     1210   
                                          SR      EKINR    POTR     PVPR    MOLCAS      S      EKIN      POT      H0       H01  
                                         1080     1600   
                                         AOSYM     SMH  

 PROGRAMS   *        TOTAL       INT
 CPU TIMES  *       174.38    174.18
 REAL TIME  *       188.85 SEC
 DISK USED  *        11.00 GB      
 GA USED    *         0.00 MB       (max)       0.00 MB       (current)
 **********************************************************************************************************************************

 Density functional group PBE0=PBEX+PBEC
 Functional: PBEX(Automatically generated (new) PBEX)                          Gradient terms: 1
 Functional: PBEC(Automatically generated (new) PBEC)                          Gradient terms: 1
 Use grid at  1800.2
 

 Exact exchange will be calculated, factor:  0.2500

 Functional: PBEX                      Factor:  0.7500
 Functional: PBEC                      Factor:  1.0000
 
 Generated new metagrid on record  1800.2 with target accuracy 1.0D-06 and 5982 points in CPU time    0.1
 Computed new grid on record 1800.1 in CPU time    0.1
  355296 words reserved for DFT integration

 PROGRAM * RKS-SCF (Restricted open shell Kohn-Sham)     Authors: W. Meyer, H.-J. Werner, P.J. Knowles, 1993

 NUMBER OF ELECTRONS:      43+   42-    SPACE SYMMETRY=4    SPIN SYMMETRY: Doublet 
 CONVERGENCE THRESHOLDS:    1.00E-05 (Density)    1.70E-06 (Energy)
 MAX. NUMBER OF ITERATIONS:       60
 INTERPOLATION TYPE:            DIIS
 INTERPOLATION STEPS:              2 (START)      1 (STEP)
 LEVEL SHIFTS:                 -0.60 (CLOSED) -0.30 (OPEN) 

 Number of closed-shell orbitals:   42 (  20   9  10   3 )
 Number of open-shell orbitals:      1 (   0   0   0   1 )


 Use fine grid record 1800.2 for energy threshold  1.0D-06
 Orbital guess generated from atomic densities. Full valence occupancy:   21  10  10   4

 Molecular orbital dump at record        2100.2

 ITERATION    DDIFF          GRAD             ENERGY        2-EL.EN.            DIPOLE MOMENTS         DIIS   ORB.
    1      0.000D+00      0.000D+00    -17894.34228327  13586.443648    0.00000    0.00000   -4.40026    0    start
    2      0.000D+00      0.409D-01    -17898.45791570  14905.143943    0.00000    0.00000    4.35959    1    diag,B
    3      0.238D+01      0.773D-01    -17905.40979387  14544.345887    0.00000    0.00000   -0.38119    2    diag,B
    4      0.177D+00      0.243D-01    -17907.04748680  14384.616913    0.00000    0.00000   -0.51182    3    diag,B
    5      0.800D-01      0.816D-02    -17907.32533238  14312.344788    0.00000    0.00000   -1.47698    4    diag,B
    6      0.170D-01      0.257D-02    -17907.36845218  14300.284252    0.00000    0.00000   -0.92073    5    diag,B
    7      0.948D-02      0.146D-02    -17907.38571397  14292.010861    0.00000    0.00000   -0.87912    6    fixocc
    8      0.533D-02      0.102D-02    -17907.39482519  14293.796685    0.00000    0.00000   -0.64253    7    diag,B
    9      0.271D-02      0.473D-03    -17907.39923071  14294.722655    0.00000    0.00000   -0.44184    8    diag,B
   10      0.140D-02      0.182D-03    -17907.40028991  14294.134682    0.00000    0.00000   -0.33850    9    orth
   11      0.798D-03      0.109D-03    -17907.40051538  14293.346266    0.00000    0.00000   -0.31558    9    diag,B
   12      0.391D-03      0.458D-04    -17907.40056515  14293.147577    0.00000    0.00000   -0.29970    9    diag,B
   13      0.165D-03      0.205D-04    -17907.40057780  14293.135040    0.00000    0.00000   -0.29395    9    diag,B
   14      0.252D-03      0.818D-05    -17907.40058000  14293.151301    0.00000    0.00000   -0.29300    9    diag,B
   15      0.933D-04      0.431D-05    -17907.40058069  14293.147153    0.00000    0.00000   -0.29214    9    diag,B
   16      0.254D-04      0.229D-05    -17907.40058084  14293.151462    0.00000    0.00000   -0.29194    9    diag,B
   17      0.726D-05      0.119D-05    -17907.40058087  14293.153294    0.00000    0.00000   -0.29182    0    orth

 Final alpha occupancy:  20   9  10   4
 Final beta  occupancy:  20   9  10   3

 !RKS STATE 1.4 Energy               -17907.4005808691    
 Nuclear energy                       232.83797280
 One-electron energy               -25013.90795853
 Two-electron energy                 7146.57664717
 Density functional                  -272.90724231     PBEX=-357.29023264 PBEC=  -4.93956783
 Virial quotient                       -0.67950985
 !RKS STATE 1.4 Dipole moment           0.00000000     0.00000000    -0.29181997
 Dipole moment /Debye                   0.00000000     0.00000000    -0.74168380

 Orbital energies:

         1.1          2.1          3.1          4.1          5.1          6.1          7.1          8.1          9.1         10.1
  -2794.660491  -490.214506  -427.389606  -115.317447   -96.781808   -75.613773   -75.605337   -24.961390   -19.331565   -18.830166

        11.1         12.1         13.1         14.1         15.1         16.1         17.1         18.1         19.1         20.1
    -11.075981   -11.055843    -3.814226    -2.532407    -2.507487    -2.270421    -1.073209    -0.549460    -0.341334    -0.267215

        21.1         22.1
     -0.045287     0.013113

         1.2          2.2          3.2          4.2          5.2          6.2          7.2          8.2          9.2         10.2
   -427.390388   -96.783247   -75.614020   -18.830137   -11.077793    -2.531298    -2.508028    -2.192798    -0.573677    -0.137481

        11.2
     -0.000485

         1.3          2.3          3.3          4.3          5.3          6.3          7.3          8.3          9.3         10.3
   -427.385726   -96.772106   -75.606850   -18.808661   -11.060028    -2.515162    -2.504796    -2.159682    -0.569683    -0.206048

        11.3         12.3
      0.004156     0.112058

         1.4          2.4          3.4          4.4          5.4          6.4
    -75.608256   -11.062791    -2.517334    -0.372418     0.132407     0.426400

 HOMO     10.3    -0.206048 =      -5.6069eV
 LUMO     10.2    -0.137481 =      -3.7410eV
 LUMO-HOMO         0.068567 =       1.8658eV


 **********************************************************************************************************************************
 DATASETS  * FILE   NREC   LENGTH (MB)   RECORD NAMES
              1      23       23.93       500      610      700      900      950      970     1000      129      960     1700   
                                          VAR    BASINP    GEOM    SYMINP    ZMAT    AOBASIS   BASIS     P2S    ABASIS    OPER   
                                         1101     1401     1411     1412     1650     1100     1400     1410     1200     1210   
                                          SR      EKINR    POTR     PVPR    MOLCAS      S      EKIN      POT      H0       H01  
                                         1080     1600     1800   
                                         AOSYM     SMH     GRID   

              2       5        4.50       700     1000      520     1800     2100   
                                         GEOM     BASIS   MCVARS    GRID      RKS  

 PROGRAMS   *        TOTAL       RKS       INT
 CPU TIMES  *       186.24     11.86    174.18
 REAL TIME  *       202.02 SEC
 DISK USED  *        11.41 GB      
 SF USED    *         0.24 MB      
 GA USED    *         0.26 MB       (max)       0.26 MB       (current)
 **********************************************************************************************************************************
 SETTING PBE(1)         =    -17907.40058087  AU                              


 PROGRAM * RHF-SCF (OPEN SHELL)       Authors: W. Meyer, H.-J. Werner


 NUMBER OF ELECTRONS:      43+   42-    SPACE SYMMETRY=4    SPIN SYMMETRY: Doublet 
 CONVERGENCE THRESHOLDS:    1.00E-05 (Density)    1.70E-07 (Energy)
 MAX. NUMBER OF ITERATIONS:       60
 INTERPOLATION TYPE:            DIIS
 INTERPOLATION STEPS:              2 (START)      1 (STEP)
 LEVEL SHIFTS:                 -0.60 (CLOSED) -0.30 (OPEN) 

 Number of closed-shell orbitals:   42 (  20   9  10   3 )
 Number of open-shell orbitals:      1 (   0   0   0   1 )


 Molecular orbitals read from record     2100.2  Type=RKS/CANONICAL (state 1.4)

 Molecular orbital dump at record        2101.2

 ITERATION    DDIFF          GRAD             ENERGY        2-EL.EN.            DIPOLE MOMENTS         DIIS   ORB.
    1      0.000D+00      0.000D+00    -17901.55696545  13759.026041    0.00000    0.00000   -0.29182    0    start
    2      0.000D+00      0.118D+00    -17901.60344424  13764.173281    0.00000    0.00000   -0.47185    1    diag,B
    3      0.305D-02      0.131D-02    -17901.60607664  13758.060350    0.00000    0.00000   -0.50070    2    diag,B
    4      0.764D-03      0.734D-03    -17901.60676358  13761.825928    0.00000    0.00000   -0.50829    3    diag,B
    5      0.257D-03      0.298D-03    -17901.60718347  13761.017478    0.00000    0.00000   -0.51851    4    diag,B
    6      0.253D-03      0.106D-03    -17901.60741113  13760.891443    0.00000    0.00000   -0.51625    5    diag,B
    7      0.225D-03      0.551D-04    -17901.60748275  13760.885297    0.00000    0.00000   -0.51221    6    diag,B
    8      0.118D-03      0.345D-04    -17901.60752435  13760.878740    0.00000    0.00000   -0.50159    7    orth
    9      0.117D-03      0.235D-04    -17901.60754506  13760.807427    0.00000    0.00000   -0.49276    8    diag,B
   10      0.929D-04      0.126D-04    -17901.60755244  13760.797643    0.00000    0.00000   -0.48473    9    diag,B
   11      0.526D-04      0.510D-05    -17901.60755337  13760.791693    0.00000    0.00000   -0.48257    9    diag,B
   12      0.521D-04      0.204D-05    -17901.60755349  13760.797193    0.00000    0.00000   -0.48202    9    diag,B
   13      0.202D-04      0.111D-05    -17901.60755352  13760.795436    0.00000    0.00000   -0.48192    9    diag,B
   14      0.678D-05      0.543D-06    -17901.60755352  13760.796492    0.00000    0.00000   -0.48189    0    orth

 Final alpha occupancy:  20   9  10   4
 Final beta  occupancy:  20   9  10   3

 !RHF STATE 1.4 Energy               -17901.6075535250    
 Nuclear energy                       232.83797280
 One-electron energy               -25014.84377240
 Two-electron energy                 6880.39824607
 Virial quotient                       -0.67991091
 !RHF STATE 1.4 Dipole moment           0.00000000     0.00000000    -0.48189115
 Dipole moment /Debye                   0.00000000     0.00000000    -1.22476491

 Orbital energies:

         1.1          2.1          3.1          4.1          5.1          6.1          7.1          8.1          9.1         10.1
  -2813.255598  -497.556607  -433.597727  -118.847153   -99.760175   -77.942809   -77.934291   -26.693050   -20.670976   -20.306419

        11.1         12.1         13.1         14.1         15.1         16.1         17.1         18.1         19.1         20.1
    -12.161913   -12.142940    -4.321619    -3.106744    -3.083150    -2.639005    -1.351749    -0.706547    -0.495532    -0.330073

        21.1         22.1
      0.024271     0.050944

         1.2          2.2          3.2          4.2          5.2          6.2          7.2          8.2          9.2         10.2
   -433.598062   -99.760206   -77.939080   -20.304056   -12.155252    -3.105487    -3.082486    -2.540945    -0.688666     0.007720

        11.2
      0.086700

         1.3          2.3          3.3          4.3          5.3          6.3          7.3          8.3          9.3         10.3
   -433.595213   -99.749516   -77.937846   -20.284361   -12.150695    -3.090692    -3.079898    -2.530001    -0.757532    -0.336565

        11.3         12.3
      0.058982     0.180169

         1.4          2.4          3.4          4.4          5.4          6.4
    -77.934333   -12.142179    -3.091349    -0.530808     0.196308     0.556587

 HOMO     20.1    -0.330073 =      -8.9818eV
 LUMO     10.2     0.007720 =       0.2101eV
 LUMO-HOMO         0.337793 =       9.1918eV


 **********************************************************************************************************************************
 DATASETS  * FILE   NREC   LENGTH (MB)   RECORD NAMES
              1      23       23.93       500      610      700      900      950      970     1000      129      960     1700   
                                          VAR    BASINP    GEOM    SYMINP    ZMAT    AOBASIS   BASIS     P2S    ABASIS    OPER   
                                         1101     1401     1411     1412     1650     1100     1400     1410     1200     1210   
                                          SR      EKINR    POTR     PVPR    MOLCAS      S      EKIN      POT      H0       H01  
                                         1080     1600     1800   
                                         AOSYM     SMH     GRID   

              2       6        9.38       700     1000      520     1800     2100     2101   
                                         GEOM     BASIS   MCVARS    GRID      RKS      RHF  

 PROGRAMS   *        TOTAL       RHF       RKS       INT
 CPU TIMES  *       193.93      7.69     11.86    174.18
 REAL TIME  *       210.36 SEC
 DISK USED  *        11.46 GB      
 SF USED    *         0.24 MB      
 GA USED    *         0.26 MB       (max)       0.26 MB       (current)
 **********************************************************************************************************************************
 SETTING SCF(1)         =    -17901.60755352  AU                              
 SETTING _CC_NORM_MAX   =         2.00000000                                  


 PROGRAM * CCSD (Restricted open-shell coupled cluster)     Authors: C. Hampel, H.-J. Werner, 1991, M. Deegan, P.J. Knowles, 1992


 Convergence thresholds:  THRVAR = 1.00D-08  THRDEN = 1.70D-06

 CCSD(T)     terms to be evaluated (factor= 1.000)


 Number of closed-shell orbitals:  42 (  20   9  10   3 )
 Number of active  orbitals:        1 (   0   0   0   1 )
 Number of external orbitals:     403 ( 165  97  96  45 )

 For full I/O caching in triples, increase memory by 239.37 Mwords to 1263.65 Mwords.

 Number of N-1 electron functions:              85
 Number of N-2 electron functions:            3570
 Number of singly external CSFs:             10588
 Number of doubly external CSFs:         112315657
 Total number of CSFs:                   112326245

 Molecular orbitals read from record     2101.2  Type=RHF/CANONICAL (state 1.4)

 Integral transformation finished. Total CPU:  55.40 sec, npass=  1  Memory used: 140.45 MW

 Starting RMP2 calculation

 Wavefunction is spin-projected

 ITER.      SQ.NORM     CORR.ENERGY   TOTAL ENERGY   ENERGY CHANGE        DEN1      VAR(S)    VAR(P)  DIIS     TIME
   1      1.27736146    -3.73733276-17905.34488629    -3.73733276    -0.00265068  0.40D-05  0.13D-02  1  1    78.10
   2      1.28036621    -3.74013490-17905.34768842    -0.00280213    -0.00001229  0.21D-07  0.10D-04  2  2    97.32
   3      1.28060572    -3.74026394-17905.34781746    -0.00012904    -0.00000009  0.67D-10  0.86D-07  3  3   120.86
   4      1.28061653    -3.74026595-17905.34781947    -0.00000201    -0.00000000  0.12D-11  0.43D-09  4  4   150.11
   5      1.28061657    -3.74026594-17905.34781947     0.00000001    -0.00000000  0.17D-13  0.29D-11  5  5   176.26

 Norm of t1 vector:      0.02677416      S-energy:    -0.00251179      T1 diagnostic:  0.00001932
 Norm of t2 vector:      0.52905549      P-energy:    -3.73775415
                                         Alpha-Beta:  -2.42560718
                                         Alpha-Alpha: -0.66910919
                                         Beta-Beta:   -0.64303779

 Spin contamination <S**2-Sz**2-Sz>     0.00000000
  Reference energy                   -17901.6075535250    
  RHF-RMP2 correlation energy          -3.740265943373
 !RHF-RMP2 energy                    -17905.3478194684    
 (NB above energy spin projected)

 Starting RCCSD calculation

 ITER.      SQ.NORM     CORR.ENERGY   TOTAL ENERGY   ENERGY CHANGE        DEN1      VAR(S)    VAR(P)  DIIS     TIME
   1      1.20552186    -3.31745508-17904.92500861    -3.31745508    -0.14354553  0.11D-01  0.12D-01  0  0   531.02
   2      1.23667417    -3.44895233-17905.05650585    -0.13149725    -0.01642347  0.71D-03  0.26D-02  0  0   869.71
   3      1.23648510    -3.41067068-17905.01822421     0.03828165    -0.00288427  0.83D-03  0.35D-03  1  1  1211.13
   4      1.24094845    -3.42220502-17905.02975854    -0.01153434    -0.00018761  0.68D-04  0.82D-04  2  2  1880.79
   5      1.24430979    -3.42309151-17905.03064503    -0.00088649    -0.00006108  0.35D-04  0.26D-04  3  3  2205.11
   6      1.24778176    -3.42393005-17905.03148357    -0.00083854    -0.00000921  0.37D-05  0.53D-05  4  4  2560.12
   7      1.24841087    -3.42392874-17905.03148226     0.00000131    -0.00000346  0.14D-05  0.21D-05  5  5  2886.96
   8      1.24910859    -3.42395773-17905.03151126    -0.00002900    -0.00000052  0.22D-06  0.25D-06  6  6  3232.20
   9      1.24925547    -3.42396996-17905.03152348    -0.00001223    -0.00000008  0.26D-07  0.39D-07  6  3  3579.60
  10      1.24924388    -3.42396496-17905.03151849     0.00000500    -0.00000002  0.40D-08  0.10D-07  6  1  3912.42
  11      1.24926111    -3.42396840-17905.03152193    -0.00000344    -0.00000001  0.74D-09  0.36D-08  6  2  4260.34
  12      1.24926391    -3.42396867-17905.03152219    -0.00000026    -0.00000000  0.23D-09  0.12D-08  6  1  4610.13

 Norm of t1 vector:      0.13373557      S-energy:    -0.00256630      T1 diagnostic:  0.00991421
                                                                       D1 diagnostic:  0.04505854
 Norm of t2 vector:      0.48101841      P-energy:    -3.42140237
                                         Alpha-Beta:  -2.28252681
                                         Alpha-Alpha: -0.57979302
                                         Beta-Beta:   -0.55908253

 Doubles amplitudes (print threshold =  0.500E-01):

         I         J         SYM. A    SYM. B    A         B      T(IJ, AB) [Alpha-Beta]

        20        20         2         2         1         1     -0.05260495

 Spin contamination <S**2-Sz**2-Sz>     0.00000000

 For full I/O caching in triples, increase memory by 392.90 Mwords to 1417.18 Mwords.
 

  Correlated core orbitals:             1.1       2.1       3.1       4.1       5.1       6.1       7.1       8.1       9.1      10.1
                                       11.1      12.1      13.1      14.1      15.1      16.1       1.2       2.2       3.2       4.2
                                        5.2       6.2       7.2       8.2       1.3       2.3       3.3       4.3       5.3       6.3
                                        7.3       8.3       1.4       2.4       3.4
  Orbital energies:                 -2813.2557 -497.5588 -433.5982 -118.8482  -99.7605  -77.9436  -77.9350  -26.6965  -20.6710  -20.3073
                                      -12.1636  -12.1444   -4.3451   -3.1083   -3.0842   -2.6457 -433.6013  -99.7618  -77.9399  -20.3088
                                      -12.1570   -3.1073   -3.0897   -2.5886 -433.5984  -99.7511  -77.9387  -20.2892  -12.1525   -3.0956
                                       -3.0844   -2.5774  -77.9425  -12.1599   -3.0974
 
  RCCSD core-core energy               -2.540690936026
  RCCSD core-valence energy            -0.359672220932
  RCCSD valence correlation energy     -0.523605510174
 

 RESULTS
 =======

  Reference energy                   -17901.6075535250    
  RCCSD singles energy                 -0.002566297595
  RCCSD pair energy                    -3.421402369537
  RCCSD correlation energy             -3.423968667132
  Triples (T) contribution             -0.063825357022
  Total correlation energy             -3.487794024154
 
  RHF-RCCSD energy                   -17905.0315221921    
  RHF-RCCSD[T] energy                -17905.0998556739    
  RHF-RCCSD-T energy                 -17905.0947187360    
 !RHF-RCCSD(T) energy                -17905.0953475491    

 Program statistics:

 Available memory in ccsd:              1023984678
 Min. memory needed in ccsd:             306657742
 Max. memory used in ccsd:               453603010
 Max. memory used in cckext:             375781906 (12 integral passes)
 Max. memory used in cckint:             140449005 ( 1 integral passes)



 **********************************************************************************************************************************
 DATASETS  * FILE   NREC   LENGTH (MB)   RECORD NAMES
              1      23       23.93       500      610      700      900      950      970     1000      129      960     1700   
                                          VAR    BASINP    GEOM    SYMINP    ZMAT    AOBASIS   BASIS     P2S    ABASIS    OPER   
                                         1101     1401     1411     1412     1650     1100     1400     1410     1200     1210   
                                          SR      EKINR    POTR     PVPR    MOLCAS      S      EKIN      POT      H0       H01  
                                         1080     1600     1800   
                                         AOSYM     SMH     GRID   

              2       6        9.38       700     1000      520     1800     2100     2101   
                                         GEOM     BASIS   MCVARS    GRID      RKS      RHF  

 PROGRAMS   *        TOTAL  RCCSD(T)       RHF       RKS       INT
 CPU TIMES  *     14147.95  13954.02      7.69     11.86    174.18
 REAL TIME  *     15851.17 SEC
 DISK USED  *       168.97 GB      
 SF USED    *        29.40 GB      
 GA USED    *         0.26 MB       (max)       0.26 MB       (current)
 **********************************************************************************************************************************
 SETTING CCSD(1)        =    -17905.09534755  AU                              
 Output type csv         
                                                                                                                                                                                                                                                                

     Z,PBE  ,SCF  ,CCSD
   1.4,   -17907.40058,   -17901.60755,   -17905.09535
                                                  

 RCCSD(T)/USERDEF energy= -17905.095347549133

        RCCSD(T)        RHF-SCF         RKS-SCF 
 -17905.09534755 -17901.60755352 -17907.40058087
 **********************************************************************************************************************************
 Molpro calculation terminated
 Variable memory released
