
 Primary working directories    : /global/cscratch1/sd/bkincaid
 Secondary working directories  : /global/cscratch1/sd/bkincaid
 Wavefunction directory         : /global/homes/b/bkincaid/wfu/
 Main file repository           : /global/cscratch1/sd/bkincaid/

 SHA1      : 19cd028119e0e09f93f0674bd8af7968d9b3eff6
 NAME      : 2015.1.36
 ARCHNAME  : linux/x86_64
 FC        : /opt/cray/pe/craype/2.5.14/bin/ftn
 BLASLIB   : -L/opt/intel/compilers_and_libraries_2018.1.163/linux/mkl/lib/intel64 -Wl,-_start-group -lmkl_intel_ilp64 -lmkl_intel_thread -lmkl_core -Wl,-_end-group -liomp5
 id        : lbl

 Nodes     nprocs
 nid01008    11
 Number of processes for MPI-2 version of Molpro:   nprocs(total)=   12   nprocs(compute)=   11   nprocs(helper)=    1

 Using customized tuning parameters: mindgm=7; mindgv=16; mindgc=1; mindgr=1; noblas=0; minvec=7
 default implementation of scratch files=sf  

 ***,Calculation for IrO groundstate
 memory,1024,m
 gthresh,twoint=1.0E-15
 gthresh,throvl=1.0E-15
                                                                                 !symmetry,nosym
 
 basis={
 Including file /global/u1/b/bkincaid/molpro/Ir/molecules/tz/IrO/ecps/bk2.1/bk2.1
 
 Including file /global/u1/b/bkincaid/molpro/Ir/molecules/tz/IrO/ecps/bk2.1/tz.basis
 
 ecp,O,2,1,0
 3
 1,  12.30997,  6.000000
 3,  14.76962,  73.85984
 2,  13.71419, -47.87600
 1
 2,  13.65512,  85.86406
 
 Including file /global/u1/b/bkincaid/molpro/Ir/molecules/tz/IrO/ecps/bk2.1/O-aug-cc-CVTZ.basis
 }
 
 ne = 23
 
 A1=6
 B1=2
 B2=3
 A2=1
 
 
 do i=5,5
         if(i.eq.1) then
                 z(i) = 1.500
         else if(i.eq.2) then
                 z(i) = 1.600
         else if(i.eq.3) then
                 z(i) = 1.700
         else if(i.eq.4) then
                 z(i) = 1.800
         else if(i.eq.5) then
                 z(i) = 1.900
         endif
 
 geometry={
 2
 IrO
 Ir 0.0 0.0 0.0
 O 0.0 0.0 z(i)
 }
 
 
 {rhf,maxdis=35,iptyp='DIIS',nitord=30,maxit=60; shift,-1.0,-0.5
 wf,nelec=ne,spin=1,sym=4
 occ,A1,B1,B2,A2
 closed,A1,B1,B2,A2-1
 print,orbitals=2
         }
 scf(i)=energy
 {rccsd(t),shifts=0.2,shiftp=0.2,thrdis=1.0;diis,1,1,15,1;maxit,100;core}
 ccsd(i)=energy
 enddo
 
 table,z,scf,ccsd
 save
 type,csv
 

 Variables initialized (889), CPU time= 0.01 sec
 Commands  initialized (702), CPU time= 0.00 sec, 572 directives.
 Default parameters read. Elapsed time= 0.18 sec

 Checking input...
 Passed
1


                                         ***  PROGRAM SYSTEM MOLPRO  ***
                                       Copyright, TTI GmbH Stuttgart, 2015
                                    Version 2015.1 linked Dec 29 2018 15:55:43


 **********************************************************************************************************************************
 LABEL *   Calculation for IrO groundstate                                               
  64 bit mpp version                                                                     DATE: 16-Mar-21          TIME: 12:29:27  
 **********************************************************************************************************************************

 SHA1:             19cd028119e0e09f93f0674bd8af7968d9b3eff6
 **********************************************************************************************************************************

 THRESHOLDS:

 ZERO    =  1.00D-12  ONEINT  =  1.00D-12  TWOINT  =  1.00D-15  PREFAC  =  1.00D-14  LOCALI  =  1.00D-09  EORDER  =  1.00D-04
 ENERGY  =  0.00D+00  ETEST   =  0.00D+00  EDENS   =  0.00D+00  THRDEDEF=  1.00D-06  GRADIENT=  1.00D-02  STEP    =  1.00D-03
 ORBITAL =  1.00D-05  CIVEC   =  1.00D-05  COEFF   =  1.00D-04  PRINTCI =  5.00D-02  PUNCHCI =  9.90D+01  OPTGRAD =  3.00D-04
 OPTENERG=  1.00D-06  OPTSTEP =  3.00D-04  THRGRAD =  1.00D-10  COMPRESS=  1.00D-11  VARMIN  =  1.00D-07  VARMAX  =  1.00D-03
 THRDOUB =  0.00D+00  THRDIV  =  1.00D-05  THRRED  =  1.00D-07  THRPSP  =  1.00D+00  THRDC   =  1.00D-10  THRCS   =  1.00D-10
 THRNRM  =  1.00D-08  THREQ   =  0.00D+00  THRDE   =  1.00D+00  THRREF  =  1.00D-05  SPARFAC =  1.00D+00  THRDLP  =  1.00D-07
 THRDIA  =  1.00D-10  THRDLS  =  1.00D-07  THRGPS  =  0.00D+00  THRKEX  =  0.00D+00  THRDIS  =  2.00D-01  THRVAR  =  1.00D-10
 THRLOC  =  1.00D-06  THRGAP  =  1.00D-06  THRLOCT = -1.00D+00  THRGAPT = -1.00D+00  THRORB  =  1.00D-06  THRMLTP =  0.00D+00
 THRCPQCI=  1.00D-10  KEXTA   =  0.00D+00  THRCOARS=  0.00D+00  SYMTOL  =  1.00D-06  GRADTOL =  1.00D-06  THROVL  =  1.00D-08
 THRORTH =  1.00D-08  GRID    =  1.00D-06  GRIDMAX =  1.00D-03  DTMAX   =  0.00D+00  THROCCDE=  1.00D-01  THROCCDE=  1.00D-01



 THRESHOLDS:

 ZERO    =  1.00D-12  ONEINT  =  1.00D-12  TWOINT  =  1.00D-15  PREFAC  =  1.00D-14  LOCALI  =  1.00D-09  EORDER  =  1.00D-04
 ENERGY  =  0.00D+00  ETEST   =  0.00D+00  EDENS   =  0.00D+00  THRDEDEF=  1.00D-06  GRADIENT=  1.00D-02  STEP    =  1.00D-03
 ORBITAL =  1.00D-05  CIVEC   =  1.00D-05  COEFF   =  1.00D-04  PRINTCI =  5.00D-02  PUNCHCI =  9.90D+01  OPTGRAD =  3.00D-04
 OPTENERG=  1.00D-06  OPTSTEP =  3.00D-04  THRGRAD =  1.00D-10  COMPRESS=  1.00D-11  VARMIN  =  1.00D-07  VARMAX  =  1.00D-03
 THRDOUB =  0.00D+00  THRDIV  =  1.00D-05  THRRED  =  1.00D-07  THRPSP  =  1.00D+00  THRDC   =  1.00D-10  THRCS   =  1.00D-10
 THRNRM  =  1.00D-08  THREQ   =  0.00D+00  THRDE   =  1.00D+00  THRREF  =  1.00D-05  SPARFAC =  1.00D+00  THRDLP  =  1.00D-07
 THRDIA  =  1.00D-10  THRDLS  =  1.00D-07  THRGPS  =  0.00D+00  THRKEX  =  0.00D+00  THRDIS  =  2.00D-01  THRVAR  =  1.00D-10
 THRLOC  =  1.00D-06  THRGAP  =  1.00D-06  THRLOCT = -1.00D+00  THRGAPT = -1.00D+00  THRORB  =  1.00D-06  THRMLTP =  0.00D+00
 THRCPQCI=  1.00D-10  KEXTA   =  0.00D+00  THRCOARS=  0.00D+00  SYMTOL  =  1.00D-06  GRADTOL =  1.00D-06  THROVL  =  1.00D-15
 THRORTH =  1.00D-08  GRID    =  1.00D-06  GRIDMAX =  1.00D-03  DTMAX   =  0.00D+00  THROCCDE=  1.00D-01  THROCCDE=  1.00D-01



 Variable memory set to 1024000000 words,  buffer space   230000 words

 SETTING BASIS          =    USERDEF
 SETTING NE             =        23.00000000                                  
 SETTING A1             =         6.00000000                                  
 SETTING B1             =         2.00000000                                  
 SETTING B2             =         3.00000000                                  
 SETTING A2             =         1.00000000                                  

 DO I                   =         5.00000000   
 SETTING Z(5)           =         1.90000000                                  

Geometry recognized as XYZ



 Recomputing integrals since basis changed


 Using spherical harmonics



 PROGRAM * SEWARD (Integral evaluation for generally contracted gaussian basis sets)     Author: Roland Lindh, 1990

 Geometry written to block  1 of record 700


 Point group  C2v 



 ATOMIC COORDINATES

 NR  ATOM    CHARGE       X              Y              Z

   1  IR     17.00    0.000000000    0.000000000    0.000000000
   2  O       6.00    0.000000000    0.000000000    3.590479637

 Bond lengths in Bohr (Angstrom)

 1-2  3.590479637
     ( 1.900000000)

 NUCLEAR CHARGE:                   23
 NUMBER OF PRIMITIVE AOS:         556
 NUMBER OF SYMMETRY AOS:          455
 NUMBER OF CONTRACTIONS:          455   ( 186A1  + 109B1  + 109B2  +  51A2  )
 NUMBER OF CORE ORBITALS:           4   (   2A1  +   1B1  +   1B2  +   0A2  )
 NUMBER OF VALENCE ORBITALS:       10   (   5A1  +   2B1  +   2B2  +   1A2  )


 NUCLEAR REPULSION ENERGY   28.40846080

 EXTRA SYMMETRY OF AOS IN SYMMETRY 1:   1 1 1 1 1 1 1 1 1 1   1 1 1 1 1 1 1 1 1 1   1 1 1 1 1 1 1 1 1 1   1 1 1 1 1 1 1 1 1 1
                                        1 1 1 1 1 1 1 1 1 1   1 1 1 1 1 1 1 1 1 1   1 1 1 1 1 1 1 2 1 2   1 2 1 2 1 2 1 2 1 2
                                        1 2 1 2 1 2 1 2 1 2   1 2 1 2 1 2 1 2 1 2   1 2 1 2 1 2 1 2 1 2   1 2 1 2 1 2 1 2 1 2
                                        1 2 1 2 1 2 1 2 1 2   1 2 1 2 1 2 1 2 1 2   1 2 1 2 1 3 2 1 3 2   1 3 2 1 1 1 1 1 1 1
                                        1 1 1 1 1 1 1 1 1 1   1 1 1 1 1 2 1 2 1 2   1 2 1 2 1 2
 EXTRA SYMMETRY OF AOS IN SYMMETRY 2:   1 1 1 1 1 1 1 1 1 1   1 1 1 1 1 1 1 1 1 1   1 1 1 1 1 1 1 1 1 1   1 1 1 1 1 1 1 1 1 1
                                        1 1 1 1 1 1 1 1 1 1   1 1 1 1 2 1 2 1 2 1   2 1 2 1 2 1 2 1 2 1   2 1 2 1 2 1 2 1 2 1
                                        2 1 2 1 2 1 2 1 2 1   2 1 2 1 1 1 1 1 1 1   1 1 1 1 1 1 2 1 2
 EXTRA SYMMETRY OF AOS IN SYMMETRY 3:   1 1 1 1 1 1 1 1 1 1   1 1 1 1 1 1 1 1 1 1   1 1 1 1 1 1 1 1 1 1   1 1 1 1 1 1 1 1 1 1
                                        1 1 1 1 1 1 1 1 1 1   1 1 1 1 2 1 2 1 2 1   2 1 2 1 2 1 2 1 2 1   2 1 2 1 2 1 2 1 2 1
                                        2 1 2 1 2 1 2 1 2 1   2 1 2 1 1 1 1 1 1 1   1 1 1 1 1 1 2 1 2
 EXTRA SYMMETRY OF AOS IN SYMMETRY 4:   1 1 1 1 1 1 1 1 1 1   1 1 1 1 1 1 1 1 1 1   1 1 1 1 1 1 1 1 1 1   1 1 1 1 1 1 1 1 1 1
                                        2 1 2 1 2 1 1 1 1 1   1

 Eigenvalues of metric

         1 0.766E-07 0.991E-06 0.344E-05 0.136E-04 0.155E-04 0.169E-04 0.254E-04 0.451E-04
         2 0.926E-07 0.375E-05 0.154E-04 0.530E-04 0.539E-04 0.125E-03 0.141E-03 0.436E-03
         3 0.926E-07 0.375E-05 0.154E-04 0.530E-04 0.539E-04 0.125E-03 0.141E-03 0.436E-03
         4 0.155E-04 0.538E-04 0.146E-03 0.608E-03 0.973E-03 0.208E-02 0.549E-02 0.579E-02


 Contracted 2-electron integrals neglected if value below      1.0D-15

 Warning: maximum contribution to expansion of local PP integrals   0.5D+07
 AO integral compression algorithm  1   Integral accuracy      1.0D-15

     4615.832 MB (compressed) written to integral file ( 36.1%)

     Node minimum: 229.900 MB, node maximum: 913.834 MB


 NUMBER OF SORTED TWO-ELECTRON INTEGRALS:  125132898.     BUFFER LENGTH:  32768
 NUMBER OF SEGMENTS:   4  SEGMENT LENGTH:   31982049      RECORD LENGTH: 524288

 Memory used in sort:      32.54 MW

 SORT1 READ  1600176772. AND WROTE    46359388. INTEGRALS IN    135 RECORDS. CPU TIME:    23.43 SEC, REAL TIME:    31.58 SEC
 SORT2 READ   508997376. AND WROTE  1376419418. INTEGRALS IN   9922 RECORDS. CPU TIME:     2.60 SEC, REAL TIME:     3.80 SEC

 Node minimum:   125060912.  Node maximum:   125200036. integrals

 OPERATOR DM      FOR CENTER  0  COORDINATES:    0.000000    0.000000    0.000000


 **********************************************************************************************************************************
 DATASETS  * FILE   NREC   LENGTH (MB)   RECORD NAMES
              1      19       22.49       500      610      700      900      950      970     1000      129      960     1100   
                                          VAR    BASINP    GEOM    SYMINP    ZMAT    AOBASIS   BASIS     P2S    ABASIS      S 
                                         1400     1410     1420     1200     1210     1080     1600     1650     1700   
                                           T        V       ECP      H0       H01     AOSYM     SMH    MOLCAS    OPER   

 PROGRAMS   *        TOTAL       INT
 CPU TIMES  *       208.48    208.16
 REAL TIME  *       220.54 SEC
 DISK USED  *        10.78 GB      
 GA USED    *         0.00 MB       (max)       0.00 MB       (current)
 **********************************************************************************************************************************


 PROGRAM * RHF-SCF (OPEN SHELL)       Authors: W. Meyer, H.-J. Werner


 NUMBER OF ELECTRONS:      12+   11-    SPACE SYMMETRY=4    SPIN SYMMETRY: Doublet 
 CONVERGENCE THRESHOLDS:    1.00E-05 (Density)    1.00E-07 (Energy)
 MAX. NUMBER OF ITERATIONS:       60
 INTERPOLATION TYPE:            DIIS
 INTERPOLATION STEPS:              2 (START)      1 (STEP)
 LEVEL SHIFTS:                 -1.00 (CLOSED) -0.50 (OPEN) 

 Number of closed-shell orbitals:   11 (   6   2   3   0 )
 Number of open-shell orbitals:      1 (   0   0   0   1 )


 Orbital guess generated from atomic densities. Full valence occupancy:    7   3   3   1

 Molecular orbital dump at record        2100.2

 ITERATION    DDIFF          GRAD             ENERGY        2-EL.EN.            DIPOLE MOMENTS         DIIS   ORB.
    1      0.000D+00      0.000D+00      -119.33966698    232.346384    0.00000    0.00000   -2.58305    0    start
    2      0.000D+00      0.456D-02      -119.36444134    231.783277    0.00000    0.00000   -2.05734    1    diag,B
    3      0.495D-02      0.155D-02      -119.36939926    231.756019    0.00000    0.00000   -2.06162    2    diag,B
    4      0.327D-02      0.829D-03      -119.37204015    231.776789    0.00000    0.00000   -2.02305    3    diag,B
    5      0.174D-02      0.505D-03      -119.37370845    231.760921    0.00000    0.00000   -2.03460    4    diag,B
    6      0.105D-02      0.318D-03      -119.37463958    231.777793    0.00000    0.00000   -2.04870    5    diag,B
    7      0.203D-02      0.216D-03      -119.37518938    231.801471    0.00000    0.00000   -2.05810    6    diag,B
    8      0.655D-03      0.156D-03      -119.37554155    231.847593    0.00000    0.00000   -2.05543    7    diag,B
    9      0.122D-02      0.120D-03      -119.37581736    231.909191    0.00000    0.00000   -2.04252    8    diag,B
   10      0.699D-03      0.884D-04      -119.37599767    231.970538    0.00000    0.00000   -2.02586    9    orth
   11      0.125D-02      0.629D-04      -119.37609068    232.016980    0.00000    0.00000   -2.01156   10    diag,B
   12      0.678D-03      0.423D-04      -119.37613303    232.051259    0.00000    0.00000   -1.99871   11    diag,B
   13      0.631D-03      0.281D-04      -119.37614724    232.065552    0.00000    0.00000   -1.99128   12    diag,B
   14      0.171D-03      0.197D-04      -119.37615550    232.075294    0.00000    0.00000   -1.98306   13    diag,B
   15      0.382D-03      0.122D-04      -119.37615814    232.075460    0.00000    0.00000   -1.97938   14    diag,B
   16      0.105D-03      0.712D-05      -119.37615900    232.076895    0.00000    0.00000   -1.97611   15    diag,B
   17      0.939D-04      0.419D-05      -119.37615919    232.075561    0.00000    0.00000   -1.97538   16    diag,B
   18      0.287D-04      0.283D-05      -119.37615925    232.075374    0.00000    0.00000   -1.97480   17    diag,B
   19      0.131D-04      0.221D-05      -119.37615930    232.074933    0.00000    0.00000   -1.97429   18    diag,B
   20      0.181D-04      0.174D-05      -119.37615934    232.074413    0.00000    0.00000   -1.97395   19    orth
   21      0.649D-05      0.152D-05      -119.37615935    232.074284    0.00000    0.00000   -1.97387    0    orth

 Final alpha occupancy:   6   2   3   1
 Final beta  occupancy:   6   2   3   0

 !RHF STATE 1.4 Energy               -119.376159347482
 Nuclear energy                        28.40846080
 One-electron energy                 -263.82176201
 Two-electron energy                  116.03714187
 Virial quotient                       -2.54890179
 !RHF STATE 1.4 Dipole moment           0.00000000     0.00000000    -1.97386541
 Dipole moment /Debye                   0.00000000     0.00000000    -5.01673685

 ELECTRON ORBITALS
 =================


   Orb  Occ    Energy  Couls-En    Coefficients

                                   1 1s      1 1s      1 1s      1 1s      1 1s      1 1s      1 1s      1 1s      1 1s      1 1s   
                                   1 1s      1 1s      1 1s      1 1s      1 1s      1 1s      1 1s      1 1s      1 1s      1 1s   
                                   1 1s      1 1s      1 1s      1 1s      1 1s      1 1s      1 1s      1 1s      1 1s      1 1s   
                                   1 1s      1 1s      1 1s      1 1s      1 1s      1 2pz     1 2pz     1 2pz     1 2pz     1 2pz  
                                   1 2pz     1 2pz     1 2pz     1 2pz     1 2pz     1 2pz     1 2pz     1 2pz     1 2pz     1 2pz  
                                   1 2pz     1 2pz     1 2pz     1 2pz     1 2pz     1 2pz     1 2pz     1 2pz     1 2pz     1 2pz  
                                   1 2pz     1 2pz     1 2pz     1 2pz     1 2pz     1 2pz     1 3d0     1 3d2+    1 3d0     1 3d2+ 
                                   1 3d0     1 3d2+    1 3d0     1 3d2+    1 3d0     1 3d2+    1 3d0     1 3d2+    1 3d0     1 3d2+ 
                                   1 3d0     1 3d2+    1 3d0     1 3d2+    1 3d0     1 3d2+    1 3d0     1 3d2+    1 3d0     1 3d2+ 
                                   1 3d0     1 3d2+    1 3d0     1 3d2+    1 3d0     1 3d2+    1 3d0     1 3d2+    1 3d0     1 3d2+ 
                                   1 3d0     1 3d2+    1 3d0     1 3d2+    1 3d0     1 3d2+    1 3d0     1 3d2+    1 3d0     1 3d2+ 
                                   1 4f0     1 4f2+    1 4f0     1 4f2+    1 4f0     1 4f2+    1 4f0     1 4f2+    1 4f0     1 4f2+ 
                                   1 4f0     1 4f2+    1 4f0     1 4f2+    1 4f0     1 4f2+    1 4f0     1 4f2+    1 4f0     1 4f2+ 
                                   1 4f0     1 4f2+    1 4f0     1 4f2+    1 4f0     1 4f2+    1 4f0     1 4f2+    1 4f0     1 4f2+ 
                                   1 4f0     1 4f2+    1 4f0     1 4f2+    1 5g0     1 5g4+    1 5g2+    1 5g0     1 5g4+    1 5g2+ 
                                   1 5g0     1 5g4+    1 5g2+    2 1s      2 1s      2 1s      2 1s      2 1s      2 1s      2 1s   
                                   2 1s      2 1s      2 1s      2 1s      2 1s      2 1s      2 2pz     2 2pz     2 2pz     2 2pz  
                                   2 2pz     2 2pz     2 2pz     2 2pz     2 3d0     2 3d2+    2 3d0     2 3d2+    2 3d0     2 3d2+ 
                                   2 3d0     2 3d2+    2 4f0     2 4f2+    2 4f0     2 4f2+ 

   1.1   2    -4.2474  -20.5612 -0.000000  0.000000 -0.000000  0.000000 -0.000000  0.000000 -0.000000  0.000000 -0.000000  0.000000
                                -0.000001  0.000003 -0.000007  0.000017 -0.000042  0.000106 -0.000263  0.000647 -0.001573  0.003779
                                -0.009021  0.021579 -0.047578  0.032413  0.336083 -0.972952  0.366667 -0.438306  0.984545 -0.094920
                                 0.581021  0.029548 -0.008903  0.000167 -0.000099 -0.000000  0.000000 -0.000000  0.000000 -0.000000
                                 0.000000 -0.000000  0.000000 -0.000000  0.000000 -0.000000  0.000000 -0.000001  0.000003 -0.000006
                                 0.000013 -0.000027  0.000043  0.000034 -0.000669  0.001087  0.010606 -0.012516  0.005034 -0.083480
                                 0.075840 -0.006395  0.000238 -0.002491 -0.000253  0.000137 -0.000000  0.000000  0.000000 -0.000000
                                -0.000000  0.000000  0.000000 -0.000000 -0.000000  0.000000  0.000000 -0.000000 -0.000001  0.000000
                                 0.000002 -0.000000 -0.000004 -0.000000  0.000010  0.000002 -0.000033 -0.000017  0.000187  0.000162
                                -0.000736 -0.000558  0.000512 -0.000671 -0.000842  0.000775  0.003799  0.002870 -0.000955  0.001024
                                 0.003883  0.000746 -0.001151 -0.000100 -0.000263 -0.000107 -0.000950  0.000005  0.000214 -0.000003
                                -0.000000  0.000000  0.000000 -0.000000 -0.000000  0.000000  0.000001 -0.000000 -0.000004  0.000000
                                 0.000007 -0.000003 -0.000027 -0.000003  0.000041 -0.000036 -0.000319  0.000119  0.000825 -0.000195
                                -0.001493 -0.000211  0.000419 -0.000553 -0.000190  0.000003 -0.000108  0.000254  0.000106  0.000041
                                -0.000397 -0.000007  0.000197  0.000002 -0.000050  0.000045 -0.000071  0.000146  0.000751 -0.000752
                                -0.000046  0.000389 -0.000282 -0.000000  0.000000 -0.000000  0.000000 -0.000003  0.000018 -0.000193
                                 0.001678  0.000142  0.001492 -0.000334  0.000039  0.003674 -0.000030 -0.000265 -0.000654 -0.001744
                                -0.000964 -0.000003  0.000008 -0.001136  0.000170  0.000019  0.000815  0.000187  0.000007  0.000002
                                 0.000109  0.000117 -0.000145 -0.000018 -0.000199 -0.000167

   2.1   2    -2.4853  -16.7558 -0.000000  0.000000 -0.000000  0.000000 -0.000000  0.000000 -0.000000  0.000000 -0.000000  0.000000
                                -0.000000  0.000000 -0.000000  0.000000 -0.000001  0.000002 -0.000004  0.000009 -0.000022  0.000054
                                -0.000128  0.000309 -0.000692  0.000528  0.004788 -0.015277  0.010259 -0.012320  0.024224 -0.002090
                                 0.001376 -0.010696 -0.005768 -0.004806  0.000712  0.000000 -0.000000  0.000000 -0.000000  0.000000
                                -0.000000  0.000000 -0.000000  0.000000 -0.000000  0.000001 -0.000002  0.000005 -0.000010  0.000019
                                -0.000011 -0.000184  0.002093 -0.020032  0.122769 -0.270867 -0.105682 -0.028591  0.402949 -0.123983
                                 0.677786  0.261260  0.017930 -0.006727 -0.000708  0.000178 -0.000000  0.000000  0.000000 -0.000000
                                -0.000000  0.000000  0.000000 -0.000000 -0.000000  0.000000  0.000001 -0.000000 -0.000004  0.000000
                                 0.000009 -0.000001 -0.000021  0.000002  0.000043 -0.000004 -0.000074  0.000013  0.000006 -0.000083
                                -0.000228  0.000367  0.004072 -0.000236 -0.004434  0.000151  0.001148 -0.001246 -0.012749  0.000458
                                 0.003995 -0.001941 -0.005940  0.001012 -0.001971  0.000823 -0.001532  0.000053 -0.000022  0.000009
                                -0.000000  0.000000  0.000000 -0.000000 -0.000000  0.000000  0.000001 -0.000001 -0.000002  0.000002
                                 0.000012 -0.000014 -0.000009  0.000004  0.000122 -0.000101 -0.000479  0.000006  0.000430 -0.000321
                                 0.001058  0.000517 -0.000482 -0.001688  0.004169 -0.000903 -0.002986 -0.001415 -0.000525 -0.000369
                                -0.000283  0.000085 -0.000029 -0.000028 -0.000124 -0.000013  0.000101  0.000027  0.000000 -0.000198
                                -0.000204  0.000012  0.000723 -0.000000  0.000000 -0.000001  0.000009 -0.000101 -0.001271 -0.005062
                                 0.019068  0.004777  0.016027 -0.001140  0.001418  0.010557 -0.000271 -0.002560 -0.007304 -0.014396
                                -0.011179 -0.000072  0.000074 -0.002103  0.000969  0.000049  0.004236  0.000484  0.000052 -0.000002
                                 0.002372  0.000503 -0.000684 -0.000108 -0.000872 -0.000380

   3.1   2    -1.2297  -10.9449  0.000000 -0.000000  0.000000 -0.000000  0.000000 -0.000000  0.000000 -0.000000  0.000000 -0.000000
                                 0.000000 -0.000000  0.000000 -0.000001  0.000003 -0.000008  0.000020 -0.000049  0.000118 -0.000283
                                 0.000669 -0.001582  0.003514 -0.003547 -0.016800  0.050112  0.028682 -0.036593 -0.012878 -0.138416
                                 0.066285  0.029789 -0.040491 -0.010148  0.001659  0.000000 -0.000000  0.000000 -0.000000  0.000000
                                -0.000000  0.000000 -0.000000  0.000000 -0.000000  0.000000 -0.000000  0.000001 -0.000002  0.000007
                                -0.000018  0.000062 -0.000320  0.002440 -0.014489  0.033361 -0.007728  0.028586 -0.064990  0.483034
                                -0.561591  0.003846 -0.015838 -0.022921 -0.000499  0.000542 -0.000000  0.000000  0.000000 -0.000000
                                -0.000000  0.000000  0.000000 -0.000000 -0.000000  0.000000  0.000002 -0.000000 -0.000005  0.000000
                                 0.000013 -0.000000 -0.000031  0.000001  0.000082 -0.000001 -0.000313  0.000004  0.001978 -0.000024
                                -0.007064  0.000087 -0.000408 -0.000005 -0.000294  0.000017  0.028132 -0.000466 -0.019106  0.000170
                                 0.057499 -0.000591  0.032771  0.000885 -0.009790  0.000722 -0.004275  0.000023  0.001271 -0.000018
                                -0.000000 -0.000000  0.000000  0.000000 -0.000001 -0.000000  0.000002  0.000000 -0.000005 -0.000001
                                 0.000034  0.000005  0.000008  0.000001  0.000229  0.000036 -0.000475 -0.000051  0.001746  0.000189
                                -0.001762 -0.000232  0.002866  0.000790  0.007059  0.000149  0.001147  0.002190 -0.004176  0.001036
                                -0.000866 -0.000122  0.001255  0.000031  0.000084  0.000022  0.000026  0.002632 -0.000026  0.000424
                                 0.001267 -0.000046  0.001000 -0.000001  0.000007 -0.000049  0.000326 -0.003394 -0.051202 -0.167164
                                 0.562410  0.162245  0.398366 -0.001242  0.049176  0.055265 -0.000508 -0.004630 -0.013309 -0.029247
                                -0.051927 -0.000118  0.000141 -0.012792  0.001228 -0.000835  0.010008 -0.001054  0.000105 -0.000198
                                 0.013540 -0.001534 -0.000963 -0.000068 -0.002773 -0.000951

   4.1   2    -0.5515  -10.1679 -0.000000  0.000000 -0.000000  0.000000 -0.000000  0.000000 -0.000000  0.000000 -0.000000  0.000000
                                -0.000000  0.000000 -0.000001  0.000001 -0.000004  0.000009 -0.000023  0.000057 -0.000139  0.000333
                                -0.000791  0.001877 -0.004180  0.004050  0.021681 -0.066433 -0.012825  0.015999  0.047190  0.098432
                                -0.009671 -0.056471  0.037264  0.040324 -0.007168  0.000000 -0.000000  0.000000 -0.000000  0.000000
                                -0.000000  0.000000 -0.000000  0.000000 -0.000000  0.000000 -0.000000  0.000000 -0.000001  0.000002
                                -0.000001 -0.000018  0.000201 -0.001964  0.012393 -0.029097  0.007409 -0.027070  0.062634 -0.549746
                                 0.623940 -0.005974 -0.013109  0.026931  0.010289 -0.004220  0.000000 -0.000000 -0.000000  0.000000
                                 0.000000 -0.000000 -0.000000  0.000000  0.000002 -0.000000 -0.000006  0.000001  0.000018 -0.000002
                                -0.000048  0.000004  0.000119 -0.000012 -0.000337  0.000043  0.001413 -0.000244 -0.009735  0.001980
                                 0.034759 -0.007019  0.010111 -0.004105 -0.009557  0.004010 -0.130530  0.027906  0.010934  0.001989
                                -0.211979  0.043148 -0.188999  0.037314 -0.065616  0.016306  0.005711  0.001832 -0.001124 -0.000071
                                 0.000000  0.000000 -0.000000 -0.000000  0.000001  0.000000 -0.000002 -0.000001  0.000004  0.000002
                                -0.000038 -0.000009 -0.000032  0.000004 -0.000183 -0.000069 -0.000655  0.000185  0.001897 -0.000565
                                -0.005103  0.000795  0.002470 -0.001533 -0.009497  0.000050 -0.005837 -0.003037  0.003411 -0.001973
                                 0.003536  0.000193 -0.000210 -0.000204 -0.000478  0.000229 -0.000318 -0.003475  0.000401 -0.000946
                                -0.005809  0.000751 -0.001217 -0.000000  0.000001 -0.000010  0.000066 -0.000679 -0.011046 -0.033364
                                 0.110706  0.033535  0.095025  0.003250  0.009986 -0.048337  0.006973  0.072434  0.232539  0.370239
                                 0.275987  0.004022 -0.001838  0.039309 -0.005696 -0.000242 -0.018911 -0.001059 -0.000284 -0.000045
                                -0.014986 -0.001599  0.002022  0.001736  0.002946  0.001758

   5.1   2    -0.4554  -10.9894  0.000000 -0.000000  0.000000 -0.000000  0.000000 -0.000000  0.000000 -0.000000  0.000000 -0.000000
                                 0.000000 -0.000000  0.000000 -0.000001  0.000002 -0.000006  0.000015 -0.000036  0.000088 -0.000213
                                 0.000509 -0.001224  0.002752 -0.002285 -0.017892  0.056867 -0.021285  0.023486 -0.070601 -0.005454
                                -0.044399  0.058448  0.047328  0.000187  0.001112  0.000000 -0.000000  0.000000 -0.000000  0.000000
                                -0.000000  0.000000 -0.000000  0.000000 -0.000000  0.000000 -0.000000  0.000001 -0.000001  0.000004
                                -0.000009  0.000027 -0.000110  0.000736 -0.004272  0.010172 -0.007830  0.015598 -0.023912  0.192401
                                -0.214247 -0.001479  0.019289  0.006112 -0.001327  0.000810  0.000000 -0.000000 -0.000000  0.000000
                                 0.000000 -0.000000 -0.000000  0.000000  0.000000 -0.000001 -0.000001  0.000005  0.000002 -0.000014
                                -0.000005  0.000038  0.000014 -0.000107 -0.000046  0.000384  0.000229 -0.002140 -0.001750  0.017324
                                 0.006338 -0.061515  0.002294 -0.035239 -0.001969  0.034802 -0.025977  0.242147  0.004313  0.014422
                                -0.044203  0.377317 -0.027903  0.343937 -0.016220  0.178360 -0.004489  0.031529  0.000395 -0.000878
                                -0.000000  0.000000  0.000000 -0.000000 -0.000000  0.000001  0.000001 -0.000003 -0.000002  0.000009
                                 0.000020 -0.000042  0.000010  0.000026  0.000116 -0.000288 -0.000044  0.001153  0.000489 -0.003514
                                -0.000517  0.004689  0.003085 -0.007676 -0.000397  0.002185  0.007439 -0.010764  0.001636 -0.007993
                                -0.000751 -0.000210  0.000268 -0.000500  0.000607  0.001502 -0.000162  0.000792  0.002652  0.000996
                                 0.002135  0.003642  0.002301  0.000000 -0.000000  0.000001 -0.000006  0.000067  0.001050  0.003330
                                -0.013352 -0.003510 -0.011311 -0.000066 -0.000984  0.004998 -0.001419 -0.014813 -0.047927 -0.075292
                                -0.060097 -0.000844  0.000373 -0.009827  0.000544  0.000702  0.001289  0.003101  0.000028  0.000043
                                 0.001710  0.002557  0.000003 -0.000842  0.000064 -0.001533

   6.1   2    -0.3546   -9.3510  0.000000 -0.000000  0.000000 -0.000000  0.000000 -0.000000  0.000000 -0.000000  0.000000 -0.000000
                                 0.000000 -0.000001  0.000002 -0.000004  0.000011 -0.000028  0.000070 -0.000173  0.000420 -0.001011
                                 0.002423 -0.005844  0.013174 -0.010669 -0.088583  0.283785 -0.131588  0.146895 -0.364806  0.026173
                                -0.291505  0.243785  0.437858  0.119572  0.000070  0.000000 -0.000000  0.000000 -0.000000  0.000000
                                -0.000000  0.000000 -0.000000  0.000000 -0.000000  0.000000 -0.000001  0.000002 -0.000006  0.000014
                                -0.000032  0.000081 -0.000261  0.001392 -0.007474  0.017977 -0.024309  0.040660 -0.047420  0.430540
                                -0.464914  0.005615  0.009900 -0.012506 -0.004733  0.001779  0.000000  0.000000 -0.000000 -0.000000
                                 0.000000  0.000000 -0.000000 -0.000000  0.000001  0.000000 -0.000003 -0.000001  0.000010  0.000003
                                -0.000028 -0.000007  0.000078  0.000020 -0.000266 -0.000073  0.001422  0.000405 -0.011276 -0.003286
                                 0.040317  0.011713  0.019986  0.006641 -0.019148 -0.006689 -0.159626 -0.046412  0.001161 -0.003024
                                -0.254866 -0.070068 -0.219068 -0.061572 -0.131970 -0.032780 -0.032563 -0.007798  0.001310  0.000028
                                -0.000000 -0.000000  0.000000  0.000000 -0.000001 -0.000000  0.000003  0.000001 -0.000005 -0.000003
                                 0.000051  0.000015  0.000033 -0.000005  0.000325  0.000114 -0.000460 -0.000357  0.002217  0.000965
                                -0.002864 -0.001171  0.010347  0.002662 -0.001819  0.000048  0.019749  0.003489  0.011067  0.003484
                                 0.001083  0.000367  0.001963  0.000334  0.000206  0.000267 -0.000852 -0.000826 -0.000202 -0.001299
                                -0.000881 -0.000170 -0.001408  0.000000 -0.000000  0.000002 -0.000013  0.000125  0.002188  0.005723
                                -0.018721 -0.005234 -0.009969 -0.001524 -0.001834  0.002244 -0.002642 -0.027336 -0.087949 -0.139493
                                -0.126673 -0.001458  0.000698 -0.030685 -0.000633 -0.000100 -0.002082 -0.000078 -0.000022  0.000002
                                 0.003502  0.001060  0.000926 -0.000474  0.000658 -0.001094

   7.1   0    -0.0208   -5.5366  0.000000 -0.000000  0.000000 -0.000000  0.000000 -0.000000  0.000000 -0.000000  0.000000 -0.000000
                                 0.000000 -0.000000  0.000001 -0.000001  0.000004 -0.000009  0.000023 -0.000056  0.000135 -0.000326
                                 0.000783 -0.001892  0.004263 -0.003275 -0.029915  0.095122 -0.051431  0.059312 -0.129880  0.055269
                                -0.139680  0.027142  0.179664 -0.070549  0.569947 -0.000000  0.000000 -0.000000  0.000000 -0.000000
                                 0.000000 -0.000000  0.000000 -0.000000  0.000000 -0.000001  0.000002 -0.000006  0.000015 -0.000036
                                 0.000087 -0.000221  0.000734 -0.004071  0.022194 -0.053141  0.061421 -0.106421  0.134604 -1.336985
                                 1.445030  0.001697 -0.028638 -0.321913 -0.218292 -0.162259 -0.000000 -0.000000  0.000000  0.000000
                                -0.000000 -0.000000  0.000000  0.000000 -0.000000 -0.000000  0.000001  0.000000 -0.000002 -0.000001
                                 0.000006  0.000002 -0.000020 -0.000004  0.000097  0.000015 -0.000666 -0.000082  0.005831  0.000646
                                -0.020592 -0.002286 -0.014398 -0.001261  0.014119  0.001242  0.082273  0.008791  0.012151  0.000352
                                 0.123373  0.013822  0.124226  0.014371  0.106512  0.012847  0.019541  0.008864  0.105545  0.008190
                                -0.000000 -0.000000  0.000000  0.000000 -0.000000 -0.000000  0.000001  0.000000 -0.000004 -0.000001
                                -0.000013  0.000006 -0.000074  0.000005 -0.000038  0.000041 -0.000840 -0.000185  0.001386  0.000557
                                -0.002732 -0.000214 -0.000299  0.001292 -0.004929 -0.000090 -0.008158  0.000214 -0.016283 -0.003321
                                -0.023613 -0.001278  0.002700 -0.003230 -0.000315  0.000495  0.000209 -0.000862  0.000702  0.000004
                                 0.000489 -0.000201  0.001328  0.000000 -0.000000  0.000002 -0.000016  0.000177  0.002485  0.009359
                                -0.039414 -0.010155 -0.049944  0.001765 -0.002618  0.111226  0.002261  0.023394  0.075431  0.120744
                                 0.131880  0.001235 -0.000598  0.002209  0.000948  0.000059  0.002144 -0.000197  0.000036  0.000010
                                -0.006551  0.000782 -0.000617  0.000466  0.000358  0.000708

   8.1   0     0.0291   -2.6575 -0.000000  0.000000 -0.000000  0.000000 -0.000000  0.000000 -0.000000  0.000000 -0.000000  0.000000
                                -0.000000  0.000000 -0.000000  0.000000 -0.000001  0.000002 -0.000004  0.000010 -0.000025  0.000065
                                -0.000179  0.000521 -0.001293 -0.001286  0.029440 -0.098200  0.171703 -0.196001  0.196072 -0.177463
                                 0.172963 -0.100563  0.388384 -0.455229  0.571584 -0.000000  0.000000 -0.000000  0.000000 -0.000000
                                 0.000000 -0.000000  0.000000 -0.000000  0.000001 -0.000004  0.000010 -0.000027  0.000068 -0.000161
                                 0.000363 -0.000781  0.001554 -0.002225 -0.000648 -0.004235  0.253231 -0.320906  0.163406 -4.017462
                                 3.952343 -0.180313  0.313972  0.067591  1.202871 -1.511015  0.000000  0.000000 -0.000000 -0.000000
                                 0.000000  0.000000 -0.000001 -0.000000  0.000004  0.000000 -0.000013 -0.000000  0.000037  0.000000
                                -0.000094 -0.000000  0.000218  0.000001 -0.000497 -0.000004  0.001311  0.000025 -0.005397 -0.000208
                                 0.021243  0.000723 -0.025522  0.000531  0.027152 -0.000527 -0.077079 -0.002718  0.103324 -0.000441
                                -0.171531 -0.004261 -0.009693 -0.005587  0.020303 -0.005969  0.056688 -0.005249  0.237495 -0.003571
                                -0.000000 -0.000000  0.000002  0.000000 -0.000010 -0.000000  0.000034  0.000001 -0.000100 -0.000003
                                 0.000276  0.000005 -0.000648 -0.000024  0.002098  0.000041 -0.012721 -0.000309  0.033529  0.000761
                                -0.055583 -0.001594  0.065294  0.001172 -0.062171 -0.001597  0.069498  0.000996  0.004680 -0.000008
                                 0.043576  0.003543  0.054783 -0.005390  0.000382 -0.000265 -0.000079 -0.000699 -0.000276 -0.000042
                                 0.008547  0.000300 -0.000682 -0.000000  0.000000 -0.000003  0.000018 -0.000183 -0.002698 -0.008496
                                 0.051277  0.007955 -0.023340 -0.000882  0.002649 -0.766669 -0.001192 -0.011288 -0.033371 -0.061094
                                 0.115502 -0.000206  0.000329 -0.020468  0.000190 -0.000027 -0.010141  0.000052 -0.000052 -0.000010
                                -0.056069 -0.000761 -0.000558 -0.000201  0.006490 -0.000305

                                   1 2px     1 2px     1 2px     1 2px     1 2px     1 2px     1 2px     1 2px     1 2px     1 2px  
                                   1 2px     1 2px     1 2px     1 2px     1 2px     1 2px     1 2px     1 2px     1 2px     1 2px  
                                   1 2px     1 2px     1 2px     1 2px     1 2px     1 2px     1 2px     1 2px     1 2px     1 2px  
                                   1 2px     1 3d1+    1 3d1+    1 3d1+    1 3d1+    1 3d1+    1 3d1+    1 3d1+    1 3d1+    1 3d1+ 
                                   1 3d1+    1 3d1+    1 3d1+    1 3d1+    1 3d1+    1 3d1+    1 3d1+    1 3d1+    1 3d1+    1 3d1+ 
                                   1 3d1+    1 3d1+    1 3d1+    1 4f1+    1 4f3+    1 4f1+    1 4f3+    1 4f1+    1 4f3+    1 4f1+ 
                                   1 4f3+    1 4f1+    1 4f3+    1 4f1+    1 4f3+    1 4f1+    1 4f3+    1 4f1+    1 4f3+    1 4f1+ 
                                   1 4f3+    1 4f1+    1 4f3+    1 4f1+    1 4f3+    1 4f1+    1 4f3+    1 4f1+    1 4f3+    1 4f1+ 
                                   1 4f3+    1 4f1+    1 4f3+    1 4f1+    1 4f3+    1 4f1+    1 4f3+    1 5g1+    1 5g3+    1 5g1+ 
                                   1 5g3+    1 5g1+    1 5g3+    2 2px     2 2px     2 2px     2 2px     2 2px     2 2px     2 2px  
                                   2 2px     2 3d1+    2 3d1+    2 3d1+    2 3d1+    2 4f1+    2 4f3+    2 4f1+    2 4f3+ 

   1.2   2    -2.4763  -16.6244  0.000000 -0.000000  0.000000 -0.000000  0.000000 -0.000000  0.000000 -0.000000  0.000000 -0.000000
                                 0.000001 -0.000003  0.000007 -0.000016  0.000031 -0.000038 -0.000124  0.001964 -0.019737  0.121936
                                -0.268154 -0.126996 -0.001706  0.387832  0.111053  0.444495  0.267256  0.031109 -0.001437  0.000761
                                -0.000253 -0.000000  0.000000 -0.000000  0.000000 -0.000000  0.000000 -0.000000  0.000000 -0.000001
                                -0.000001  0.000021 -0.000226  0.000811  0.000707 -0.000814 -0.002824 -0.000185 -0.006970 -0.002749
                                -0.000242 -0.000279  0.000001  0.000000 -0.000000 -0.000000  0.000000  0.000000 -0.000000 -0.000001
                                 0.000001  0.000003 -0.000001 -0.000023  0.000039 -0.000013  0.000070 -0.000083  0.000161  0.000069
                                -0.000069 -0.001658  0.002009  0.001515  0.001384 -0.003403  0.004315  0.000843  0.002269 -0.002328
                                 0.002585 -0.000449  0.000564 -0.000152 -0.000130  0.000004  0.000054 -0.000030  0.000014  0.000095
                                -0.000444  0.000403  0.000015  0.000094  0.000878  0.002533  0.004753  0.003171  0.000017 -0.000026
                                 0.000291 -0.000322 -0.001750 -0.000020 -0.000888  0.000250  0.000028  0.000630  0.000074

   2.2   2    -0.4188   -9.8950  0.000000 -0.000000  0.000000 -0.000000  0.000000 -0.000000  0.000000 -0.000000  0.000000 -0.000000
                                 0.000000 -0.000000  0.000001 -0.000003  0.000008 -0.000020  0.000054 -0.000201  0.001251 -0.007105
                                 0.016922 -0.014702  0.028121 -0.041625  0.428265 -0.465463  0.001060  0.026826  0.031277  0.001179
                                -0.000726 -0.000000  0.000000 -0.000000  0.000000 -0.000001  0.000003 -0.000009  0.000025 -0.000070
                                 0.000245 -0.001338  0.010672 -0.037567 -0.021665  0.020711  0.146165  0.011588  0.226250  0.232320
                                 0.119116  0.033302 -0.003148 -0.000000 -0.000000  0.000000  0.000000 -0.000000 -0.000000  0.000001
                                 0.000000 -0.000002 -0.000001  0.000036  0.000000  0.000039 -0.000008  0.000225  0.000010 -0.000084
                                -0.000127  0.000656  0.000200  0.001073 -0.000533  0.001868  0.000406  0.003851 -0.000621  0.013419
                                 0.000908 -0.003166  0.001160  0.004396  0.000327 -0.001006  0.000025 -0.000126  0.000626  0.003306
                                 0.001052  0.006970  0.002392  0.005496  0.056798  0.182102  0.296576  0.260200  0.003144 -0.001451
                                 0.037615 -0.004951 -0.022304 -0.000291 -0.027789  0.001266  0.001566  0.006436  0.002316

   3.2   0    -0.0263   -8.4350  0.000000 -0.000000  0.000000 -0.000000  0.000000 -0.000000  0.000000 -0.000000  0.000000 -0.000000
                                 0.000000 -0.000000  0.000000 -0.000001  0.000001  0.000002 -0.000029  0.000270 -0.002558  0.016052
                                -0.037345  0.000569 -0.021481  0.069035 -0.299327  0.389345  0.023767 -0.073564 -0.146100 -0.125605
                                -0.101524 -0.000000  0.000000 -0.000000  0.000000 -0.000001  0.000004 -0.000011  0.000030 -0.000081
                                 0.000277 -0.001473  0.011624 -0.041186 -0.021973  0.021026  0.160848  0.007109  0.255149  0.236993
                                 0.173261  0.097212  0.043375  0.000000 -0.000000 -0.000000  0.000000  0.000001 -0.000000 -0.000004
                                 0.000000  0.000011 -0.000000 -0.000071  0.000001 -0.000005 -0.000002 -0.000469  0.000006  0.001244
                                -0.000030 -0.004525  0.000120  0.005601 -0.000155 -0.011628  0.000145  0.000895 -0.000195 -0.022358
                                -0.000315 -0.019940 -0.001273 -0.009345 -0.000847 -0.014018 -0.001452 -0.000741  0.000170 -0.001945
                                -0.000114 -0.001748  0.000995 -0.004430 -0.046309 -0.150421 -0.240961 -0.244788 -0.002721  0.001163
                                -0.134431 -0.000542 -0.000350 -0.000001  0.006584  0.001128 -0.001282 -0.000953 -0.001547

   4.2   0     0.0253   -2.7567  0.000000 -0.000000  0.000000 -0.000000  0.000000 -0.000000  0.000000 -0.000000  0.000000 -0.000001
                                 0.000004 -0.000010  0.000027 -0.000067  0.000160 -0.000364  0.000796 -0.001711  0.003764 -0.009086
                                 0.026902 -0.251211  0.330021 -0.200885  3.930248 -3.910001  0.118482 -0.107154  0.200404 -0.703643
                                 1.343740  0.000000 -0.000000  0.000000 -0.000000  0.000001 -0.000003  0.000008 -0.000019  0.000039
                                -0.000051 -0.000169  0.002982 -0.009974 -0.016911  0.016980  0.042119  0.028606  0.058664  0.085064
                                 0.042474  0.009376 -0.255398  0.000000  0.000000 -0.000001 -0.000000  0.000003  0.000000 -0.000011
                                -0.000001  0.000031  0.000003 -0.000101 -0.000008  0.000174  0.000019 -0.000751 -0.000061  0.003942
                                 0.000360 -0.010677 -0.000947  0.016614  0.001534 -0.021130 -0.001727  0.014169  0.001373 -0.020849
                                -0.001127  0.005284  0.001594 -0.028485 -0.002923 -0.047523  0.006695 -0.000181  0.000033 -0.000857
                                 0.000105 -0.000471  0.000116 -0.001584 -0.017631 -0.060393 -0.089982 -0.119684 -0.001423  0.000401
                                 0.130769 -0.000420  0.000273  0.000001 -0.002876  0.000166 -0.000521  0.000611 -0.000505

                                   1 2py     1 2py     1 2py     1 2py     1 2py     1 2py     1 2py     1 2py     1 2py     1 2py  
                                   1 2py     1 2py     1 2py     1 2py     1 2py     1 2py     1 2py     1 2py     1 2py     1 2py  
                                   1 2py     1 2py     1 2py     1 2py     1 2py     1 2py     1 2py     1 2py     1 2py     1 2py  
                                   1 2py     1 3d1-    1 3d1-    1 3d1-    1 3d1-    1 3d1-    1 3d1-    1 3d1-    1 3d1-    1 3d1- 
                                   1 3d1-    1 3d1-    1 3d1-    1 3d1-    1 3d1-    1 3d1-    1 3d1-    1 3d1-    1 3d1-    1 3d1- 
                                   1 3d1-    1 3d1-    1 3d1-    1 4f1-    1 4f3-    1 4f1-    1 4f3-    1 4f1-    1 4f3-    1 4f1- 
                                   1 4f3-    1 4f1-    1 4f3-    1 4f1-    1 4f3-    1 4f1-    1 4f3-    1 4f1-    1 4f3-    1 4f1- 
                                   1 4f3-    1 4f1-    1 4f3-    1 4f1-    1 4f3-    1 4f1-    1 4f3-    1 4f1-    1 4f3-    1 4f1- 
                                   1 4f3-    1 4f1-    1 4f3-    1 4f1-    1 4f3-    1 4f1-    1 4f3-    1 5g1-    1 5g3-    1 5g1- 
                                   1 5g3-    1 5g1-    1 5g3-    2 2py     2 2py     2 2py     2 2py     2 2py     2 2py     2 2py  
                                   2 2py     2 3d1-    2 3d1-    2 3d1-    2 3d1-    2 4f1-    2 4f3-    2 4f1-    2 4f3- 

   1.3   2    -2.4665  -16.6111  0.000000 -0.000000  0.000000 -0.000000  0.000000 -0.000000  0.000000 -0.000000  0.000000 -0.000000
                                 0.000001 -0.000003  0.000007 -0.000016  0.000033 -0.000042 -0.000114  0.001940 -0.019659  0.121656
                                -0.267648 -0.128789  0.001724  0.385288  0.132443  0.419856  0.270397  0.034126 -0.000792  0.000765
                                -0.000244 -0.000000  0.000000 -0.000000  0.000000 -0.000000  0.000000 -0.000001  0.000002 -0.000004
                                 0.000008 -0.000012 -0.000003 -0.000133  0.001041 -0.000944  0.000518 -0.000787 -0.002203 -0.004173
                                -0.001028 -0.000202 -0.000025  0.000000  0.000000 -0.000000 -0.000000  0.000000  0.000000 -0.000000
                                -0.000001  0.000002  0.000002  0.000017 -0.000009  0.000050  0.000015  0.000096 -0.000080  0.000057
                                 0.000004  0.000177 -0.000047  0.002684  0.000811  0.001156 -0.001114  0.003215 -0.000491  0.000097
                                -0.001825  0.000303 -0.000533 -0.000246  0.000106  0.000042 -0.000047 -0.000067  0.000059 -0.000551
                                -0.000353 -0.000203  0.000175  0.000029  0.000251  0.000653  0.001384  0.000130  0.000001 -0.000008
                                 0.000098 -0.000200 -0.000907 -0.000011 -0.000054  0.000203  0.000007  0.000314  0.000054

   2.3   2    -0.5440   -9.9408  0.000000 -0.000000  0.000000 -0.000000  0.000000 -0.000000  0.000000 -0.000000  0.000000 -0.000000
                                 0.000000 -0.000001  0.000002 -0.000004  0.000010 -0.000024  0.000058 -0.000161  0.000694 -0.003357
                                 0.008085 -0.016709  0.025841 -0.025528  0.367230 -0.380925  0.003828 -0.011014 -0.005960  0.001554
                                -0.001182 -0.000000  0.000000 -0.000000  0.000000 -0.000001  0.000002 -0.000006  0.000017 -0.000050
                                 0.000192 -0.001140  0.009463 -0.033423 -0.021098  0.020851  0.131329  0.014214  0.199740  0.198188
                                 0.078892  0.014548 -0.000824  0.000000 -0.000000 -0.000000  0.000000  0.000000 -0.000000 -0.000001
                                 0.000000  0.000004 -0.000000 -0.000003 -0.000000  0.000044 -0.000003 -0.000041  0.000001  0.000756
                                -0.000044 -0.002013  0.000068  0.003955 -0.000201 -0.004486  0.000080  0.005175 -0.000366  0.001404
                                 0.000355 -0.010706  0.000561  0.000517  0.000150  0.000953 -0.000007  0.000286  0.000358  0.003680
                                 0.000751  0.005948  0.001389  0.007059  0.073188  0.235273  0.368872  0.277914  0.003938 -0.001864
                                 0.024433 -0.003683 -0.014468 -0.000213 -0.016392  0.001823  0.002020  0.005020  0.002125

   3.3   2    -0.3987  -10.3641  0.000000 -0.000000  0.000000 -0.000000  0.000000 -0.000000  0.000000 -0.000000  0.000000 -0.000000
                                 0.000000 -0.000000  0.000000 -0.000000  0.000000  0.000002 -0.000018  0.000159 -0.001502  0.009451
                                -0.022140  0.001179 -0.013422  0.041830 -0.206951  0.260785  0.006927 -0.054103 -0.052286  0.000147
                                -0.000004 -0.000000  0.000000 -0.000000  0.000000 -0.000001  0.000005 -0.000014  0.000038 -0.000105
                                 0.000358 -0.001910  0.015169 -0.054180 -0.028150  0.028079  0.212095  0.007971  0.332127  0.294493
                                 0.167803  0.030018  0.002879  0.000000  0.000000 -0.000001 -0.000000  0.000002  0.000000 -0.000009
                                -0.000000  0.000023  0.000000 -0.000106  0.000000  0.000078  0.000004 -0.000749  0.000000  0.002942
                                -0.000057 -0.008792  0.000146  0.012392  0.000056 -0.019338  0.000152  0.005761 -0.000185 -0.026007
                                -0.000311 -0.009104 -0.000180 -0.006044 -0.000065  0.001484  0.000011  0.000373  0.000552  0.000534
                                 0.001236  0.002182  0.001287 -0.005357 -0.055715 -0.180057 -0.280649 -0.241133 -0.003019  0.001413
                                -0.046036 -0.000648 -0.000214 -0.000003  0.010220  0.000602 -0.001542 -0.002326 -0.001234

   4.3   0     0.0224   -2.4919  0.000000 -0.000000  0.000000 -0.000000  0.000000 -0.000000  0.000000 -0.000000  0.000000 -0.000001
                                 0.000003 -0.000009  0.000023 -0.000058  0.000138 -0.000315  0.000698 -0.001573  0.004150 -0.013491
                                 0.036378 -0.217121  0.292445 -0.197684  3.491571 -3.505147  0.092821 -0.067843  0.230659 -0.531541
                                 1.248580  0.000000 -0.000000  0.000000 -0.000000  0.000001 -0.000003  0.000010 -0.000025  0.000056
                                -0.000111  0.000159  0.000365 -0.000732 -0.011740  0.012077  0.006017  0.026624  0.000988  0.030603
                                -0.000686 -0.014407 -0.248491  0.000000  0.000000 -0.000001 -0.000000  0.000003  0.000000 -0.000010
                                -0.000001  0.000028  0.000002 -0.000082 -0.000007  0.000177  0.000014 -0.000620 -0.000050  0.003605
                                 0.000338 -0.009472 -0.000929  0.015149  0.001229 -0.017885 -0.001504  0.013970  0.001226 -0.013750
                                -0.000098  0.012921  0.003274 -0.025174 -0.002304 -0.026813  0.008306  0.000029  0.000058 -0.000083
                                 0.000362  0.000082 -0.000137 -0.000438 -0.005588 -0.021067 -0.026403 -0.050817 -0.000670  0.000102
                                 0.140901 -0.000399 -0.000478 -0.000008 -0.003425 -0.000128 -0.000180  0.000732 -0.000049

   5.3   0     0.0703   -3.3057 -0.000000  0.000000 -0.000000  0.000000 -0.000000  0.000000 -0.000000  0.000000 -0.000001  0.000003
                                -0.000008  0.000023 -0.000061  0.000155 -0.000369  0.000835 -0.001805  0.003699 -0.006386  0.006553
                                -0.028350  0.578044 -0.741340  0.401238 -8.886273  8.763090 -0.307055  0.310644 -0.321342  1.773786
                                -1.241633  0.000000 -0.000000  0.000000 -0.000002  0.000007 -0.000025  0.000071 -0.000180  0.000408
                                -0.000858  0.001708 -0.002820  0.014021 -0.068796  0.071202 -0.035757  0.184451 -0.122965  0.110814
                                -0.079161  0.186594 -0.527117  0.000000 -0.000000 -0.000001  0.000000  0.000003 -0.000000 -0.000012
                                 0.000001  0.000035 -0.000002 -0.000103  0.000003  0.000211 -0.000018 -0.000770  0.000038  0.004332
                                -0.000193 -0.011328  0.000384  0.017641 -0.001288 -0.020925  0.001087  0.014637 -0.001044 -0.015046
                                 0.002596  0.006701  0.004380 -0.030279  0.002450  0.148653  0.007273 -0.000251  0.000098  0.000991
                                 0.000769 -0.002201 -0.000449 -0.000813 -0.008317 -0.026546 -0.042670 -0.032788 -0.000385  0.000217
                                -0.191209 -0.000963 -0.002632 -0.000042 -0.008785  0.000113 -0.000230  0.000021 -0.000072

                                   1 3d2-    1 3d2-    1 3d2-    1 3d2-    1 3d2-    1 3d2-    1 3d2-    1 3d2-    1 3d2-    1 3d2- 
                                   1 3d2-    1 3d2-    1 3d2-    1 3d2-    1 3d2-    1 3d2-    1 3d2-    1 3d2-    1 3d2-    1 3d2- 
                                   1 3d2-    1 3d2-    1 4f2-    1 4f2-    1 4f2-    1 4f2-    1 4f2-    1 4f2-    1 4f2-    1 4f2- 
                                   1 4f2-    1 4f2-    1 4f2-    1 4f2-    1 4f2-    1 4f2-    1 4f2-    1 4f2-    1 4f2-    1 5g2- 
                                   1 5g4-    1 5g2-    1 5g4-    1 5g2-    1 5g4-    2 3d2-    2 3d2-    2 3d2-    2 3d2-    2 4f2- 
                                   2 4f2- 

   1.4   +    -0.4910  -11.1579 -0.000000  0.000000 -0.000000  0.000000 -0.000001  0.000005 -0.000015  0.000042 -0.000116  0.000409
                                -0.002240  0.017961 -0.063664 -0.035623  0.034306  0.251084  0.014482  0.394965  0.353006  0.170621
                                 0.025799 -0.000791  0.000000 -0.000000  0.000001 -0.000004  0.000010 -0.000045  0.000029 -0.000312
                                 0.001231 -0.003695  0.004966 -0.008217  0.002100 -0.011461 -0.007971  0.000136 -0.000546 -0.000866
                                 0.001461 -0.000821  0.002773  0.000672  0.003539  0.000620  0.002807  0.000035  0.001808 -0.000480
                                -0.001100

   2.4   0     0.0801   -2.5954 -0.000000  0.000000 -0.000001  0.000005 -0.000019  0.000062 -0.000180  0.000457 -0.001041  0.002230
                                -0.004765  0.011179 -0.049786  0.162955 -0.168671  0.146871 -0.452838  0.394798 -0.186614  0.208884
                                -0.476084  1.250427 -0.000000  0.000002 -0.000008  0.000030 -0.000087  0.000228 -0.000587  0.001747
                                -0.011027  0.028390 -0.046510  0.050962 -0.044396  0.032200 -0.045264  0.114574 -0.223122  0.000071
                                -0.000057 -0.000045 -0.000312  0.000097  0.000147  0.000362 -0.000409  0.000004  0.005357 -0.000068
                                 0.000550

   3.4   0     0.1477   -2.5590 -0.000000  0.000000 -0.000000  0.000001 -0.000005  0.000016 -0.000045  0.000114 -0.000261  0.000562
                                -0.001219  0.003035 -0.013310  0.040226 -0.041668  0.040243 -0.113328  0.104664 -0.042508  0.056872
                                -0.120750  0.211504  0.000002 -0.000015  0.000068 -0.000243  0.000713 -0.001858  0.004816 -0.014264
                                 0.090194 -0.231935  0.379849 -0.414718  0.361480 -0.257745  0.367260 -0.996320  1.616612  0.000022
                                -0.000007 -0.000131  0.000006  0.000460 -0.000032  0.000731  0.001588  0.000028 -0.000622 -0.000996
                                 0.002923

 HOMO      6.1    -0.354646 =      -9.6504eV
 LUMO      3.2    -0.026297 =      -0.7156eV
 LUMO-HOMO         0.328349 =       8.9348eV


 **********************************************************************************************************************************
 DATASETS  * FILE   NREC   LENGTH (MB)   RECORD NAMES
              1      19       22.57       500      610      700      900      950      970     1000      129      960     1100   
                                          VAR    BASINP    GEOM    SYMINP    ZMAT    AOBASIS   BASIS     P2S    ABASIS      S 
                                         1400     1410     1420     1200     1210     1080     1600     1650     1700   
                                           T        V       ECP      H0       H01     AOSYM     SMH    MOLCAS    OPER   

              2       4        4.55       700     1000      520     2100   
                                         GEOM     BASIS   MCVARS     RHF  

 PROGRAMS   *        TOTAL       RHF       INT
 CPU TIMES  *       222.14     13.66    208.16
 REAL TIME  *       235.85 SEC
 DISK USED  *        11.36 GB      
 SF USED    *         0.25 MB      
 GA USED    *         0.00 MB       (max)       0.00 MB       (current)
 **********************************************************************************************************************************
 SETTING SCF(5)         =      -119.37615935  AU                              


 PROGRAM * CCSD (Restricted open-shell coupled cluster)     Authors: C. Hampel, H.-J. Werner, 1991, M. Deegan, P.J. Knowles, 1992


 Convergence thresholds:  THRVAR = 1.00D-08  THRDEN = 1.00D-06

 CCSD(T)     terms to be evaluated (factor= 1.000)


 Number of closed-shell orbitals:  11 (   6   2   3   0 )
 Number of active  orbitals:        1 (   0   0   0   1 )
 Number of external orbitals:     443 ( 180 107 106  50 )

 Memory could be reduced to 445.68 Mwords without degradation in triples

 Number of N-1 electron functions:              23
 Number of N-2 electron functions:             253
 Number of singly external CSFs:              3275
 Number of doubly external CSFs:           9817564
 Total number of CSFs:                     9820839

 Molecular orbitals read from record     2100.2  Type=RHF/CANONICAL (state 1.4)

 Integral transformation finished. Total CPU:  16.55 sec, npass=  1  Memory used:  43.25 MW

 Starting RMP2 calculation

 Wavefunction is spin-projected

 ITER.      SQ.NORM     CORR.ENERGY   TOTAL ENERGY   ENERGY CHANGE        DEN1      VAR(S)    VAR(P)  DIIS     TIME
   1      1.29721392    -0.96780438  -120.34396373    -0.96780438    -0.00436762  0.59D-05  0.29D-02  1  1    17.85
   2      1.30454462    -0.97259452  -120.34875387    -0.00479014    -0.00002421  0.21D-07  0.21D-04  2  2    22.76
   3      1.30512590    -0.97283305  -120.34899240    -0.00023853    -0.00000008  0.96D-10  0.63D-07  3  3    36.07
   4      1.30514023    -0.97283608  -120.34899543    -0.00000303    -0.00000000  0.43D-11  0.26D-09  4  4    40.59
   5      1.30514045    -0.97283614  -120.34899549    -0.00000006    -0.00000000  0.24D-12  0.12D-11  5  5    42.11

 Norm of t1 vector:      0.02751691      S-energy:    -0.00255149      T1 diagnostic:  0.00006316
 Norm of t2 vector:      0.55170941      P-energy:    -0.97028465
                                         Alpha-Beta:  -0.69082871
                                         Alpha-Alpha: -0.15131217
                                         Beta-Beta:   -0.12814377

 Spin contamination <S**2-Sz**2-Sz>     0.00000000
  Reference energy                   -119.376159347482
  RHF-RMP2 correlation energy          -0.972836139158
 !RHF-RMP2 energy                    -120.348995486641
 (NB above energy spin projected)

 Starting RCCSD calculation

 ITER.      SQ.NORM     CORR.ENERGY   TOTAL ENERGY   ENERGY CHANGE        DEN1      VAR(S)    VAR(P)  DIIS     TIME
   1      1.22798502    -0.86770677  -120.24386611    -0.86770677    -0.04818398  0.19D-01  0.11D-01  1  1    72.93
   2      1.26417121    -0.90336852  -120.27952787    -0.03566175    -0.00570652  0.12D-02  0.26D-02  2  2   102.55
   3      1.28873259    -0.90681993  -120.28297928    -0.00345141    -0.00172173  0.15D-02  0.37D-03  3  3   129.26
   4      1.31191519    -0.91106717  -120.28722652    -0.00424724    -0.00048582  0.42D-03  0.11D-03  4  4   152.42
   5      1.33439213    -0.91379939  -120.28995873    -0.00273221    -0.00014846  0.16D-03  0.23D-04  5  5   176.13
   6      1.34745561    -0.91452155  -120.29068089    -0.00072216    -0.00005967  0.68D-04  0.10D-04  6  6   200.15
   7      1.35762822    -0.91491716  -120.29107651    -0.00039562    -0.00002170  0.23D-04  0.44D-05  7  7   227.57
   8      1.36459504    -0.91511645  -120.29127579    -0.00019928    -0.00000646  0.53D-05  0.18D-05  8  8   255.22
   9      1.36712278    -0.91515776  -120.29131710    -0.00004131    -0.00000196  0.17D-05  0.54D-06  9  9   281.22
  10      1.36834065    -0.91516821  -120.29132756    -0.00001045    -0.00000054  0.46D-06  0.14D-06 10 10   300.63
  11      1.36865009    -0.91517448  -120.29133382    -0.00000627    -0.00000018  0.13D-06  0.55D-07 11 11   324.28
  12      1.36888786    -0.91517653  -120.29133587    -0.00000205    -0.00000006  0.48D-07  0.15D-07 12 12   346.56
  13      1.36894564    -0.91517394  -120.29133329     0.00000259    -0.00000002  0.18D-07  0.45D-08 13 13   367.20
  14      1.36896038    -0.91517422  -120.29133356    -0.00000028    -0.00000001  0.67D-08  0.20D-08 14 14   390.83

 Norm of t1 vector:      0.29668862      S-energy:    -0.00286580      T1 diagnostic:  0.04308661
                                                                       D1 diagnostic:  0.18405050
 Norm of t2 vector:      0.53003419      P-energy:    -0.91230842
                                         Alpha-Beta:  -0.68331433
                                         Alpha-Alpha: -0.12383078
                                         Beta-Beta:   -0.10516331

 Singles amplitudes (print threshold =  0.500E-01):

         I         SYM. A    A   T(IA) [Alpha-Alpha]

         4         1         1     -0.06859984
         6         1         1      0.11298128
         6         1         2     -0.05035437
 
         I         SYM. A    A   T(IA) [Beta-Beta]

         4         1         1     -0.05704932
         6         1         1      0.13314707
         6         1         2     -0.05646493

 Doubles amplitudes (print threshold =  0.500E-01):

         I         J         SYM. A    SYM. B    A         B      T(IJ, AB) [Alpha-Beta]

         8         8         2         2         1         1     -0.16763748
         8         8         2         2         1         2     -0.05336971
         8         8         2         2         2         1     -0.05336971

 Spin contamination <S**2-Sz**2-Sz>     0.00000000

 Memory could be reduced to 458.42 Mwords without degradation in triples
 

  Correlated core orbitals:             1.1       2.1       1.2       1.3
  Orbital energies:                    -4.2730   -2.4926   -2.5261   -2.5164
 
  RCCSD core-core energy               -0.124492089877
  RCCSD core-valence energy            -0.216770032298
  RCCSD valence correlation energy     -0.573912093300
 

 RESULTS
 =======

  Reference energy                   -119.376159347482
  RCCSD singles energy                 -0.002865796708
  RCCSD pair energy                    -0.912308418767
  RCCSD correlation energy             -0.915174215475
  Triples (T) contribution             -0.059273951847
  Total correlation energy             -0.974448167322
 
  RHF-RCCSD energy                   -120.291333562958
  RHF-RCCSD[T] energy                -120.359594410311
  RHF-RCCSD-T energy                 -120.349708481306
 !RHF-RCCSD(T) energy                -120.350607514805

 Program statistics:

 Available memory in ccsd:              1023998628
 Min. memory needed in ccsd:              28062859
 Max. memory used in ccsd:                40287473
 Max. memory used in cckext:              32692403 (14 integral passes)
 Max. memory used in cckint:              43251562 ( 1 integral passes)



 **********************************************************************************************************************************
 DATASETS  * FILE   NREC   LENGTH (MB)   RECORD NAMES
              1      19       22.57       500      610      700      900      950      970     1000      129      960     1100   
                                          VAR    BASINP    GEOM    SYMINP    ZMAT    AOBASIS   BASIS     P2S    ABASIS      S 
                                         1400     1410     1420     1200     1210     1080     1600     1650     1700   
                                           T        V       ECP      H0       H01     AOSYM     SMH    MOLCAS    OPER   

              2       4        4.55       700     1000      520     2100   
                                         GEOM     BASIS   MCVARS     RHF  

 PROGRAMS   *        TOTAL  RCCSD(T)       RHF       INT
 CPU TIMES  *       897.24    675.08     13.66    208.16
 REAL TIME  *      1051.98 SEC
 DISK USED  *        42.85 GB      
 SF USED    *         7.46 GB      
 GA USED    *         0.00 MB       (max)       0.00 MB       (current)
 **********************************************************************************************************************************
 SETTING CCSD(5)        =      -120.35060751  AU                              
 Output type csv         
                                                                                                                                                                                                                                                                

     Z,SCF,CCSD
   0.0,      0.0000000,      0.0000000
   0.0,      0.0000000,      0.0000000
   0.0,      0.0000000,      0.0000000
   0.0,      0.0000000,      0.0000000
   1.9,   -119.3761593,   -120.3506075
                                                  

 RCCSD(T)/USERDEF energy=   -120.350607514805

        RCCSD(T)        RHF-SCF 
   -120.35060751   -119.37615935
 **********************************************************************************************************************************
 Molpro calculation terminated
 Variable memory released
