<?xml version="1.0"?>
<molpro xmlns="http://www.molpro.net/schema/molpro-output"
  xmlns:xsd="http://www.w3.org/1999/XMLSchema"
  xmlns:cml="http://www.xml-cml.org/schema"
  xmlns:stm="http://www.xml-cml.org/schema"
  xmlns:xhtml="http://www.w3.org/1999/xhtml">
 <!--

 Nodes     nprocs
 nid00783    15
 Number of processes for MPI-2 version of Molpro:   nprocs(total)=   16   nprocs(compute)=   15   nprocs(helper)=    1

 Using customized tuning parameters: mindgm=7; mindgv=16; mindgc=1; mindgr=1; noblas=0; minvec=7
 default implementation of scratch files=sf

 --><job>
  <!--

 Variables initialized (889), CPU time= 0.02 sec
 Commands  initialized (702), CPU time= 0.01 sec, 572 directives.
 Default parameters read. Elapsed time= 0.15 sec

 Checking input...
 Passed
1


                                         ***  PROGRAM SYSTEM MOLPRO  ***
                                       Copyright, TTI GmbH Stuttgart, 2015
                                    Version 2015.1 linked Dec 29 2018 15:55:43


 **********************************************************************************************************************************
 LABEL *   Calculation for Au atom
  64 bit mpp version                                                                     DATE: 04-May-21          TIME: 02:56:02
 **********************************************************************************************************************************

 SHA1:             19cd028119e0e09f93f0674bd8af7968d9b3eff6
 **********************************************************************************************************************************
  -->
  <!--

Geometry recognized as XYZ


 Variable memory set to  512000000 words,  buffer space   230000 words

 SETTING BASIS          =    USERDEF

 DO I                   =         1.00000000

 Running procedure=IS1DTEN
  --><jobstep command="RHF-SCF" commandset="SCFPRO">
   <!--


 Recomputing integrals since basis changed


 Using spherical harmonics



 PROGRAM * SEWARD (Integral evaluation for generally contracted gaussian basis sets)     Author: Roland Lindh, 1990

 Geometry written to block  1 of record 700

 Orientation using atomic masses
 Molecule type: Atom
 Symmetry elements: X,Y,Z
 Rotational constants:       0.0000000      0.0000000      0.0000000 GHz  (calculated with average atomic masses)

 Point group  D2h


   --><cml:molecule>
    <cml:symmetry pointGroup="D2h"/>
    <cml:atomArray>
     <cml:atom id="a1" elementType="Au" x3="0.0" y3="0.0" z3="0.0"/>
    </cml:atomArray>
    <cml:bondArray>
    </cml:bondArray>
   </cml:molecule><!--

 ATOMIC COORDINATES

 NR  ATOM    CHARGE       X              Y              Z

   1  AU     19.00    0.000000000    0.000000000    0.000000000

 NUCLEAR CHARGE:                   19
 NUMBER OF PRIMITIVE AOS:         449
 NUMBER OF SYMMETRY AOS:          365
 NUMBER OF CONTRACTIONS:          365   (  86Ag  +  61B3u +  61B2u +  27B1g +  61B1u +  27B2g +  27B3g +  15Au  )
 NUMBER OF CORE ORBITALS:           4   (   1Ag  +   1B3u +   1B2u +   0B1g +   1B1u +   0B2g +   0B3g +   0Au  )
 NUMBER OF VALENCE ORBITALS:        6   (   3Ag  +   0B3u +   0B2u +   1B1g +   0B1u +   1B2g +   1B3g +   0Au  )


 NUCLEAR REPULSION ENERGY    0.00000000

 EXTRA SYMMETRY OF AOS IN SYMMETRY 1:   1 1 1 1 1 1 1 1 1 1   1 1 1 1 1 1 1 1 1 1   1 1 1 1 1 1 1 1 1 1   1 1 1 1 1 2 3 2 3 2
                                        3 2 3 2 3 2 3 2 3 2   3 2 3 2 3 2 3 2 3 2   3 2 3 2 3 2 3 2 3 2   3 2 3 2 3 2 3 4 5 6
                                        4 5 6 4 5 6
 EXTRA SYMMETRY OF AOS IN SYMMETRY 2:   1 1 1 1 1 1 1 1 1 1   1 1 1 1 1 1 1 1 1 1   1 1 1 1 1 1 1 1 1 1   1 2 3 2 3 2 3 2 3 2
                                        3 2 3 2 3 2 3 2 3 2   3 2 3 2 3 2 3 2 3 2   3
 EXTRA SYMMETRY OF AOS IN SYMMETRY 3:   1 1 1 1 1 1 1 1 1 1   1 1 1 1 1 1 1 1 1 1   1 1 1 1 1 1 1 1 1 1   1 2 3 2 3 2 3 2 3 2
                                        3 2 3 2 3 2 3 2 3 2   3 2 3 2 3 2 3 2 3 2   3
 EXTRA SYMMETRY OF AOS IN SYMMETRY 4:   1 1 1 1 1 1 1 1 1 1   1 1 1 1 1 1 1 1 1 1   1 2 3 2 3 2 3
 EXTRA SYMMETRY OF AOS IN SYMMETRY 5:   1 1 1 1 1 1 1 1 1 1   1 1 1 1 1 1 1 1 1 1   1 1 1 1 1 1 1 1 1 1   1 2 3 2 3 2 3 2 3 2
                                        3 2 3 2 3 2 3 2 3 2   3 2 3 2 3 2 3 2 3 2   3
 EXTRA SYMMETRY OF AOS IN SYMMETRY 6:   1 1 1 1 1 1 1 1 1 1   1 1 1 1 1 1 1 1 1 1   1 2 3 2 3 2 3
 EXTRA SYMMETRY OF AOS IN SYMMETRY 7:   1 1 1 1 1 1 1 1 1 1   1 1 1 1 1 1 1 1 1 1   1 2 3 2 3 2 3

 Eigenvalues of metric

         1 0.109E-05 0.119E-04 0.119E-04 0.186E-04 0.547E-04 0.121E-03 0.121E-03 0.172E-03
         2 0.490E-06 0.215E-04 0.415E-04 0.415E-04 0.153E-03 0.505E-03 0.891E-03 0.891E-03
         3 0.490E-06 0.215E-04 0.415E-04 0.415E-04 0.153E-03 0.505E-03 0.891E-03 0.891E-03
         4 0.119E-04 0.121E-03 0.616E-03 0.199E-02 0.555E-02 0.132E-01 0.261E-01 0.504E-01
         5 0.490E-06 0.215E-04 0.415E-04 0.415E-04 0.153E-03 0.505E-03 0.891E-03 0.891E-03
         6 0.119E-04 0.121E-03 0.616E-03 0.199E-02 0.555E-02 0.132E-01 0.261E-01 0.504E-01
         7 0.119E-04 0.121E-03 0.616E-03 0.199E-02 0.555E-02 0.132E-01 0.261E-01 0.504E-01
         8 0.415E-04 0.891E-03 0.509E-02 0.124E-01 0.336E-01 0.825E-01 0.168E+00 0.319E+00


 Contracted 2-electron integrals neglected if value below      1.0D-13
 AO integral compression algorithm  1   Integral accuracy      1.0D-13

     1797.259 MB (compressed) written to integral file ( 38.6%)

     Node minimum: 79.167 MB, node maximum: 234.357 MB


 NUMBER OF SORTED TWO-ELECTRON INTEGRALS:   19190038.     BUFFER LENGTH:  32768
 NUMBER OF SEGMENTS:   1  SEGMENT LENGTH:   19190038      RECORD LENGTH: 524288

 Memory used in sort:      19.75 MW

 SORT1 READ   581377519. AND WROTE    11305473. INTEGRALS IN     33 RECORDS. CPU TIME:    14.66 SEC, REAL TIME:    18.99 SEC
 SORT2 READ   169258147. AND WROTE   288141177. INTEGRALS IN   7290 RECORDS. CPU TIME:     3.47 SEC, REAL TIME:     3.81 SEC

 Node minimum:    19133652.  Node maximum:    19345881. integrals

 OPERATOR DM      FOR CENTER  0  COORDINATES:    0.000000    0.000000    0.000000


 **********************************************************************************************************************************
 DATASETS  * FILE   NREC   LENGTH (MB)   RECORD NAMES
              1      19       20.87       500      610      700      900      950      970     1000      129      960     1100
                                          VAR    BASINP    GEOM    SYMINP    ZMAT    AOBASIS   BASIS     P2S    ABASIS      S
                                         1400     1410     1420     1200     1210     1080     1600     1650     1700
                                           T        V       ECP      H0       H01     AOSYM     SMH    MOLCAS    OPER

 PROGRAMS   *        TOTAL       INT
 CPU TIMES  *       182.45    182.03
 REAL TIME  *       190.82 SEC
 DISK USED  *         3.83 GB
 GA USED    *         0.00 MB       (max)       0.00 MB       (current)
 **********************************************************************************************************************************


 PROGRAM * RHF-SCF (OPEN SHELL)       Authors: W. Meyer, H.-J. Werner


 NUMBER OF ELECTRONS:      10+    9-    SPACE SYMMETRY=1    SPIN SYMMETRY: Doublet
 CONVERGENCE THRESHOLDS:    1.00E-05 (Density)    1.00E-07 (Energy)
 MAX. NUMBER OF ITERATIONS:       60
 INTERPOLATION TYPE:            DIIS
 INTERPOLATION STEPS:              2 (START)      1 (STEP)
 LEVEL SHIFTS:                 -0.60 (CLOSED) -0.30 (OPEN)


 Singly occupied orbitals:      4.1

 Extra symmetries of mos in symmetry 1:   1   3   2   1
 Orbital guess generated from atomic densities. Full valence occupancy:    4   1   1   1   1   1   1   0


 Molecular orbital dump at record        4202.2

 ITERATION    DDIFF          GRAD             ENERGY        2-EL.EN.            DIPOLE MOMENTS         DIIS   ORB.
    1      0.000D+00      0.000D+00      -135.12071162    214.428938    0.00000    0.00000    0.00000    0    start
    2      0.000D+00      0.135D-01      -135.17073065    208.372894    0.00000    0.00000    0.00000    1    diag,B
    3      0.999D-02      0.462D-02      -135.17509894    209.333141    0.00000    0.00000    0.00000    2    diag,B
    4      0.415D-02      0.493D-03      -135.17533591    209.192802    0.00000    0.00000    0.00000    3    diag,B
    5      0.579D-03      0.184D-03      -135.17538880    209.135730    0.00000    0.00000    0.00000    4    diag,B
    6      0.309D-03      0.703D-04      -135.17539281    209.125414    0.00000    0.00000    0.00000    5    diag,B
    7      0.243D-03      0.380D-04      -135.17539452    209.117924    0.00000    0.00000    0.00000    6    fixocc
    8      0.272D-03      0.510D-04      -135.17539480    209.116834    0.00000    0.00000    0.00000    7    diag,B
    9      0.903D-04      0.929D-05      -135.17539498    209.113773    0.00000    0.00000    0.00000    8    diag,B
   10      0.269D-03      0.714D-04      -135.17539515    209.113713    0.00000    0.00000    0.00000    9    orth
   11      0.324D-03      0.139D-04      -135.17539513    209.113792    0.00000    0.00000    0.00000    9    diag,B
   12      0.191D-03      0.217D-04      -135.17539517    209.113615    0.00000    0.00000    0.00000    9    diag,B
   13      0.774D-04      0.461D-05      -135.17539523    209.112887    0.00000    0.00000    0.00000    9    diag,B
   14      0.467D-04      0.220D-04      -135.17539522    209.112916    0.00000    0.00000    0.00000    9    diag,B
   15      0.386D-04      0.185D-04      -135.17539523    209.112887    0.00000    0.00000    0.00000    9    diag,B
   16      0.322D-04      0.487D-04      -135.17539522    209.112867    0.00000    0.00000    0.00000    9    diag,B
   17      0.390D-04      0.227D-04      -135.17539517    209.112862    0.00000    0.00000    0.00000    9    diag,B
   18      0.135D-03      0.320D-04      -135.17539495    209.112841    0.00000    0.00000    0.00000    9    diag,B
   19      0.211D-03      0.196D-04      -135.17539523    209.112952    0.00000    0.00000    0.00000    9    diag,B
   20      0.111D-03      0.938D-05      -135.17539524    209.112634    0.00000    0.00000    0.00000    9    orth
   21      0.779D-05      0.963D-05      -135.17539523    209.112505    0.00000    0.00000    0.00000    9    diag,B
   22      0.479D-04      0.358D-04      -135.17539513    209.112899    0.00000    0.00000    0.00000    9    diag,B
   23      0.917D-04      0.167D-04      -135.17539525    209.112539    0.00000    0.00000    0.00000    9    diag,B
   24      0.841D-04      0.187D-04      -135.17539525    209.112279    0.00000    0.00000    0.00000    9    diag,B
   25      0.119D-04      0.259D-04      -135.17539526    209.112827    0.00000    0.00000    0.00000    9    diag,B
   26      0.901D-05      0.117D-04      -135.17539524    209.112536    0.00000    0.00000    0.00000    9    diag,B
   27      0.135D-04      0.854D-05      -135.17539525    209.112187    0.00000    0.00000    0.00000    9    diag,B
   28      0.317D-04      0.280D-04      -135.17539525    209.112506    0.00000    0.00000    0.00000    9    diag,B
   29      0.358D-04      0.145D-04      -135.17539525    209.112416    0.00000    0.00000    0.00000    9    diag,B
   30      0.432D-04      0.290D-04      -135.17539515    209.112412    0.00000    0.00000    0.00000    9    orth
   31      0.723D-04      0.171D-04      -135.17539525    209.112555    0.00000    0.00000    0.00000    9    diag,B
   32      0.891D-04      0.119D-04      -135.17539525    209.112520    0.00000    0.00000    0.00000    9    diag,B
   33      0.462D-04      0.221D-04      -135.17539525    209.112497    0.00000    0.00000    0.00000    9    diag,B
   34      0.188D-04      0.356D-04      -135.17539525    209.112499    0.00000    0.00000    0.00000    9    diag,B
   35      0.286D-04      0.319D-04      -135.17539525    209.112320    0.00000    0.00000    0.00000    9    diag,B
   36      0.409D-04      0.858D-05      -135.17539512    209.112330    0.00000    0.00000    0.00000    9    diag,B
   37      0.487D-04      0.323D-04      -135.17539515    209.112468    0.00000    0.00000    0.00000    9    diag,B
   38      0.822D-04      0.613D-04      -135.17539525    209.112389    0.00000    0.00000    0.00000    9    diag,B
   39      0.519D-04      0.302D-04      -135.17539524    209.112362    0.00000    0.00000    0.00000    9    diag,B
   40      0.249D-03      0.492D-04      -135.17539525    209.112385    0.00000    0.00000    0.00000    9    orth
   41      0.255D-03      0.166D-04      -135.17539525    209.112378    0.00000    0.00000    0.00000    9    diag,B
   42      0.148D-04      0.174D-04      -135.17539525    209.112378    0.00000    0.00000    0.00000    9    diag,B
   43      0.400D-04      0.990D-05      -135.17539525    209.112381    0.00000    0.00000    0.00000    9    diag,B
   44      0.562D-04      0.262D-04      -135.17539525    209.112380    0.00000    0.00000    0.00000    9    diag,B
   45      0.243D-04      0.211D-04      -135.17539524    209.112362    0.00000    0.00000    0.00000    9    diag,B
   46      0.244D-03      0.462D-04      -135.17539524    209.112425    0.00000    0.00000    0.00000    9    diag,B
   47      0.257D-03      0.385D-04      -135.17539519    209.112495    0.00000    0.00000    0.00000    9    diag,B
   48      0.333D-03      0.442D-04      -135.17539524    209.112330    0.00000    0.00000    0.00000    9    diag,B
   49      0.263D-03      0.259D-04      -135.17539515    209.112246    0.00000    0.00000    0.00000    9    diag,B
   50      0.699D-04      0.216D-04      -135.17539523    209.112278    0.00000    0.00000    0.00000    9    orth
   51      0.135D-03      0.236D-04      -135.17539523    209.112370    0.00000    0.00000    0.00000    9    diag,B
   52      0.192D-03      0.338D-04      -135.17539521    209.112346    0.00000    0.00000    0.00000    9    diag,B
   53      0.248D-03      0.402D-04      -135.17539524    209.112383    0.00000    0.00000    0.00000    9    diag,B
   54      0.242D-03      0.365D-04      -135.17539521    209.112391    0.00000    0.00000    0.00000    9    diag,B
   55      0.168D-03      0.476D-04      -135.17539525    209.112380    0.00000    0.00000    0.00000    9    diag,B
   56      0.102D-03      0.104D-04      -135.17539525    209.112388    0.00000    0.00000    0.00000    9    diag,B
   57      0.407D-04      0.981D-05      -135.17539525    209.112438    0.00000    0.00000    0.00000    9    diag,B
   58      0.256D-04      0.219D-04      -135.17539525    209.112321    0.00000    0.00000    0.00000    9    diag,B
   59      0.492D-04      0.854D-05      -135.17539526    209.112349    0.00000    0.00000    0.00000    9    orth
   60      0.317D-04      0.149D-04      -135.17539521    209.112477    0.00000    0.00000    0.00000    0    orth

 Final alpha occupancy:   4   1   1   1   1   1   1   0
 Final beta  occupancy:   3   1   1   1   1   1   1   0

 !RHF STATE 1.1 Energy               -135.175395211572
   --><property name="Energy" method="RHF" principal="true" stateSymmetry="1" stateNumber="1"
     value="-135.175395211572"/><!--
 Nuclear energy                         0.00000000
 One-electron energy                 -239.73163376
 Two-electron energy                  104.55623855
 Virial quotient                       -3.04611014
 !RHF STATE 1.1 Dipole moment           0.00000000     0.00000000     0.00000000
 Dipole moment /Debye                   0.00000000     0.00000000     0.00000000
   --><property name="Dipole moment" method="RHF" principal="true" stateSymmetry="1"
     stateNumber="1" value="0.0 0.0 0.0"/><!--

 ELECTRON ORBITALS
 =================


   Orb  Occ    Energy  Couls-En    Coefficients

                                   1 1s      1 1s      1 1s      1 1s      1 1s      1 1s      1 1s      1 1s      1 1s      1 1s
                                   1 1s      1 1s      1 1s      1 1s      1 1s      1 1s      1 1s      1 1s      1 1s      1 1s
                                   1 1s      1 1s      1 1s      1 1s      1 1s      1 1s      1 1s      1 1s      1 1s      1 1s
                                   1 1s      1 1s      1 1s      1 1s      1 1s      1 3d0     1 3d2+    1 3d0     1 3d2+    1 3d0
                                   1 3d2+    1 3d0     1 3d2+    1 3d0     1 3d2+    1 3d0     1 3d2+    1 3d0     1 3d2+    1 3d0
                                   1 3d2+    1 3d0     1 3d2+    1 3d0     1 3d2+    1 3d0     1 3d2+    1 3d0     1 3d2+    1 3d0
                                   1 3d2+    1 3d0     1 3d2+    1 3d0     1 3d2+    1 3d0     1 3d2+    1 3d0     1 3d2+    1 3d0
                                   1 3d2+    1 3d0     1 3d2+    1 3d0     1 3d2+    1 3d0     1 3d2+    1 5g0     1 5g4+    1 5g2+
                                   1 5g0     1 5g4+    1 5g2+    1 5g0     1 5g4+    1 5g2+

   1.1   2    -4.6824  -21.9434  0.000000 -0.000000  0.000000 -0.000000  0.000000 -0.000000  0.000000 -0.000000  0.000000 -0.000000
                                 0.000000 -0.000001  0.000003 -0.000009  0.000023 -0.000059  0.000149 -0.000372  0.000936 -0.002231
                                 0.005448 -0.012236  0.028808 -0.073336  0.175143  0.117160  1.223538  0.330631  0.414656  0.050747
                                -0.016540  0.006926 -0.001784 -1.840211  0.403618  0.000000  0.000000 -0.000000 -0.000000  0.000000
                                 0.000000 -0.000000 -0.000000  0.000000 -0.000000 -0.000000  0.000000  0.000000 -0.000000 -0.000000
                                 0.000000  0.000000 -0.000000 -0.000000  0.000000  0.000001 -0.000000 -0.000001 -0.000000  0.000002
                                 0.000002  0.000002  0.000002 -0.000001 -0.000001 -0.000000 -0.000001  0.000000  0.000000 -0.000000
                                -0.000000 -0.000000 -0.000000 -0.000003 -0.000003  0.000000  0.000001  0.000000  0.000000  0.000000
                                -0.000000 -0.000000 -0.000000  0.000000  0.000000  0.000000

   2.1   2    -0.4498  -11.3639  0.000000 -0.000000  0.000000 -0.000000  0.000000 -0.000000  0.000000 -0.000000  0.000000 -0.000000
                                 0.000000 -0.000000  0.000000 -0.000000  0.000000 -0.000000  0.000000 -0.000000  0.000000 -0.000001
                                 0.000001 -0.000003  0.000007 -0.000016  0.000038 -0.000140 -0.000535  0.000691  0.000460 -0.000264
                                 0.000347 -0.000415  0.000172  0.000426 -0.000811 -0.000000 -0.000000  0.000000  0.000000 -0.000000
                                -0.000000  0.000000  0.000001 -0.000002 -0.000003  0.000006  0.000010 -0.000017 -0.000029  0.000045
                                 0.000077 -0.000255 -0.000440 -0.000295 -0.000513 -0.000391 -0.000668  0.003509  0.006045  0.006421
                                 0.011196  0.012926  0.022537  0.108432  0.187302  0.184688  0.319079  0.176180  0.304661  0.103832
                                 0.179527  0.030005  0.051882 -0.036592 -0.063478  0.010732  0.018897  0.000055 -0.000003  0.000027
                                -0.000054  0.000000 -0.000026  0.000019 -0.000001  0.000008

   3.1   2    -0.4501  -11.3643  0.000000  0.000000 -0.000000  0.000000 -0.000000  0.000000 -0.000000  0.000000 -0.000000  0.000000
                                -0.000000  0.000000 -0.000000  0.000000  0.000000 -0.000000 -0.000000  0.000000 -0.000000  0.000000
                                -0.000001  0.000002 -0.000004  0.000008 -0.000015  0.000047  0.000185 -0.000190 -0.000071  0.000024
                                -0.000013  0.000037 -0.000013 -0.000148  0.000167  0.000000 -0.000000 -0.000000  0.000000  0.000000
                                -0.000000 -0.000001  0.000000  0.000003 -0.000002 -0.000010  0.000006  0.000029 -0.000017 -0.000077
                                 0.000045  0.000442 -0.000256  0.000509 -0.000294  0.000679 -0.000393 -0.006077  0.003512 -0.011035
                                 0.006405 -0.022128  0.012862 -0.187762  0.108558 -0.319744  0.184925 -0.304551  0.176141 -0.179584
                                 0.103841 -0.051810  0.030006  0.063068 -0.036543 -0.018005  0.010427 -0.000000  0.000001  0.000000
                                 0.000000 -0.000001 -0.000000 -0.000001  0.000004  0.000002

   4.1   +    -0.2892   -7.0983 -0.000000  0.000000 -0.000000  0.000000 -0.000000  0.000000 -0.000000  0.000000 -0.000000  0.000000
                                -0.000000  0.000001 -0.000001  0.000003 -0.000009  0.000022 -0.000057  0.000141 -0.000355  0.000850
                                -0.002079  0.004705 -0.011199  0.029366 -0.079486  0.061746 -0.397982 -0.162941 -0.293824  0.174518
                                 0.646172  0.365068  0.012506  0.504700 -0.158761 -0.000000  0.000000  0.000000 -0.000000 -0.000000
                                 0.000000  0.000000 -0.000000 -0.000000  0.000000  0.000000 -0.000000 -0.000000  0.000000  0.000000
                                -0.000000 -0.000001 -0.000000  0.000001 -0.000000 -0.000003  0.000000  0.000009  0.000001 -0.000040
                                -0.000006 -0.000103 -0.000019  0.000127  0.000026  0.000245  0.000027 -0.000049  0.000017  0.000124
                                 0.000025 -0.000179 -0.000021  0.000100  0.000017 -0.000237 -0.000007 -0.000002  0.000005  0.000002
                                 0.000003 -0.000010 -0.000005 -0.000013  0.000040  0.000019

   5.1   0     0.0394   -2.2693  0.000000 -0.000000  0.000000 -0.000000  0.000000 -0.000000  0.000000 -0.000000  0.000000 -0.000000
                                 0.000000 -0.000001  0.000002 -0.000005  0.000012 -0.000031  0.000079 -0.000198  0.000491 -0.001183
                                 0.002778 -0.006213  0.013631 -0.030689  0.076806 -0.259396 -0.898987  1.244421  0.872445 -0.539260
                                 0.851095 -2.286681  2.265269  0.701167 -1.433441  0.000000  0.000000 -0.000000 -0.000000  0.000000
                                 0.000000 -0.000000 -0.000000  0.000000  0.000000 -0.000000 -0.000000  0.000001  0.000000 -0.000002
                                -0.000000  0.000005  0.000001 -0.000012 -0.000002  0.000027  0.000004 -0.000076 -0.000011  0.000351
                                 0.000054  0.000909  0.000140 -0.001091 -0.000167 -0.002303 -0.000339  0.000743  0.000102 -0.001169
                                -0.000181  0.001926  0.000291 -0.000889 -0.000137  0.002411  0.000349  0.000003 -0.000008 -0.000004
                                -0.000006  0.000018  0.000009  0.000022 -0.000069 -0.000033

   6.1   0     0.2185   -3.4248 -0.000000  0.000000 -0.000000  0.000000 -0.000000  0.000000 -0.000000  0.000000 -0.000000  0.000000
                                -0.000001  0.000002 -0.000005  0.000013 -0.000033  0.000083 -0.000210  0.000527 -0.001298  0.003135
                                -0.007234  0.016092 -0.033960  0.070042 -0.165661  0.876302  4.020237 -4.497359 -2.902960  2.017550
                                -5.060959  5.315006 -1.982342 -3.420718  5.760271  0.000000  0.000000 -0.000000 -0.000000  0.000000
                                 0.000000 -0.000000 -0.000000  0.000000  0.000000 -0.000002 -0.000000  0.000005  0.000001 -0.000012
                                -0.000002  0.000029  0.000005 -0.000061 -0.000010  0.000145  0.000024 -0.000397 -0.000065  0.001847
                                 0.000298  0.004786  0.000770 -0.005778 -0.000935 -0.012297 -0.002025  0.004022  0.000677 -0.006242
                                -0.001008  0.010336  0.001672 -0.004672 -0.000752  0.012889  0.002136  0.000005 -0.000016 -0.000008
                                -0.000010  0.000035  0.000017  0.000041 -0.000134 -0.000064

                                   1 2px     1 2px     1 2px     1 2px     1 2px     1 2px     1 2px     1 2px     1 2px     1 2px
                                   1 2px     1 2px     1 2px     1 2px     1 2px     1 2px     1 2px     1 2px     1 2px     1 2px
                                   1 2px     1 2px     1 2px     1 2px     1 2px     1 2px     1 2px     1 2px     1 2px     1 2px
                                   1 2px     1 4f1+    1 4f3+    1 4f1+    1 4f3+    1 4f1+    1 4f3+    1 4f1+    1 4f3+    1 4f1+
                                   1 4f3+    1 4f1+    1 4f3+    1 4f1+    1 4f3+    1 4f1+    1 4f3+    1 4f1+    1 4f3+    1 4f1+
                                   1 4f3+    1 4f1+    1 4f3+    1 4f1+    1 4f3+    1 4f1+    1 4f3+    1 4f1+    1 4f3+    1 4f1+
                                   1 4f3+

   1.2   2    -2.7445  -17.6211 -0.000000  0.000000 -0.000000  0.000000 -0.000000  0.000000 -0.000000  0.000000 -0.000001  0.000002
                                -0.000006  0.000018 -0.000050  0.000117 -0.000324  0.000581 -0.001912  0.002452 -0.010112  0.016486
                                 0.058320  1.371346  0.385633  0.391028  0.183540  0.012073  0.002387 -0.000715  0.000227 -1.588180
                                 0.159780  0.000000 -0.000000 -0.000000  0.000000  0.000000 -0.000000  0.000000 -0.000000 -0.000000
                                 0.000000  0.000000 -0.000000 -0.000000  0.000000  0.000000 -0.000000 -0.000000  0.000000 -0.000000
                                 0.000000 -0.000000 -0.000000  0.000000 -0.000000  0.000000 -0.000000  0.000000 -0.000000 -0.000000
                                -0.000000

   2.2   0     0.0234   -2.4399  0.000000 -0.000000  0.000000 -0.000000  0.000000 -0.000000  0.000000 -0.000000  0.000000 -0.000001
                                 0.000004 -0.000011  0.000029 -0.000074  0.000181 -0.000403  0.000932 -0.001887  0.004536 -0.010760
                                 0.030922  0.354162 -0.203362 -0.459225  0.108687 -0.088482  0.353388 -0.416063  1.180670 -0.308859
                                 0.457145 -0.000000 -0.000000  0.000000 -0.000000 -0.000000  0.000000  0.000000 -0.000000 -0.000000
                                 0.000000  0.000000 -0.000000 -0.000000  0.000000  0.000000 -0.000000 -0.000000  0.000000 -0.000000
                                 0.000000 -0.000000  0.000000  0.000000 -0.000000  0.000000 -0.000000  0.000000 -0.000000 -0.000000
                                 0.000000

   3.2   0     0.0744   -3.2830 -0.000000  0.000000 -0.000000  0.000000 -0.000000  0.000000 -0.000000  0.000000 -0.000001  0.000003
                                -0.000008  0.000022 -0.000060  0.000152 -0.000360  0.000845 -0.001759  0.004030 -0.008137  0.021102
                                -0.093371 -1.485714  0.421258  1.072165 -0.348677  0.458915 -0.512551  2.004830 -1.421216  1.408177
                                -1.288811  0.000000 -0.000000  0.000000 -0.000000 -0.000000  0.000000  0.000000 -0.000000 -0.000000
                                 0.000000  0.000000 -0.000000 -0.000000  0.000000  0.000000 -0.000000 -0.000000  0.000000 -0.000001
                                 0.000000 -0.000001  0.000000  0.000000 -0.000000  0.000001 -0.000000  0.000001 -0.000000 -0.000000
                                 0.000000

                                   1 2py     1 2py     1 2py     1 2py     1 2py     1 2py     1 2py     1 2py     1 2py     1 2py
                                   1 2py     1 2py     1 2py     1 2py     1 2py     1 2py     1 2py     1 2py     1 2py     1 2py
                                   1 2py     1 2py     1 2py     1 2py     1 2py     1 2py     1 2py     1 2py     1 2py     1 2py
                                   1 2py     1 4f1-    1 4f3-    1 4f1-    1 4f3-    1 4f1-    1 4f3-    1 4f1-    1 4f3-    1 4f1-
                                   1 4f3-    1 4f1-    1 4f3-    1 4f1-    1 4f3-    1 4f1-    1 4f3-    1 4f1-    1 4f3-    1 4f1-
                                   1 4f3-    1 4f1-    1 4f3-    1 4f1-    1 4f3-    1 4f1-    1 4f3-    1 4f1-    1 4f3-    1 4f1-
                                   1 4f3-

   1.3   2    -2.7445  -17.6211 -0.000000  0.000000 -0.000000  0.000000 -0.000000  0.000000 -0.000000  0.000000 -0.000001  0.000002
                                -0.000006  0.000018 -0.000050  0.000117 -0.000324  0.000581 -0.001912  0.002452 -0.010111  0.016486
                                 0.058320  1.371346  0.385634  0.391029  0.183540  0.012073  0.002387 -0.000715  0.000227 -1.588180
                                 0.159780  0.000000  0.000000 -0.000000 -0.000000  0.000000  0.000000  0.000000  0.000000 -0.000000
                                -0.000000  0.000000  0.000000  0.000000 -0.000000 -0.000000  0.000000  0.000000 -0.000000  0.000000
                                -0.000000  0.000000 -0.000000 -0.000000  0.000000 -0.000000  0.000000 -0.000000  0.000000  0.000000
                                -0.000000

   2.3   0     0.0234   -2.4399  0.000000 -0.000000  0.000000 -0.000000  0.000000 -0.000000  0.000000 -0.000000  0.000000 -0.000001
                                 0.000004 -0.000011  0.000029 -0.000074  0.000181 -0.000403  0.000932 -0.001887  0.004536 -0.010760
                                 0.030922  0.354160 -0.203361 -0.459224  0.108687 -0.088481  0.353389 -0.416062  1.180669 -0.308857
                                 0.457144  0.000000  0.000000 -0.000000 -0.000000  0.000000  0.000000 -0.000000 -0.000000  0.000000
                                 0.000000 -0.000000 -0.000000  0.000000  0.000000 -0.000000 -0.000000  0.000000 -0.000000  0.000001
                                 0.000000  0.000001  0.000000 -0.000001 -0.000000 -0.000001 -0.000000 -0.000001 -0.000000  0.000000
                                 0.000000

   3.3   0     0.0744   -3.2830 -0.000000  0.000000 -0.000000  0.000000 -0.000000  0.000000 -0.000000  0.000000 -0.000001  0.000003
                                -0.000008  0.000022 -0.000060  0.000152 -0.000360  0.000845 -0.001759  0.004030 -0.008137  0.021102
                                -0.093371 -1.485714  0.421257  1.072165 -0.348677  0.458916 -0.512549  2.004828 -1.421216  1.408177
                                -1.288810  0.000000 -0.000000 -0.000000  0.000000  0.000000 -0.000000 -0.000000  0.000000  0.000000
                                -0.000000 -0.000000  0.000000  0.000000 -0.000000 -0.000000  0.000000  0.000000 -0.000000  0.000000
                                -0.000000  0.000000 -0.000000 -0.000000  0.000000 -0.000000  0.000000 -0.000000  0.000000  0.000000
                                -0.000000

                                   1 3d2-    1 3d2-    1 3d2-    1 3d2-    1 3d2-    1 3d2-    1 3d2-    1 3d2-    1 3d2-    1 3d2-
                                   1 3d2-    1 3d2-    1 3d2-    1 3d2-    1 3d2-    1 3d2-    1 3d2-    1 3d2-    1 3d2-    1 3d2-
                                   1 3d2-    1 5g2-    1 5g4-    1 5g2-    1 5g4-    1 5g2-    1 5g4-

   1.4   2    -0.4498  -11.3639 -0.000000  0.000000 -0.000000  0.000001 -0.000003  0.000012 -0.000034  0.000089 -0.000510 -0.000588
                                -0.000783  0.007014  0.012782  0.025648  0.216834  0.369270  0.351848  0.207409  0.059927 -0.072945
                                 0.020918  0.000000 -0.000000  0.000000 -0.000000 -0.000000 -0.000000

   2.4   0     0.2722   -3.7480  0.000000 -0.000001  0.000003 -0.000015  0.000061 -0.000208  0.000618 -0.001621  0.003939 -0.008423
                                 0.019885 -0.054595  0.253840  0.657438 -0.791660 -1.680392  0.547519 -0.852808  1.410328 -0.642100
                                 1.760964  0.000000 -0.000000 -0.000000  0.000000  0.000000  0.000000

   3.4   0     0.9222   -4.5653 -0.000000  0.000002 -0.000010  0.000044 -0.000175  0.000598 -0.001778  0.004668 -0.010938  0.025749
                                -0.057854  0.152327 -0.774606 -2.023854  2.112685  4.777806 -2.400111  2.742652 -1.132657  2.028609
                                -5.527303 -0.000000 -0.000000 -0.000000  0.000000 -0.000000 -0.000000

                                   1 2pz     1 2pz     1 2pz     1 2pz     1 2pz     1 2pz     1 2pz     1 2pz     1 2pz     1 2pz
                                   1 2pz     1 2pz     1 2pz     1 2pz     1 2pz     1 2pz     1 2pz     1 2pz     1 2pz     1 2pz
                                   1 2pz     1 2pz     1 2pz     1 2pz     1 2pz     1 2pz     1 2pz     1 2pz     1 2pz     1 2pz
                                   1 2pz     1 4f0     1 4f2+    1 4f0     1 4f2+    1 4f0     1 4f2+    1 4f0     1 4f2+    1 4f0
                                   1 4f2+    1 4f0     1 4f2+    1 4f0     1 4f2+    1 4f0     1 4f2+    1 4f0     1 4f2+    1 4f0
                                   1 4f2+    1 4f0     1 4f2+    1 4f0     1 4f2+    1 4f0     1 4f2+    1 4f0     1 4f2+    1 4f0
                                   1 4f2+

   1.5   2    -2.7445  -17.6211 -0.000000  0.000000 -0.000000  0.000000 -0.000000  0.000000 -0.000000  0.000000 -0.000001  0.000002
                                -0.000006  0.000018 -0.000050  0.000117 -0.000324  0.000581 -0.001912  0.002452 -0.010112  0.016486
                                 0.058320  1.371340  0.385635  0.391030  0.183540  0.012073  0.002387 -0.000715  0.000227 -1.588175
                                 0.159778 -0.000000  0.000000  0.000000 -0.000000 -0.000000  0.000000  0.000000 -0.000000 -0.000000
                                 0.000000  0.000000 -0.000000 -0.000000  0.000000  0.000000 -0.000000 -0.000000  0.000000  0.000000
                                 0.000000 -0.000000  0.000000  0.000000 -0.000000 -0.000000 -0.000000  0.000000 -0.000000 -0.000000
                                 0.000000

   2.5   0     0.0234   -2.4399  0.000000 -0.000000  0.000000 -0.000000  0.000000 -0.000000  0.000000 -0.000000  0.000000 -0.000001
                                 0.000004 -0.000011  0.000029 -0.000074  0.000181 -0.000403  0.000932 -0.001887  0.004536 -0.010760
                                 0.030922  0.354159 -0.203361 -0.459223  0.108687 -0.088481  0.353388 -0.416059  1.180667 -0.308856
                                 0.457143 -0.000000 -0.000000  0.000000  0.000000 -0.000000 -0.000000  0.000000  0.000000 -0.000000
                                -0.000000  0.000000  0.000000 -0.000000 -0.000000  0.000000  0.000000 -0.000000 -0.000000 -0.000000
                                -0.000000 -0.000000 -0.000000  0.000000  0.000000  0.000000  0.000000  0.000000  0.000000 -0.000000
                                -0.000000

   3.5   0     0.0744   -3.2830 -0.000000  0.000000 -0.000000  0.000000 -0.000000  0.000000 -0.000000  0.000000 -0.000001  0.000003
                                -0.000008  0.000022 -0.000060  0.000152 -0.000360  0.000845 -0.001759  0.004030 -0.008137  0.021102
                                -0.093371 -1.485714  0.421258  1.072165 -0.348677  0.458915 -0.512549  2.004829 -1.421219  1.408177
                                -1.288810 -0.000000  0.000000  0.000000 -0.000000 -0.000000  0.000000  0.000000 -0.000000 -0.000000
                                 0.000000  0.000000 -0.000000 -0.000000 -0.000000  0.000000  0.000000 -0.000000 -0.000000 -0.000001
                                -0.000000 -0.000000 -0.000000  0.000000  0.000000  0.000001  0.000000  0.000000  0.000000 -0.000000
                                -0.000000

                                   1 3d1+    1 3d1+    1 3d1+    1 3d1+    1 3d1+    1 3d1+    1 3d1+    1 3d1+    1 3d1+    1 3d1+
                                   1 3d1+    1 3d1+    1 3d1+    1 3d1+    1 3d1+    1 3d1+    1 3d1+    1 3d1+    1 3d1+    1 3d1+
                                   1 3d1+    1 5g1+    1 5g3+    1 5g1+    1 5g3+    1 5g1+    1 5g3+

   1.6   2    -0.4498  -11.3639 -0.000000  0.000000 -0.000000  0.000001 -0.000003  0.000012 -0.000034  0.000089 -0.000510 -0.000588
                                -0.000783  0.007014  0.012782  0.025648  0.216834  0.369270  0.351848  0.207409  0.059927 -0.072945
                                 0.020918 -0.000000 -0.000000  0.000000 -0.000000  0.000000 -0.000000

   2.6   0     0.2722   -3.7480  0.000000 -0.000001  0.000003 -0.000015  0.000061 -0.000208  0.000618 -0.001621  0.003939 -0.008423
                                 0.019885 -0.054595  0.253840  0.657438 -0.791659 -1.680391  0.547519 -0.852808  1.410328 -0.642100
                                 1.760964  0.000000 -0.000000 -0.000000  0.000000  0.000000 -0.000000

   3.6   0     0.9222   -4.5653 -0.000000  0.000002 -0.000010  0.000044 -0.000175  0.000598 -0.001778  0.004668 -0.010938  0.025749
                                -0.057854  0.152327 -0.774606 -2.023854  2.112685  4.777806 -2.400111  2.742652 -1.132657  2.028609
                                -5.527302  0.000000 -0.000000 -0.000000  0.000000  0.000000 -0.000000

                                   1 3d1-    1 3d1-    1 3d1-    1 3d1-    1 3d1-    1 3d1-    1 3d1-    1 3d1-    1 3d1-    1 3d1-
                                   1 3d1-    1 3d1-    1 3d1-    1 3d1-    1 3d1-    1 3d1-    1 3d1-    1 3d1-    1 3d1-    1 3d1-
                                   1 3d1-    1 5g1-    1 5g3-    1 5g1-    1 5g3-    1 5g1-    1 5g3-

   1.7   2    -0.4498  -11.3639 -0.000000  0.000000 -0.000000  0.000001 -0.000003  0.000012 -0.000034  0.000089 -0.000510 -0.000588
                                -0.000783  0.007014  0.012782  0.025648  0.216834  0.369270  0.351848  0.207409  0.059927 -0.072945
                                 0.020918  0.000000 -0.000000 -0.000000 -0.000000  0.000000 -0.000000

   2.7   0     0.2722   -3.7480  0.000000 -0.000001  0.000003 -0.000015  0.000061 -0.000208  0.000618 -0.001621  0.003939 -0.008423
                                 0.019885 -0.054595  0.253840  0.657438 -0.791659 -1.680391  0.547519 -0.852808  1.410328 -0.642099
                                 1.760964 -0.000000 -0.000000 -0.000000  0.000000  0.000000 -0.000000

   3.7   0     0.9222   -4.5653 -0.000000  0.000002 -0.000010  0.000044 -0.000175  0.000598 -0.001778  0.004668 -0.010938  0.025749
                                -0.057854  0.152327 -0.774606 -2.023853  2.112685  4.777805 -2.400111  2.742652 -1.132657  2.028609
                                -5.527302 -0.000000 -0.000000  0.000000  0.000000 -0.000000 -0.000000

                                   1 4f2-    1 4f2-    1 4f2-    1 4f2-    1 4f2-    1 4f2-    1 4f2-    1 4f2-    1 4f2-    1 4f2-
                                   1 4f2-    1 4f2-    1 4f2-    1 4f2-    1 4f2-

   1.8   0     0.6547   -4.1307  0.000011 -0.000074  0.000346 -0.001241  0.003655 -0.009720  0.025045 -0.074644  0.465554  2.338733
                                 2.094848 -1.329012 -2.389683 -1.447815  1.320278

   2.8   0     1.5360   -4.8215 -0.000022  0.000155 -0.000727  0.002593 -0.007725  0.020171 -0.053298  0.162340 -0.984146 -5.112808
                                -4.779462  2.906120  5.491677  3.957915 -1.042515

 HOMO      4.1    -0.289202 =      -7.8696eV
 LUMO      2.5     0.023403 =       0.6368eV
 LUMO-HOMO         0.312606 =       8.5064eV

 No convergence



 **********************************************************************************************************************************
 DATASETS  * FILE   NREC   LENGTH (MB)   RECORD NAMES
              1      19       20.91       500      610      700      900      950      970     1000      129      960     1100
                                          VAR    BASINP    GEOM    SYMINP    ZMAT    AOBASIS   BASIS     P2S    ABASIS      S
                                         1400     1410     1420     1200     1210     1080     1600     1650     1700
                                           T        V       ECP      H0       H01     AOSYM     SMH    MOLCAS    OPER

              2       5        5.99       200      700     1000      520     4202
                                        OPTIONS   GEOM     BASIS   MCVARS     RHF

 PROGRAMS   *        TOTAL       RHF       INT
 CPU TIMES  *       188.11      5.66    182.03
 REAL TIME  *       196.92 SEC
 DISK USED  *         4.28 GB
 SF USED    *         0.09 MB
 GA USED    *         0.00 MB       (max)       0.00 MB       (current)
 **********************************************************************************************************************************
   -->
   <time start="02:56:03" end="02:59:19" cpu="188.11" system="3.72" real="196.92"/>
   <storage units="megabyte" memory="4097.84" sf="0.09" df="451.03" eaf="3829.35" ga="0.0"/>
  </jobstep><!--
  --><jobstep command="POP" commandset="POP">
   <!--


 PROGRAM * POP (Mulliken population analysis)


 Density matrix read from record         4202.2  Type=RHF/CHARGE (state 1.1)

 Population analysis by basis function type

 Unique atom        s        p        d        f        g    Total    Charge
   1  AU      3.00000  6.00000 10.00000  0.00000  0.00000 19.00000  - 0.00000


 **********************************************************************************************************************************
 DATASETS  * FILE   NREC   LENGTH (MB)   RECORD NAMES
              1      19       20.91       500      610      700      900      950      970     1000      129      960     1100
                                          VAR    BASINP    GEOM    SYMINP    ZMAT    AOBASIS   BASIS     P2S    ABASIS      S
                                         1400     1410     1420     1200     1210     1080     1600     1650     1700
                                           T        V       ECP      H0       H01     AOSYM     SMH    MOLCAS    OPER

              2       5        5.99       200      700     1000      520     4202
                                        OPTIONS   GEOM     BASIS   MCVARS     RHF

 PROGRAMS   *        TOTAL       POP       RHF       INT
 CPU TIMES  *       188.13      0.00      5.66    182.03
 REAL TIME  *       196.94 SEC
 DISK USED  *         4.28 GB
 SF USED    *         0.09 MB
 GA USED    *         0.00 MB       (max)       0.00 MB       (current)
 **********************************************************************************************************************************
   -->
   <time start="02:59:19" end="02:59:19" cpu="0.02" system="0.0" real="0.02"/>
   <storage units="megabyte" memory="4097.84" sf="0.09" df="451.03" eaf="3829.35" ga="0.0"/>
  </jobstep><!--
  --><jobstep command="MULTI" commandset="MULTI">
   <!--


 PROGRAM * MULTI (Direct Multiconfiguration SCF)       Authors: P.J. Knowles, H.-J. Werner (1984)     S.T. Elbert (1988)


 Number of closed-shell orbitals:   9 (   3   1   1   1   1   1   1   0 )
 Number of active  orbitals:        1 (   1   0   0   0   0   0   0   0 )
 Number of external orbitals:     355 (  82  60  60  26  60  26  26  15 )

 State symmetry 1

 Orbital occupancy restrictions for symmetry 1
  1      1       2

 Number of electrons:     1    Spin symmetry=Doublet   Space symmetry=1
 Number of states:        1
 Number of CSFs:          1

 Maximum number of shells:             1
 Maximum number of spin couplings:     1

 Storage for configuration lists       2, coupling coefficients      1, address lists      7

 Molecular orbitals read from record     4202.2  Type=RHF/CANONICAL (state 1.1)
 *** IN SYMMETRY 1 ORBITAL  2 SYMMETRY CONTAMINATION OF 0.368D+00 HAS BEEN REMOVED
 *** IN SYMMETRY 1 ORBITAL  3 SYMMETRY CONTAMINATION OF 0.367D+00 HAS BEEN REMOVED
 *** IN SYMMETRY 1 ORBITAL  4 SYMMETRY CONTAMINATION OF 0.511D-03 HAS BEEN REMOVED

 EXTRA SYMMETRY OF MOS IN SYMMETRY 1:   1 3 2 1 1 1 3 2 1 3   2 4 6 5 3 2 1 3 2 6   5 4 1 3 2 4 6 5 1 2   3 1 3 2 1 2 3 3 2 1
                                        2 3 1 2 3 1 3 2 1 3   2 1 3 2 1 2 3 1 1 3   2 1 2 3 1 3 2 1 3 2   1 1 2 3 1 1 1 1 1 1
                                        1 1 1 1 1 1
 EXTRA SYMMETRY OF MOS IN SYMMETRY 2:   1 1 1 1 2 3 1 3 2 1   3 2 1 2 3 1 3 2 1 2   3 2 3 1 2 3 1 2 3 1   1 2 3 1 3 2 1 3 2 1
                                        2 3 1 1 2 3 1 2 3 1   1 1 1 1 1 1 1 1 1 1   1
 EXTRA SYMMETRY OF MOS IN SYMMETRY 3:   1 1 1 1 2 3 1 2 3 1   3 2 1 2 3 1 2 3 1 2   3 2 3 1 2 3 1 3 2 1   1 3 2 1 3 2 1 3 2 1
                                        3 2 1 1 2 3 1 3 2 1   1 1 1 1 1 1 1 1 1 1   1
 EXTRA SYMMETRY OF MOS IN SYMMETRY 4:   1 1 1 2 3 1 1 2 3 1   2 3 1 1 1 1 1 1 1 1   1 1 1 1 1 1 1
 EXTRA SYMMETRY OF MOS IN SYMMETRY 5:   1 1 1 1 2 3 1 3 2 1   2 3 1 2 3 1 3 2 1 3   2 3 2 1 2 3 1 2 3 1   1 2 3 1 2 3 1 2 3 1
                                        2 3 1 1 3 2 1 2 3 1   1 1 1 1 1 1 1 1 1 1   1
 EXTRA SYMMETRY OF MOS IN SYMMETRY 6:   1 1 1 3 2 1 1 3 2 1   2 3 1 1 1 1 1 1 1 1   1 1 1 1 1 1 1
 EXTRA SYMMETRY OF MOS IN SYMMETRY 7:   1 1 1 2 3 1 1 2 3 1   2 3 1 1 1 1 1 1 1 1   1 1 1 1 1 1 1

 Wavefunction dump at record             5202.2

 Convergence thresholds  0.10E-01 (gradient)  0.10E-05 (energy)  0.10E-02 (step length)

 Number of orbital rotations:      589   (     3 Core/Active    504 Core/Virtual   0 Active/Active     82 Active/Virtual)
 Total number of variables:        590


 ITER. MIC  NCI  NEG     ENERGY(VAR)     ENERGY(PROJ)   ENERGY CHANGE     GRAD(0)  GRAD(ORB)   GRAD(CI)     STEP       TIME

   1   23    4    0    -135.17539525    -135.17539527   -0.00000001    0.00040420 0.00000000 0.00000000  0.18D-03      1.47

 ** WVFN ****  CONVERGENCE REACHED, FINAL GRADIENT:  0.20D-08


 First order charge density matrix for state 1.1 saved on record  5202.2 (density set 1)

 Results for state 1.1
 =====================

 !MCSCF STATE 1.1 Energy             -135.175395268338
   --><property name="Energy" method="MCSCF" principal="true" stateSymmetry="1" stateNumber="1"
     value="-135.175395268338"/><!--
 Nuclear energy                         0.00000000
 Kinetic energy                        44.37640686
 One electron energy                 -239.73132070
 Two electron energy                  104.55592543
 Virial ratio                           4.04610952

 !MCSCF STATE 1.1 Dipole moment         0.00000000     0.00000000     0.00000000
 Dipole moment /Debye                   0.00000000     0.00000000     0.00000000
   --><property name="Dipole moment" method="MCSCF" principal="true" stateSymmetry="1"
     stateNumber="1" value="0.0 0.0 0.0"/><!--


 NATURAL ORBITALS
 ================

   Orb     Occ        Energy       Coefficients

                                   1 1s      1 1s      1 1s      1 1s      1 1s      1 1s      1 1s      1 1s      1 1s      1 1s
                                   1 1s      1 1s      1 1s      1 1s      1 1s      1 1s      1 1s      1 1s      1 1s      1 1s
                                   1 1s      1 1s      1 1s      1 1s      1 1s      1 1s      1 1s      1 1s      1 1s      1 1s
                                   1 1s      1 1s      1 1s      1 1s      1 1s      1 3d0     1 3d2+    1 3d0     1 3d2+    1 3d0
                                   1 3d2+    1 3d0     1 3d2+    1 3d0     1 3d2+    1 3d0     1 3d2+    1 3d0     1 3d2+    1 3d0
                                   1 3d2+    1 3d0     1 3d2+    1 3d0     1 3d2+    1 3d0     1 3d2+    1 3d0     1 3d2+    1 3d0
                                   1 3d2+    1 3d0     1 3d2+    1 3d0     1 3d2+    1 3d0     1 3d2+    1 3d0     1 3d2+    1 3d0
                                   1 3d2+    1 3d0     1 3d2+    1 3d0     1 3d2+    1 3d0     1 3d2+    1 5g0     1 5g4+    1 5g2+
                                   1 5g0     1 5g4+    1 5g2+    1 5g0     1 5g4+    1 5g2+

   1.1  2.00000    -4.682421     0.000000 -0.000000  0.000000 -0.000000  0.000000 -0.000000  0.000000 -0.000000  0.000000 -0.000000
                                 0.000000 -0.000001  0.000003 -0.000009  0.000023 -0.000059  0.000149 -0.000372  0.000935 -0.002231
                                 0.005447 -0.012235  0.028803 -0.073328  0.175130  0.117202  1.223715  0.330467  0.414613  0.050752
                                -0.016543  0.006927 -0.001784 -1.840357  0.403755  0.000000  0.000000  0.000000  0.000000  0.000000
                                 0.000000  0.000000  0.000000  0.000000  0.000000  0.000000  0.000000  0.000000  0.000000  0.000000
                                 0.000000  0.000000  0.000000  0.000000  0.000000  0.000000  0.000000  0.000000  0.000000  0.000000
                                 0.000000  0.000000  0.000000  0.000000  0.000000  0.000000  0.000000  0.000000  0.000000  0.000000
                                 0.000000  0.000000  0.000000  0.000000  0.000000  0.000000  0.000000  0.000000  0.000000  0.000000
                                 0.000000  0.000000  0.000000  0.000000  0.000000  0.000000

   2.1  2.00000    -0.449810     0.000000  0.000000  0.000000  0.000000  0.000000  0.000000  0.000000  0.000000  0.000000  0.000000
                                 0.000000  0.000000  0.000000  0.000000  0.000000  0.000000  0.000000  0.000000  0.000000  0.000000
                                 0.000000  0.000000  0.000000  0.000000  0.000000  0.000000  0.000000  0.000000  0.000000  0.000000
                                 0.000000  0.000000  0.000000  0.000000  0.000000  0.000000  0.000000 -0.000000  0.000000  0.000000
                                 0.000000 -0.000001  0.000000  0.000003  0.000000 -0.000012  0.000000  0.000034  0.000000 -0.000089
                                 0.000000  0.000510  0.000000  0.000588  0.000000  0.000783  0.000000 -0.007015  0.000000 -0.012781
                                 0.000000 -0.025646  0.000000 -0.216837  0.000000 -0.369278  0.000000 -0.351847  0.000000 -0.207413
                                 0.000000 -0.059915  0.000000  0.072943  0.000000 -0.020910  0.000000  0.000000  0.000000  0.000000
                                 0.000000  0.000000  0.000000  0.000000  0.000000  0.000000

   3.1  2.00000    -0.449810     0.000000  0.000000  0.000000  0.000000  0.000000  0.000000  0.000000  0.000000  0.000000  0.000000
                                 0.000000  0.000000  0.000000  0.000000  0.000000  0.000000  0.000000  0.000000  0.000000  0.000000
                                 0.000000  0.000000  0.000000  0.000000  0.000000  0.000000  0.000000  0.000000  0.000000  0.000000
                                 0.000000  0.000000  0.000000  0.000000  0.000000  0.000000 -0.000000  0.000000  0.000000  0.000000
                                -0.000000  0.000000  0.000001  0.000000 -0.000003  0.000000  0.000012  0.000000 -0.000034  0.000000
                                 0.000089  0.000000 -0.000510  0.000000 -0.000588  0.000000 -0.000783  0.000000  0.007015  0.000000
                                 0.012781  0.000000  0.025646  0.000000  0.216837  0.000000  0.369278  0.000000  0.351847  0.000000
                                 0.207413  0.000000  0.059915  0.000000 -0.072943  0.000000  0.020910  0.000000  0.000000  0.000000
                                 0.000000  0.000000  0.000000  0.000000  0.000000  0.000000

   4.1  1.00000    -0.141996    -0.000000  0.000000 -0.000000  0.000000 -0.000000  0.000000 -0.000000  0.000000 -0.000000  0.000000
                                -0.000000  0.000001 -0.000001  0.000003 -0.000009  0.000022 -0.000057  0.000141 -0.000355  0.000850
                                -0.002079  0.004705 -0.011197  0.029362 -0.079477  0.061739 -0.397936 -0.162933 -0.293801  0.174499
                                 0.646023  0.365055  0.012723  0.504647 -0.158731  0.000000  0.000000  0.000000  0.000000  0.000000
                                 0.000000  0.000000  0.000000  0.000000  0.000000  0.000000  0.000000  0.000000  0.000000  0.000000
                                 0.000000  0.000000  0.000000  0.000000  0.000000  0.000000  0.000000  0.000000  0.000000  0.000000
                                 0.000000  0.000000  0.000000  0.000000  0.000000  0.000000  0.000000  0.000000  0.000000  0.000000
                                 0.000000  0.000000  0.000000  0.000000  0.000000  0.000000  0.000000  0.000000  0.000000  0.000000
                                 0.000000  0.000000  0.000000  0.000000  0.000000  0.000000

                                   1 2px     1 2px     1 2px     1 2px     1 2px     1 2px     1 2px     1 2px     1 2px     1 2px
                                   1 2px     1 2px     1 2px     1 2px     1 2px     1 2px     1 2px     1 2px     1 2px     1 2px
                                   1 2px     1 2px     1 2px     1 2px     1 2px     1 2px     1 2px     1 2px     1 2px     1 2px
                                   1 2px     1 4f1+    1 4f3+    1 4f1+    1 4f3+    1 4f1+    1 4f3+    1 4f1+    1 4f3+    1 4f1+
                                   1 4f3+    1 4f1+    1 4f3+    1 4f1+    1 4f3+    1 4f1+    1 4f3+    1 4f1+    1 4f3+    1 4f1+
                                   1 4f3+    1 4f1+    1 4f3+    1 4f1+    1 4f3+    1 4f1+    1 4f3+    1 4f1+    1 4f3+    1 4f1+
                                   1 4f3+

   1.2  2.00000    -2.744558    -0.000000  0.000000 -0.000000  0.000000 -0.000000  0.000000 -0.000000  0.000000 -0.000001  0.000002
                                -0.000006  0.000018 -0.000050  0.000117 -0.000324  0.000581 -0.001912  0.002452 -0.010111  0.016486
                                 0.058320  1.371345  0.385633  0.391031  0.183541  0.012073  0.002386 -0.000715  0.000227 -1.588179
                                 0.159778  0.000000  0.000000  0.000000  0.000000  0.000000  0.000000  0.000000  0.000000  0.000000
                                 0.000000  0.000000  0.000000  0.000000  0.000000  0.000000  0.000000  0.000000  0.000000  0.000000
                                 0.000000  0.000000  0.000000  0.000000  0.000000  0.000000  0.000000  0.000000  0.000000  0.000000
                                 0.000000

                                   1 2py     1 2py     1 2py     1 2py     1 2py     1 2py     1 2py     1 2py     1 2py     1 2py
                                   1 2py     1 2py     1 2py     1 2py     1 2py     1 2py     1 2py     1 2py     1 2py     1 2py
                                   1 2py     1 2py     1 2py     1 2py     1 2py     1 2py     1 2py     1 2py     1 2py     1 2py
                                   1 2py     1 4f1-    1 4f3-    1 4f1-    1 4f3-    1 4f1-    1 4f3-    1 4f1-    1 4f3-    1 4f1-
                                   1 4f3-    1 4f1-    1 4f3-    1 4f1-    1 4f3-    1 4f1-    1 4f3-    1 4f1-    1 4f3-    1 4f1-
                                   1 4f3-    1 4f1-    1 4f3-    1 4f1-    1 4f3-    1 4f1-    1 4f3-    1 4f1-    1 4f3-    1 4f1-
                                   1 4f3-

   1.3  2.00000    -2.744558    -0.000000  0.000000 -0.000000  0.000000 -0.000000  0.000000 -0.000000  0.000000 -0.000001  0.000002
                                -0.000006  0.000018 -0.000050  0.000117 -0.000324  0.000581 -0.001912  0.002452 -0.010111  0.016486
                                 0.058320  1.371345  0.385633  0.391031  0.183541  0.012073  0.002386 -0.000715  0.000227 -1.588179
                                 0.159778  0.000000  0.000000  0.000000  0.000000  0.000000  0.000000  0.000000  0.000000  0.000000
                                 0.000000  0.000000  0.000000  0.000000  0.000000  0.000000  0.000000  0.000000  0.000000  0.000000
                                 0.000000  0.000000  0.000000  0.000000  0.000000  0.000000  0.000000  0.000000  0.000000  0.000000
                                 0.000000

                                   1 3d2-    1 3d2-    1 3d2-    1 3d2-    1 3d2-    1 3d2-    1 3d2-    1 3d2-    1 3d2-    1 3d2-
                                   1 3d2-    1 3d2-    1 3d2-    1 3d2-    1 3d2-    1 3d2-    1 3d2-    1 3d2-    1 3d2-    1 3d2-
                                   1 3d2-    1 5g2-    1 5g4-    1 5g2-    1 5g4-    1 5g2-    1 5g4-

   1.4  2.00000    -0.449810    -0.000000  0.000000 -0.000000  0.000001 -0.000003  0.000012 -0.000034  0.000089 -0.000510 -0.000588
                                -0.000783  0.007015  0.012781  0.025646  0.216837  0.369278  0.351847  0.207413  0.059915 -0.072943
                                 0.020910  0.000000  0.000000  0.000000  0.000000  0.000000  0.000000

                                   1 2pz     1 2pz     1 2pz     1 2pz     1 2pz     1 2pz     1 2pz     1 2pz     1 2pz     1 2pz
                                   1 2pz     1 2pz     1 2pz     1 2pz     1 2pz     1 2pz     1 2pz     1 2pz     1 2pz     1 2pz
                                   1 2pz     1 2pz     1 2pz     1 2pz     1 2pz     1 2pz     1 2pz     1 2pz     1 2pz     1 2pz
                                   1 2pz     1 4f0     1 4f2+    1 4f0     1 4f2+    1 4f0     1 4f2+    1 4f0     1 4f2+    1 4f0
                                   1 4f2+    1 4f0     1 4f2+    1 4f0     1 4f2+    1 4f0     1 4f2+    1 4f0     1 4f2+    1 4f0
                                   1 4f2+    1 4f0     1 4f2+    1 4f0     1 4f2+    1 4f0     1 4f2+    1 4f0     1 4f2+    1 4f0
                                   1 4f2+

   1.5  2.00000    -2.744558    -0.000000  0.000000 -0.000000  0.000000 -0.000000  0.000000 -0.000000  0.000000 -0.000001  0.000002
                                -0.000006  0.000018 -0.000050  0.000117 -0.000324  0.000581 -0.001912  0.002452 -0.010111  0.016486
                                 0.058320  1.371345  0.385633  0.391031  0.183541  0.012073  0.002386 -0.000715  0.000227 -1.588179
                                 0.159778  0.000000  0.000000  0.000000  0.000000  0.000000  0.000000  0.000000  0.000000  0.000000
                                 0.000000  0.000000  0.000000  0.000000  0.000000  0.000000  0.000000  0.000000  0.000000  0.000000
                                 0.000000  0.000000  0.000000  0.000000  0.000000  0.000000  0.000000  0.000000  0.000000  0.000000
                                 0.000000

                                   1 3d1+    1 3d1+    1 3d1+    1 3d1+    1 3d1+    1 3d1+    1 3d1+    1 3d1+    1 3d1+    1 3d1+
                                   1 3d1+    1 3d1+    1 3d1+    1 3d1+    1 3d1+    1 3d1+    1 3d1+    1 3d1+    1 3d1+    1 3d1+
                                   1 3d1+    1 5g1+    1 5g3+    1 5g1+    1 5g3+    1 5g1+    1 5g3+

   1.6  2.00000    -0.449810    -0.000000  0.000000 -0.000000  0.000001 -0.000003  0.000012 -0.000034  0.000089 -0.000510 -0.000588
                                -0.000783  0.007015  0.012781  0.025646  0.216837  0.369278  0.351847  0.207413  0.059915 -0.072943
                                 0.020910  0.000000  0.000000  0.000000  0.000000  0.000000  0.000000

                                   1 3d1-    1 3d1-    1 3d1-    1 3d1-    1 3d1-    1 3d1-    1 3d1-    1 3d1-    1 3d1-    1 3d1-
                                   1 3d1-    1 3d1-    1 3d1-    1 3d1-    1 3d1-    1 3d1-    1 3d1-    1 3d1-    1 3d1-    1 3d1-
                                   1 3d1-    1 5g1-    1 5g3-    1 5g1-    1 5g3-    1 5g1-    1 5g3-

   1.7  2.00000    -0.449810    -0.000000  0.000000 -0.000000  0.000001 -0.000003  0.000012 -0.000034  0.000089 -0.000510 -0.000588
                                -0.000783  0.007015  0.012781  0.025646  0.216837  0.369278  0.351847  0.207413  0.059915 -0.072943
                                 0.020910  0.000000  0.000000  0.000000  0.000000  0.000000  0.000000


 EXTRA SYMMETRY OF MOS IN SYMMETRY 1:   1 2 3 1 1 1 2 3 1 3   2 4 5 6 3 2 1 2 3 6   5 4 1 2 3 5 6 4 1 3   2 1 3 2 1 3 2 3 2 1
                                        3 2 1 2 3 1 3 2 1 2   3 1 2 3 1 3 2 1 1 3   2 1 2 3 1 2 3 1 2 3   1 1 2 3 1 1 1 1 1 1
                                        1 1 1 1 1 1
 EXTRA SYMMETRY OF MOS IN SYMMETRY 2:   1 1 1 1 2 3 1 2 3 1   3 2 1 3 2 1 3 2 1 2   3 2 3 1 2 3 1 3 2 1   1 3 2 1 3 2 1 3 2 1
                                        3 2 1 1 2 3 1 3 2 1   1 1 1 1 1 1 1 1 1 1   1
 EXTRA SYMMETRY OF MOS IN SYMMETRY 3:   1 1 1 1 2 3 1 3 2 1   3 2 1 3 2 1 3 2 1 2   3 2 3 1 2 3 1 2 3 1   1 2 3 1 3 2 1 3 2 1
                                        3 2 1 1 2 3 1 3 2 1   1 1 1 1 1 1 1 1 1 1   1
 EXTRA SYMMETRY OF MOS IN SYMMETRY 4:   1 1 1 3 2 1 1 3 2 1   3 2 1 1 1 1 1 1 1 1   1 1 1 1 1 1 1
 EXTRA SYMMETRY OF MOS IN SYMMETRY 5:   1 1 1 1 3 2 1 2 3 1   3 2 1 3 2 1 3 2 1 3   2 2 3 1 2 3 1 2 3 1   1 2 3 1 2 3 1 2 3 1
                                        2 3 1 1 2 3 1 3 2 1   1 1 1 1 1 1 1 1 1 1   1
 EXTRA SYMMETRY OF MOS IN SYMMETRY 6:   1 1 1 3 2 1 1 3 2 1   3 2 1 1 1 1 1 1 1 1   1 1 1 1 1 1 1
 EXTRA SYMMETRY OF MOS IN SYMMETRY 7:   1 1 1 3 2 1 1 3 2 1   3 2 1 1 1 1 1 1 1 1   1 1 1 1 1 1 1

 Natural orbital dump at molpro section  5202.2    (Orbital set 2)


 CI vector
 =========

 /             1.0000000


 **********************************************************************************************************************************
 DATASETS  * FILE   NREC   LENGTH (MB)   RECORD NAMES
              1      20       32.94       500      610      700      900      950      970     1000      129      960     1100
                                          VAR    BASINP    GEOM    SYMINP    ZMAT    AOBASIS   BASIS     P2S    ABASIS      S
                                         1400     1410     1420     1200     1210     1080     1600     1650     1700     1380
                                           T        V       ECP      H0       H01     AOSYM     SMH    MOLCAS    OPER     JKOP

              2       6        9.24       200      700     1000      520     4202     5202
                                        OPTIONS   GEOM     BASIS   MCVARS     RHF     MCSCF

 PROGRAMS   *        TOTAL     MULTI       POP       RHF       INT
 CPU TIMES  *       192.09      3.96      0.00      5.66    182.03
 REAL TIME  *       201.16 SEC
 DISK USED  *         4.28 GB
 SF USED    *        51.48 MB
 GA USED    *         0.00 MB       (max)       0.00 MB       (current)
 **********************************************************************************************************************************
   -->
   <time start="02:59:19" end="02:59:23" cpu="3.96" system="0.16" real="4.22"/>
   <storage units="megabyte" memory="4097.84" sf="51.48" df="451.03" eaf="3829.35" ga="0.0"/>
  </jobstep><!--
  --><jobstep command="RHF-SCF" commandset="SCFPRO">
   <!--


 PROGRAM * RHF-SCF (OPEN SHELL)       Authors: W. Meyer, H.-J. Werner


 NUMBER OF ELECTRONS:      10+    9-    SPACE SYMMETRY=1    SPIN SYMMETRY: Doublet
 CONVERGENCE THRESHOLDS:    1.00E-05 (Density)    1.00E-07 (Energy)
 MAX. NUMBER OF ITERATIONS:        0
 INTERPOLATION TYPE:            DIIS
 INTERPOLATION STEPS:              2 (START)      1 (STEP)
 LEVEL SHIFTS:                 -0.60 (CLOSED) -0.30 (OPEN)


 Singly occupied orbitals:      4.1
 Molecular orbitals read from record     5202.2  Type=MCSCF/NATURAL (state 1.1)

 Molecular orbital dump at record        2103.2

 ITERATION    DDIFF          GRAD             ENERGY        2-EL.EN.            DIPOLE MOMENTS         DIIS   ORB.
    1      0.000D+00      0.000D+00      -135.17539527    209.111851    0.00000    0.00000    0.00000    0    start

 Final alpha occupancy:   4   1   1   1   1   1   1   0
 Final beta  occupancy:   3   1   1   1   1   1   1   0

 !RHF STATE 1.1 Energy               -135.175395268337
   --><property name="Energy" method="RHF" principal="true" stateSymmetry="1" stateNumber="1"
     value="-135.175395268337"/><!--
 Nuclear energy                         0.00000000
 One-electron energy                 -239.73132070
 Two-electron energy                  104.55592543
 Virial quotient                       -3.04610952
 !RHF STATE 1.1 Dipole moment           0.00000000     0.00000000     0.00000000
 Dipole moment /Debye                   0.00000000     0.00000000     0.00000000
   --><property name="Dipole moment" method="RHF" principal="true" stateSymmetry="1"
     stateNumber="1" value="0.0 0.0 0.0"/><!--

 Orbital energies:

         1.1          2.1          3.1          4.1          5.1          6.1
     -4.682421    -0.449810    -0.449810    -0.141996     0.041562     0.227247

         1.2          2.2          3.2
     -2.744558     0.026780     0.086318

         1.3          2.3          3.3
     -2.744558     0.026780     0.086317

         1.4          2.4          3.4
     -0.449810     0.277098     0.929873

         1.5          2.5          3.5
     -2.744558     0.026780     0.086318

         1.6          2.6          3.6
     -0.449810     0.277098     0.929873

         1.7          2.7          3.7
     -0.449810     0.277098     0.929873

         1.8          2.8
      0.661923     1.541707

 HOMO      4.1    -0.141996 =      -3.8639eV
 LUMO      2.3     0.026780 =       0.7287eV
 LUMO-HOMO         0.168776 =       4.5926eV


 **********************************************************************************************************************************
 DATASETS  * FILE   NREC   LENGTH (MB)   RECORD NAMES
              1      20       32.94       500      610      700      900      950      970     1000      129      960     1100
                                          VAR    BASINP    GEOM    SYMINP    ZMAT    AOBASIS   BASIS     P2S    ABASIS      S
                                         1400     1410     1420     1200     1210     1080     1600     1650     1700     1380
                                           T        V       ECP      H0       H01     AOSYM     SMH    MOLCAS    OPER     JKOP

              2       7       12.43       200      700     1000      520     4202     5202     2103
                                        OPTIONS   GEOM     BASIS   MCVARS     RHF     MCSCF     RHF

 PROGRAMS   *        TOTAL       RHF     MULTI       POP       RHF       INT
 CPU TIMES  *       192.39      0.29      3.96      0.00      5.66    182.03
 REAL TIME  *       201.49 SEC
 DISK USED  *         4.28 GB
 SF USED    *        51.48 MB
 GA USED    *         0.00 MB       (max)       0.00 MB       (current)
 **********************************************************************************************************************************
   -->
   <time start="02:59:23" end="02:59:23" cpu="0.3" system="0.01" real="0.33"/>
   <storage units="megabyte" memory="4097.84" sf="51.48" df="451.03" eaf="3829.35" ga="0.0"/>
  </jobstep><!--
 SETTING SCF(1)         =      -135.17539527  AU
 SETTING _CC_NORM_MAX   =         2.00000000
  --><jobstep command="RCCSD(T)" commandset="CCSD">
   <!--


 PROGRAM * CCSD (Restricted open-shell coupled cluster)     Authors: C. Hampel, H.-J. Werner, 1991, M. Deegan, P.J. Knowles, 1992


 Convergence thresholds:  THRVAR = 1.00D-08  THRDEN = 1.00D-06

 CCSD(T)     terms to be evaluated (factor= 1.000)


 Number of closed-shell orbitals:   9 (   3   1   1   1   1   1   1   0 )
 Number of active  orbitals:        1 (   1   0   0   0   0   0   0   0 )
 Number of external orbitals:     355 (  82  60  60  26  60  26  26  15 )

 Memory could be reduced to 104.31 Mwords without degradation in triples

 Number of N-1 electron functions:              19
 Number of N-2 electron functions:             171
 Number of singly external CSFs:              1097
 Number of doubly external CSFs:           2120319
 Total number of CSFs:                     2121416

 Molecular orbitals read from record     2103.2  Type=RHF/CANONICAL (state 1.1)

 Integral transformation finished. Total CPU:   7.44 sec, npass=  1  Memory used:  18.50 MW

 Starting RMP2 calculation

 Wavefunction is spin-projected

 ITER.      SQ.NORM     CORR.ENERGY   TOTAL ENERGY   ENERGY CHANGE        DEN1      VAR(S)    VAR(P)  DIIS     TIME
   1      1.14038734    -0.73486411  -135.91025938    -0.73486411    -0.00140500  0.33D-05  0.54D-03  1  1     9.54
   2      1.14164457    -0.73635002  -135.91174529    -0.00148591    -0.00000339  0.24D-07  0.21D-05  2  2    10.98
   3      1.14170989    -0.73639065  -135.91178591    -0.00004062    -0.00000001  0.83D-10  0.68D-08  3  3    12.58
   4      1.14171146    -0.73639100  -135.91178627    -0.00000035    -0.00000000  0.15D-12  0.25D-10  4  4    14.44

 Norm of t1 vector:      0.01621791      S-energy:    -0.00044187      T1 diagnostic:  0.00001109
 Norm of t2 vector:      0.37609632      P-energy:    -0.73594913
                                         Alpha-Beta:  -0.50541819
                                         Alpha-Alpha: -0.12665562
                                         Beta-Beta:   -0.10387532

 Spin contamination <S**2-Sz**2-Sz>     0.00000000
  Reference energy                   -135.175395268338
   --><property name="energy" method="Reference" stateSymmetry="1" stateNumber="1"
     value="-135.175395268338"/><!--
  RHF-RMP2 correlation energy          -0.736390998969
   --><property name="energy" method="RHF-RMP2 correlation" stateSymmetry="1" stateNumber="1"
     value="-0.736390998969018"/><!--
 !RHF-RMP2 energy                    -135.911786267307
   --><property name="energy" method="RHF-RMP2" principal="true" stateSymmetry="1"
     stateNumber="1" value="-135.911786267307"/><!--
 (NB above energy spin projected)

 Starting RCCSD calculation

 ITER.      SQ.NORM     CORR.ENERGY   TOTAL ENERGY   ENERGY CHANGE        DEN1      VAR(S)    VAR(P)  DIIS     TIME
   1      1.11597622    -0.68067397  -135.85606923    -0.68067397    -0.01443889  0.25D-02  0.23D-02  1  1    18.57
   2      1.12469376    -0.69353643  -135.86893170    -0.01286247    -0.00080580  0.25D-03  0.23D-03  2  2    22.27
   3      1.12774365    -0.69445270  -135.86984797    -0.00091627    -0.00010493  0.93D-04  0.13D-04  3  3    25.88
   4      1.12951430    -0.69500095  -135.87039621    -0.00054825    -0.00001327  0.12D-04  0.20D-05  4  4    29.67
   5      1.13025135    -0.69516721  -135.87056248    -0.00016627    -0.00000098  0.87D-06  0.17D-06  5  5    33.41
   6      1.13040907    -0.69518496  -135.87058022    -0.00001774    -0.00000004  0.37D-07  0.85D-08  6  6    37.07
   7      1.13043710    -0.69518941  -135.87058468    -0.00000445    -0.00000000  0.13D-08  0.72D-09  6  1    40.50
   8      1.13043898    -0.69518952  -135.87058479    -0.00000011    -0.00000000  0.88D-10  0.61D-10  6  2    44.38

 Norm of t1 vector:      0.08590187      S-energy:    -0.00050193      T1 diagnostic:  0.01363799
                                                                       D1 diagnostic:  0.04976073
 Norm of t2 vector:      0.35079887      P-energy:    -0.69468759
                                         Alpha-Beta:  -0.49529648
                                         Alpha-Alpha: -0.10939634
                                         Beta-Beta:   -0.08999477

 Singles amplitudes (print threshold =  0.500E-01):

         I         SYM. A    A   T(IA) [Alpha-Alpha]

         4         1         3     -0.05266038

 Spin contamination <S**2-Sz**2-Sz>     0.00000000

 Memory could be reduced to 106.18 Mwords without degradation in triples


  Correlated core orbitals:             1.1       1.2       1.3       1.5
  Orbital energies:                    -4.6882   -2.7482   -2.7482   -2.7482

  RCCSD core-core energy               -0.101426036084
   --><property name="core-core energy" method="RCCSD" stateSymmetry="1" stateNumber="1"
     value="-0.101426036084447"/><!--
  RCCSD core-valence energy            -0.227134170917
   --><property name="core-valence energy" method="RCCSD" stateSymmetry="1" stateNumber="1"
     value="-0.227134170917174"/><!--
  RCCSD valence correlation energy     -0.366629314307
   --><property name="valence correlation energy" method="RCCSD" stateSymmetry="1"
     stateNumber="1" value="-0.366629314307077"/><!--


 RESULTS
 =======

  Reference energy                   -135.175395268338
   --><property name="energy" method="Reference" stateSymmetry="1" stateNumber="1"
     value="-135.175395268338"/><!--
  RCCSD singles energy                 -0.000501928473
   --><property name="energy" method="RCCSD singles" stateSymmetry="1" stateNumber="1"
     value="-0.501928473212065E-03"/><!--
  RCCSD pair energy                    -0.694687592835
   --><property name="energy" method="RCCSD pair" stateSymmetry="1" stateNumber="1"
     value="-0.694687592835486"/><!--
  RCCSD correlation energy             -0.695189521309
   --><property name="energy" method="RCCSD correlation" stateSymmetry="1" stateNumber="1"
     value="-0.695189521308698"/><!--
  Triples (T) contribution             -0.026835338718
   --><property name="contribution" method="Triples (T)" stateSymmetry="1" stateNumber="1"
     value="-0.268353387176505E-01"/><!--
  Total correlation energy             -0.722024860026
   --><property name="energy" method="Total correlation" stateSymmetry="1" stateNumber="1"
     value="-0.722024860026348"/><!--

  RHF-RCCSD energy                   -135.870584789647
   --><property name="energy" method="RHF-RCCSD" stateSymmetry="1" stateNumber="1"
     value="-135.870584789647"/><!--
  RHF-RCCSD[T] energy                -135.898094226225
   --><property name="energy" method="RHF-RCCSD[T]" stateSymmetry="1" stateNumber="1"
     value="-135.898094226225"/><!--
  RHF-RCCSD-T energy                 -135.897231277294
   --><property name="energy" method="RHF-RCCSD-T" stateSymmetry="1" stateNumber="1"
     value="-135.897231277294"/><!--
 !RHF-RCCSD(T) energy                -135.897420128364
   --><property name="energy" method="RHF-RCCSD(T)" principal="true" stateSymmetry="1"
     stateNumber="1" value="-135.897420128364"/><!--

 Program statistics:

 Available memory in ccsd:               511999000
 Min. memory needed in ccsd:               6270096
 Max. memory used in ccsd:                 8856394
 Max. memory used in cckext:               6831890 ( 8 integral passes)
 Max. memory used in cckint:              18500488 ( 1 integral passes)



 **********************************************************************************************************************************
 DATASETS  * FILE   NREC   LENGTH (MB)   RECORD NAMES
              1      20       32.94       500      610      700      900      950      970     1000      129      960     1100
                                          VAR    BASINP    GEOM    SYMINP    ZMAT    AOBASIS   BASIS     P2S    ABASIS      S
                                         1400     1410     1420     1200     1210     1080     1600     1650     1700     1380
                                           T        V       ECP      H0       H01     AOSYM     SMH    MOLCAS    OPER     JKOP

              2       7       12.43       200      700     1000      520     4202     5202     2103
                                        OPTIONS   GEOM     BASIS   MCVARS     RHF     MCSCF     RHF

 PROGRAMS   *        TOTAL  RCCSD(T)       RHF     MULTI       POP       RHF       INT
 CPU TIMES  *       289.47     97.07      0.29      3.96      0.00      5.66    182.03
 REAL TIME  *       305.32 SEC
 DISK USED  *         8.50 GB
 SF USED    *         1.62 GB
 GA USED    *         0.00 MB       (max)       0.00 MB       (current)
 **********************************************************************************************************************************
   -->
   <time start="02:59:23" end="03:01:07" cpu="97.08" system="4.94" real="103.83"/>
   <storage units="megabyte" memory="4097.84" sf="1618.03" df="4671.51" eaf="3829.35"
     ga="0.0"/>
  </jobstep><!--
 SETTING CCSD(1)        =      -135.89742013  AU

 DO I                   =         2.00000000

 Running procedure=AS2DTEN
  --><jobstep command="RHF-SCF" commandset="SCFPRO">
   <!--


 PROGRAM * RHF-SCF (CLOSED SHELL)       Authors: W. Meyer, H.-J. Werner


 NUMBER OF ELECTRONS:      10+   10-    SPACE SYMMETRY=1    SPIN SYMMETRY: Singlet
 CONVERGENCE THRESHOLDS:    1.00E-05 (Density)    1.00E-07 (Energy)
 MAX. NUMBER OF ITERATIONS:       60
 INTERPOLATION TYPE:            DIIS
 INTERPOLATION STEPS:              2 (START)      1 (STEP)
 LEVEL SHIFTS:                  0.00 (CLOSED)  0.00 (OPEN)

 Number of closed-shell orbitals:   10 (   4   1   1   1   1   1   1   0 )



 Extra symmetries of mos in symmetry 1:   1   3   2   1
 Orbital guess generated from atomic densities. Full valence occupancy:    4   1   1   1   1   1   1   0


 Molecular orbital dump at record        2114.2

 ITERATION    DDIFF          GRAD             ENERGY        2-EL.EN.            DIPOLE MOMENTS         DIIS   ORB.
    1      0.000D+00      0.000D+00      -135.05743961    228.831003    0.00000    0.00000    0.00000    0    start
    2      0.000D+00      0.173D-01      -135.09606405    210.836656    0.00000    0.00000    0.00000    1    diag
    3      0.160D-01      0.172D-01      -135.19699084    218.679764    0.00000    0.00000    0.00000    2    diag
    4      0.767D-02      0.648D-03      -135.19840887    218.428805    0.00000    0.00000    0.00000    3    diag
    5      0.155D-02      0.284D-03      -135.19877322    218.274398    0.00000    0.00000    0.00000    4    diag
    6      0.119D-02      0.928D-04      -135.19878732    218.211676    0.00000    0.00000    0.00000    5    diag
    7      0.476D-03      0.530D-04      -135.19878814    218.208105    0.00000    0.00000    0.00000    6    diag
    8      0.937D-04      0.251D-04      -135.19878844    218.204396    0.00000    0.00000    0.00000    7    diag
    9      0.139D-03      0.109D-04      -135.19878752    218.199504    0.00000    0.00000    0.00000    8    diag
   10      0.222D-03      0.600D-04      -135.19878822    218.202234    0.00000    0.00000    0.00000    9    orth
   11      0.170D-03      0.207D-04      -135.19878790    218.202053    0.00000    0.00000    0.00000    9    diag
   12      0.365D-04      0.400D-04      -135.19878846    218.202651    0.00000    0.00000    0.00000    9    diag
   13      0.113D-03      0.436D-04      -135.19878817    218.202486    0.00000    0.00000    0.00000    9    diag
   14      0.990D-04      0.292D-04      -135.19878825    218.203422    0.00000    0.00000    0.00000    9    diag
   15      0.325D-04      0.287D-04      -135.19878835    218.203315    0.00000    0.00000    0.00000    9    diag
   16      0.504D-04      0.600D-04      -135.19878820    218.204013    0.00000    0.00000    0.00000    9    diag
   17      0.110D-03      0.222D-04      -135.19878833    218.202689    0.00000    0.00000    0.00000    9    diag
   18      0.597D-04      0.267D-04      -135.19878854    218.202669    0.00000    0.00000    0.00000    9    diag
   19      0.916D-04      0.394D-04      -135.19878833    218.203658    0.00000    0.00000    0.00000    9    fixocc
   20      0.145D-04      0.403D-04      -135.19878856    218.203516    0.00000    0.00000    0.00000    9    orth
   21      0.156D-04      0.263D-04      -135.19878858    218.204863    0.00000    0.00000    0.00000    9    diag
   22      0.186D-04      0.339D-04      -135.19878848    218.204331    0.00000    0.00000    0.00000    9    diag
   23      0.121D-04      0.330D-04      -135.19878856    218.207126    0.00000    0.00000    0.00000    9    diag
   24      0.292D-04      0.347D-04      -135.19878859    218.202242    0.00000    0.00000    0.00000    9    diag
   25      0.303D-04      0.133D-04      -135.19878829    218.200723    0.00000    0.00000    0.00000    9    diag
   26      0.103D-03      0.434D-04      -135.19878856    218.202662    0.00000    0.00000    0.00000    9    diag
   27      0.110D-03      0.283D-04      -135.19878854    218.204420    0.00000    0.00000    0.00000    9    diag
   28      0.332D-04      0.374D-04      -135.19878858    218.202227    0.00000    0.00000    0.00000    9    diag
   29      0.268D-04      0.126D-04      -135.19878827    218.207502    0.00000    0.00000    0.00000    9    diag
   30      0.945D-04      0.413D-04      -135.19878847    218.202807    0.00000    0.00000    0.00000    9    orth
   31      0.121D-03      0.307D-04      -135.19878850    218.204049    0.00000    0.00000    0.00000    9    diag
   32      0.380D-04      0.326D-04      -135.19878857    218.201962    0.00000    0.00000    0.00000    9    diag
   33      0.336D-04      0.192D-04      -135.19878843    218.199372    0.00000    0.00000    0.00000    9    diag
[...]
                                 1.506802 -3.136303  2.504447  1.224521 -2.417611 -0.000000  0.000000  0.000000 -0.000000 -0.000000
                                 0.000000  0.000000 -0.000000 -0.000000  0.000000  0.000000 -0.000000 -0.000000  0.000000  0.000000
                                -0.000001 -0.000001  0.000002  0.000001 -0.000004 -0.000003  0.000010  0.000008 -0.000029 -0.000035
                                 0.000144 -0.000071  0.000363  0.000044 -0.000386  0.000068 -0.000823 -0.000024  0.000309 -0.000001
                                -0.000419  0.000006  0.000663  0.000082 -0.000370 -0.000090  0.000889  0.000001 -0.000001  0.000000
                                -0.000001  0.000001 -0.000001  0.000004 -0.000004  0.000001

   6.1   0     0.3933   -3.6851 -0.000000  0.000000 -0.000000  0.000000 -0.000000  0.000000 -0.000000  0.000000 -0.000000  0.000000
                                -0.000001  0.000002 -0.000006  0.000016 -0.000041  0.000103 -0.000261  0.000654 -0.001612  0.003893
                                -0.008989  0.020001 -0.042279  0.087551 -0.207747  1.079375  4.902684 -5.511064 -3.571513  2.392917
                                -5.421930  5.102032 -1.706666 -4.166635  7.036048 -0.000000  0.000000  0.000000 -0.000000 -0.000000
                                 0.000000  0.000000 -0.000000 -0.000000  0.000000  0.000000 -0.000000 -0.000000  0.000001  0.000000
                                -0.000003 -0.000001  0.000007  0.000002 -0.000015 -0.000006  0.000034  0.000017 -0.000092 -0.000087
                                 0.000429 -0.000230  0.001154  0.000269 -0.001415  0.000572 -0.003015 -0.000224  0.001022  0.000312
                                -0.001412 -0.000307  0.002061  0.000224 -0.001106 -0.000623  0.003197 -0.000000  0.000000 -0.000000
                                -0.000001 -0.000001  0.000002 -0.000003  0.000002 -0.000007

                                   1 2px     1 2px     1 2px     1 2px     1 2px     1 2px     1 2px     1 2px     1 2px     1 2px
                                   1 2px     1 2px     1 2px     1 2px     1 2px     1 2px     1 2px     1 2px     1 2px     1 2px
                                   1 2px     1 2px     1 2px     1 2px     1 2px     1 2px     1 2px     1 2px     1 2px     1 2px
                                   1 2px     1 4f1+    1 4f3+    1 4f1+    1 4f3+    1 4f1+    1 4f3+    1 4f1+    1 4f3+    1 4f1+
                                   1 4f3+    1 4f1+    1 4f3+    1 4f1+    1 4f3+    1 4f1+    1 4f3+    1 4f1+    1 4f3+    1 4f1+
                                   1 4f3+    1 4f1+    1 4f3+    1 4f1+    1 4f3+    1 4f1+    1 4f3+    1 4f1+    1 4f3+    1 4f1+
                                   1 4f3+

   1.2   2    -2.5046  -17.3815 -0.000000  0.000000 -0.000000  0.000000 -0.000000  0.000000 -0.000000  0.000000 -0.000001  0.000002
                                -0.000006  0.000018 -0.000050  0.000117 -0.000324  0.000581 -0.001912  0.002452 -0.010114  0.016490
                                 0.058386  1.373394  0.385810  0.387824  0.182468  0.013146  0.003266 -0.000585  0.000261 -1.590278
                                 0.162897 -0.000000 -0.000000  0.000000  0.000000 -0.000000 -0.000000  0.000000  0.000000 -0.000000
                                -0.000000  0.000000  0.000000 -0.000000 -0.000000  0.000000  0.000000 -0.000000 -0.000000 -0.000000
                                -0.000002 -0.000000 -0.000001  0.000000  0.000001  0.000001  0.000002  0.000000  0.000001 -0.000000
                                -0.000000

   2.2   0     0.1241   -1.6607  0.000000 -0.000000  0.000000 -0.000000  0.000000 -0.000000  0.000000 -0.000000  0.000001 -0.000003
                                 0.000009 -0.000025  0.000066 -0.000168  0.000405 -0.000922  0.002034 -0.004353  0.009677 -0.023849
                                 0.084975  1.180803 -0.459139 -1.090956  0.302515 -0.326622  0.642115 -1.263589  1.675460 -1.086742
                                 1.198652  0.000000 -0.000000 -0.000000  0.000000  0.000000 -0.000000 -0.000000  0.000000  0.000000
                                -0.000000 -0.000000  0.000000  0.000000 -0.000000 -0.000000  0.000000  0.000000 -0.000001  0.000001
                                -0.000003  0.000001 -0.000003 -0.000001  0.000002 -0.000001  0.000003 -0.000001  0.000002  0.000001
                                -0.000001

   3.2   0     0.2288   -3.0293 -0.000000  0.000000 -0.000000  0.000000 -0.000000  0.000000 -0.000000  0.000000 -0.000001  0.000005
                                -0.000014  0.000041 -0.000110  0.000280 -0.000668  0.001542 -0.003320  0.007317 -0.015611  0.039336
                                -0.154828 -2.300115  0.770316  1.894795 -0.567371  0.684050 -1.124763  2.409360 -1.099818  2.149889
                                -2.167804 -0.000000  0.000000  0.000000 -0.000000 -0.000000  0.000000  0.000000 -0.000000 -0.000000
                                 0.000000  0.000000 -0.000000 -0.000000  0.000000  0.000000 -0.000000 -0.000001  0.000002 -0.000004
                                 0.000011 -0.000004  0.000010  0.000002 -0.000006  0.000004 -0.000011  0.000002 -0.000006 -0.000002
                                 0.000006

                                   1 2py     1 2py     1 2py     1 2py     1 2py     1 2py     1 2py     1 2py     1 2py     1 2py
                                   1 2py     1 2py     1 2py     1 2py     1 2py     1 2py     1 2py     1 2py     1 2py     1 2py
                                   1 2py     1 2py     1 2py     1 2py     1 2py     1 2py     1 2py     1 2py     1 2py     1 2py
                                   1 2py     1 4f1-    1 4f3-    1 4f1-    1 4f3-    1 4f1-    1 4f3-    1 4f1-    1 4f3-    1 4f1-
                                   1 4f3-    1 4f1-    1 4f3-    1 4f1-    1 4f3-    1 4f1-    1 4f3-    1 4f1-    1 4f3-    1 4f1-
                                   1 4f3-    1 4f1-    1 4f3-    1 4f1-    1 4f3-    1 4f1-    1 4f3-    1 4f1-    1 4f3-    1 4f1-
                                   1 4f3-

   1.3   2    -2.5046  -17.3815 -0.000000  0.000000 -0.000000  0.000000 -0.000000  0.000000 -0.000000  0.000000 -0.000001  0.000002
                                -0.000006  0.000018 -0.000050  0.000117 -0.000324  0.000581 -0.001912  0.002452 -0.010114  0.016491
                                 0.058385  1.373388  0.385813  0.387833  0.182466  0.013146  0.003265 -0.000584  0.000261 -1.590273
                                 0.162888  0.000000 -0.000000 -0.000000  0.000000  0.000000 -0.000000 -0.000000  0.000000  0.000000
                                -0.000000 -0.000000  0.000000  0.000000 -0.000000 -0.000000  0.000000  0.000000 -0.000000  0.000000
                                -0.000001  0.000000 -0.000000 -0.000000  0.000000 -0.000000  0.000000 -0.000000  0.000000  0.000000
                                 0.000000

   2.3   0     0.1241   -1.6608  0.000000 -0.000000  0.000000 -0.000000  0.000000 -0.000000  0.000000 -0.000000  0.000001 -0.000003
                                 0.000009 -0.000025  0.000066 -0.000168  0.000405 -0.000922  0.002034 -0.004353  0.009677 -0.023851
                                 0.084980  1.180878 -0.459173 -1.091038  0.302539 -0.326647  0.642166 -1.263603  1.675459 -1.086810
                                 1.198738 -0.000000 -0.000000  0.000000  0.000000 -0.000000 -0.000000  0.000000  0.000000 -0.000000
                                -0.000000  0.000000  0.000000 -0.000000 -0.000000  0.000000  0.000000 -0.000000 -0.000000 -0.000001
                                -0.000001 -0.000001 -0.000001  0.000001  0.000001  0.000001  0.000001  0.000001  0.000001 -0.000001
                                -0.000001

   3.3   0     0.2288   -3.0295 -0.000000  0.000000 -0.000000  0.000000 -0.000000  0.000000 -0.000000  0.000000 -0.000001  0.000005
                                -0.000014  0.000041 -0.000110  0.000280 -0.000668  0.001542 -0.003319  0.007316 -0.015609  0.039331
                                -0.154810 -2.299880  0.770207  1.894524 -0.567293  0.683959 -1.124515  2.409164 -1.099775  2.149677
                                -2.167523  0.000000  0.000000 -0.000000 -0.000000  0.000000  0.000000 -0.000000 -0.000000  0.000000
                                 0.000000 -0.000000 -0.000000  0.000000  0.000000 -0.000000 -0.000000  0.000001  0.000003  0.000003
                                 0.000014  0.000003  0.000012 -0.000002 -0.000008 -0.000003 -0.000013 -0.000002 -0.000008  0.000002
                                 0.000008

                                   1 3d2-    1 3d2-    1 3d2-    1 3d2-    1 3d2-    1 3d2-    1 3d2-    1 3d2-    1 3d2-    1 3d2-
                                   1 3d2-    1 3d2-    1 3d2-    1 3d2-    1 3d2-    1 3d2-    1 3d2-    1 3d2-    1 3d2-    1 3d2-
                                   1 3d2-    1 5g2-    1 5g4-    1 5g2-    1 5g4-    1 5g2-    1 5g4-

   1.4   2    -0.2095  -11.0668 -0.000000  0.000000 -0.000000  0.000001 -0.000003  0.000010 -0.000029  0.000077 -0.000479 -0.000648
                                -0.000633  0.006584  0.014581  0.030250  0.210296  0.355991  0.351772  0.201883  0.082550 -0.077287
                                 0.033490  0.000000  0.000000 -0.000000 -0.000000 -0.000000 -0.000000

   2.4   0     0.4575   -3.5273  0.000000 -0.000001  0.000004 -0.000018  0.000070 -0.000239  0.000712 -0.001868  0.004526 -0.009744
                                 0.022916 -0.062706  0.293252  0.759281 -0.903329 -1.918475  0.642958 -0.957604  1.448664 -0.743391
                                 2.027243 -0.000000  0.000000  0.000000 -0.000001 -0.000000  0.000001

   3.4   0     1.1452   -4.3984 -0.000000  0.000002 -0.000010  0.000046 -0.000181  0.000620 -0.001844  0.004841 -0.011350  0.026686
                                -0.059996  0.158048 -0.802677 -2.096070  2.191317  4.943521 -2.454150  2.742907 -1.093283  2.100836
                                -5.716965 -0.000000  0.000002 -0.000000 -0.000005  0.000000  0.000011

                                   1 2pz     1 2pz     1 2pz     1 2pz     1 2pz     1 2pz     1 2pz     1 2pz     1 2pz     1 2pz
                                   1 2pz     1 2pz     1 2pz     1 2pz     1 2pz     1 2pz     1 2pz     1 2pz     1 2pz     1 2pz
                                   1 2pz     1 2pz     1 2pz     1 2pz     1 2pz     1 2pz     1 2pz     1 2pz     1 2pz     1 2pz
                                   1 2pz     1 4f0     1 4f2+    1 4f0     1 4f2+    1 4f0     1 4f2+    1 4f0     1 4f2+    1 4f0
                                   1 4f2+    1 4f0     1 4f2+    1 4f0     1 4f2+    1 4f0     1 4f2+    1 4f0     1 4f2+    1 4f0
                                   1 4f2+    1 4f0     1 4f2+    1 4f0     1 4f2+    1 4f0     1 4f2+    1 4f0     1 4f2+    1 4f0
                                   1 4f2+

   1.5   2    -2.5046  -17.3815 -0.000000  0.000000 -0.000000  0.000000 -0.000000  0.000000 -0.000000  0.000000 -0.000001  0.000002
                                -0.000006  0.000018 -0.000050  0.000117 -0.000324  0.000581 -0.001912  0.002452 -0.010114  0.016490
                                 0.058386  1.373400  0.385809  0.387822  0.182468  0.013147  0.003266 -0.000585  0.000261 -1.590284
                                 0.162899  0.000000  0.000000 -0.000000 -0.000000  0.000000  0.000000 -0.000000 -0.000000  0.000000
                                 0.000000 -0.000000 -0.000000  0.000000  0.000000 -0.000000 -0.000000  0.000000  0.000000  0.000002
                                 0.000000  0.000001  0.000000 -0.000001 -0.000000 -0.000002 -0.000001 -0.000001  0.000000  0.000000
                                 0.000000

   2.5   0     0.1241   -1.6607  0.000000 -0.000000  0.000000 -0.000000  0.000000 -0.000000  0.000000 -0.000000  0.000001 -0.000003
                                 0.000009 -0.000025  0.000066 -0.000168  0.000405 -0.000922  0.002034 -0.004353  0.009677 -0.023851
                                 0.084981  1.180887 -0.459175 -1.091042  0.302540 -0.326649  0.642167 -1.263618  1.675466 -1.086819
                                 1.198744 -0.000000 -0.000000  0.000000  0.000000 -0.000000 -0.000000  0.000000  0.000000 -0.000000
                                -0.000000  0.000000  0.000000 -0.000000 -0.000000  0.000000  0.000000 -0.000000 -0.000000 -0.000002
                                -0.000001 -0.000001 -0.000001  0.000001  0.000000  0.000002  0.000001  0.000001  0.000000 -0.000001
                                -0.000000

   3.5   0     0.2288   -3.0294 -0.000000  0.000000 -0.000000  0.000000 -0.000000  0.000000 -0.000000  0.000000 -0.000001  0.000005
                                -0.000014  0.000041 -0.000110  0.000280 -0.000668  0.001542 -0.003319  0.007316 -0.015610  0.039334
                                -0.154820 -2.300014  0.770268  1.894676 -0.567337  0.684010 -1.124652  2.409272 -1.099799  2.149799
                                -2.167681 -0.000000  0.000000  0.000000 -0.000000 -0.000000  0.000000  0.000000 -0.000000 -0.000000
                                 0.000000  0.000000 -0.000000 -0.000000  0.000000  0.000000 -0.000000 -0.000000  0.000002 -0.000001
                                 0.000009 -0.000001  0.000008  0.000001 -0.000005  0.000001 -0.000009  0.000001 -0.000005 -0.000000
                                 0.000005

                                   1 3d1+    1 3d1+    1 3d1+    1 3d1+    1 3d1+    1 3d1+    1 3d1+    1 3d1+    1 3d1+    1 3d1+
                                   1 3d1+    1 3d1+    1 3d1+    1 3d1+    1 3d1+    1 3d1+    1 3d1+    1 3d1+    1 3d1+    1 3d1+
                                   1 3d1+    1 5g1+    1 5g3+    1 5g1+    1 5g3+    1 5g1+    1 5g3+

   1.6   2    -0.2095  -11.0668 -0.000000  0.000000 -0.000000  0.000001 -0.000003  0.000010 -0.000029  0.000077 -0.000479 -0.000648
                                -0.000633  0.006584  0.014581  0.030249  0.210297  0.355991  0.351772  0.201884  0.082549 -0.077287
                                 0.033489  0.000000  0.000000 -0.000000 -0.000000 -0.000000  0.000000

   2.6   0     0.4575   -3.5273  0.000000 -0.000001  0.000004 -0.000018  0.000070 -0.000239  0.000712 -0.001868  0.004526 -0.009744
                                 0.022916 -0.062706  0.293252  0.759281 -0.903328 -1.918475  0.642961 -0.957611  1.448667 -0.743391
                                 2.027243 -0.000000  0.000000  0.000000 -0.000001 -0.000000  0.000001

   3.6   0     1.1452   -4.3985 -0.000000  0.000002 -0.000010  0.000046 -0.000181  0.000620 -0.001844  0.004841 -0.011350  0.026686
                                -0.059996  0.158048 -0.802681 -2.096080  2.191330  4.943552 -2.454164  2.742911 -1.093280  2.100846
                                -5.716997 -0.000000  0.000001  0.000001 -0.000003 -0.000003  0.000007

                                   1 3d1-    1 3d1-    1 3d1-    1 3d1-    1 3d1-    1 3d1-    1 3d1-    1 3d1-    1 3d1-    1 3d1-
                                   1 3d1-    1 3d1-    1 3d1-    1 3d1-    1 3d1-    1 3d1-    1 3d1-    1 3d1-    1 3d1-    1 3d1-
                                   1 3d1-    1 5g1-    1 5g3-    1 5g1-    1 5g3-    1 5g1-    1 5g3-

   1.7   2    -0.2095  -11.0668 -0.000000  0.000000 -0.000000  0.000001 -0.000003  0.000010 -0.000029  0.000077 -0.000479 -0.000648
                                -0.000633  0.006584  0.014581  0.030250  0.210297  0.355991  0.351772  0.201883  0.082549 -0.077287
                                 0.033490  0.000000  0.000000 -0.000000 -0.000000 -0.000000 -0.000000

   2.7   0     0.4575   -3.5273  0.000000 -0.000001  0.000004 -0.000018  0.000070 -0.000239  0.000712 -0.001868  0.004526 -0.009744
                                 0.022916 -0.062706  0.293252  0.759283 -0.903330 -1.918478  0.642956 -0.957598  1.448661 -0.743392
                                 2.027245  0.000000  0.000000 -0.000000 -0.000001  0.000000  0.000001

   3.7   0     1.1452   -4.3984 -0.000000  0.000002 -0.000010  0.000046 -0.000181  0.000620 -0.001844  0.004841 -0.011350  0.026686
                                -0.059996  0.158047 -0.802674 -2.096061  2.191306  4.943492 -2.454137  2.742903 -1.093286  2.100828
                                -5.716937  0.000000  0.000001 -0.000001 -0.000003  0.000003  0.000007

                                   1 4f2-    1 4f2-    1 4f2-    1 4f2-    1 4f2-    1 4f2-    1 4f2-    1 4f2-    1 4f2-    1 4f2-
                                   1 4f2-    1 4f2-    1 4f2-    1 4f2-    1 4f2-

   1.8   0     0.8736   -3.8631  0.000011 -0.000079  0.000370 -0.001325  0.003904 -0.010375  0.026752 -0.079764  0.496684  2.494801
                                 2.230563 -1.418814 -2.551129 -1.546849  1.342867

   2.8   0     1.7746   -4.6110 -0.000023  0.000157 -0.000736  0.002627 -0.007824  0.020435 -0.053982  0.164389 -0.996738 -5.174559
                                -4.823966  2.941904  5.553416  3.974830 -1.023570

 HOMO      4.1    -0.041609 =      -1.1323eV
 LUMO      2.2     0.124110 =       3.3772eV
 LUMO-HOMO         0.165719 =       4.5094eV

 No convergence



 **********************************************************************************************************************************
 DATASETS  * FILE   NREC   LENGTH (MB)   RECORD NAMES
              1      20       32.94       500      610      700      900      950      970     1000      129      960     1100
                                          VAR    BASINP    GEOM    SYMINP    ZMAT    AOBASIS   BASIS     P2S    ABASIS      S
                                         1400     1410     1420     1200     1210     1080     1600     1650     1700     1380
                                           T        V       ECP      H0       H01     AOSYM     SMH    MOLCAS    OPER     JKOP

              2       8       15.60       200      700     1000      520     4202     5202     2103     2114
                                        OPTIONS   GEOM     BASIS   MCVARS     RHF     MCSCF     RHF      RHF

 PROGRAMS   *        TOTAL       RHF  RCCSD(T)       RHF     MULTI       POP       RHF       INT
 CPU TIMES  *       294.38      4.90     97.07      0.29      3.96      0.00      5.66    182.03
 REAL TIME  *       310.79 SEC
 DISK USED  *         8.50 GB
 SF USED    *         1.62 GB
 GA USED    *         0.00 MB       (max)       0.00 MB       (current)
 **********************************************************************************************************************************
   -->
   <time start="03:01:07" end="03:01:13" cpu="4.91" system="0.48" real="5.47"/>
   <storage units="megabyte" memory="4097.84" sf="1618.03" df="4671.51" eaf="3829.35"
     ga="0.0"/>
  </jobstep><!--
 SETTING SCF(2)         =      -135.19878838  AU
 SETTING _CC_NORM_MAX   =         2.00000000
  --><jobstep command="RCCSD(T)" commandset="CCSD">
   <!--


 PROGRAM * CCSD (Restricted open-shell coupled cluster)     Authors: C. Hampel, H.-J. Werner, 1991, M. Deegan, P.J. Knowles, 1992


 Convergence thresholds:  THRVAR = 1.00D-08  THRDEN = 1.00D-06

 CCSD(T)     terms to be evaluated (factor= 1.000)


 Number of closed-shell orbitals:  10 (   4   1   1   1   1   1   1   0 )
 Number of external orbitals:     355 (  82  60  60  26  60  26  26  15 )

 Memory could be reduced to 107.44 Mwords without degradation in triples

 Number of N-1 electron functions:              20
 Number of N-2 electron functions:             190
 Number of singly external CSFs:              1172
 Number of doubly external CSFs:           2357710
 Total number of CSFs:                     2358882

 Molecular orbitals read from record     2114.2  Type=RHF/CANONICAL (state 1.1)

 ?Error: RHF not converged. This error exit can be avoided using the IGNORE_ERROR option on the ORBITAL directive
   --><error/><!--
  --></jobstep><!--
  -->
  <input>
  <!--
 --></job><!--
--></molpro>
