
 Primary working directories    : /global/cscratch1/sd/bkincaid
 Secondary working directories  : /global/cscratch1/sd/bkincaid
 Wavefunction directory         : /global/homes/b/bkincaid/wfu/
 Main file repository           : /global/cscratch1/sd/bkincaid/

 SHA1      : 19cd028119e0e09f93f0674bd8af7968d9b3eff6
 NAME      : 2015.1.36
 ARCHNAME  : linux/x86_64
 FC        : /opt/cray/pe/craype/2.5.14/bin/ftn
 BLASLIB   : -L/opt/intel/compilers_and_libraries_2018.1.163/linux/mkl/lib/intel64 -Wl,-_start-group -lmkl_intel_ilp64 -lmkl_intel_thread -lmkl_core -Wl,-_end-group -liomp5
 id        : lbl

 Nodes     nprocs
 nid00746    11
 Number of processes for MPI-2 version of Molpro:   nprocs(total)=   12   nprocs(compute)=   11   nprocs(helper)=    1

 Using customized tuning parameters: mindgm=7; mindgv=16; mindgc=1; mindgr=1; noblas=0; minvec=7
 default implementation of scratch files=sf  

 ***,Calculation for IrO groundstate
 memory,1024,m
 gthresh,twoint=1.0E-15
 gthresh,throvl=1.0E-15
                                                                                 !symmetry,nosym
 
 basis={
 Including file /global/u1/b/bkincaid/molpro/Ir/molecules/tz/IrO/ecps/bk1.8/bk1.8
 
 Including file /global/u1/b/bkincaid/molpro/Ir/molecules/tz/IrO/ecps/bk1.8/tz.basis
 
 ecp,O,2,1,0
 3
 1,  12.30997,  6.000000
 3,  14.76962,  73.85984
 2,  13.71419, -47.87600
 1
 2,  13.65512,  85.86406
 
 Including file /global/u1/b/bkincaid/molpro/Ir/molecules/tz/IrO/ecps/bk1.8/O-aug-cc-CVTZ.basis
 }
 
 ne = 23
 
 A1=6
 B1=2
 B2=3
 A2=1
 
 
 do i=1,1
         if(i.eq.1) then
                 z(i) = 1.500
         else if(i.eq.2) then
                 z(i) = 1.600
         else if(i.eq.3) then
                 z(i) = 1.700
         else if(i.eq.4) then
                 z(i) = 1.800
         else if(i.eq.5) then
                 z(i) = 1.900
         endif
 
 geometry={
 2
 IrO
 Ir 0.0 0.0 0.0
 O 0.0 0.0 z(i)
 }
 
 
 {rhf,maxdis=35,iptyp='DIIS',nitord=30,maxit=60; shift,-1.0,-0.5
 wf,nelec=ne,spin=1,sym=4
 occ,A1,B1,B2,A2
 closed,A1,B1,B2,A2-1
 print,orbitals=2
         }
 scf(i)=energy
 {rccsd(t),shifts=0.2,shiftp=0.2,thrdis=1.0;diis,1,1,15,1;maxit,100;core}
 ccsd(i)=energy
 enddo
 
 table,z,scf,ccsd
 save
 type,csv
 

 Variables initialized (889), CPU time= 0.00 sec
 Commands  initialized (702), CPU time= 0.01 sec, 572 directives.
 Default parameters read. Elapsed time= 0.22 sec

 Checking input...
 Passed
1


                                         ***  PROGRAM SYSTEM MOLPRO  ***
                                       Copyright, TTI GmbH Stuttgart, 2015
                                    Version 2015.1 linked Dec 29 2018 15:55:43


 **********************************************************************************************************************************
 LABEL *   Calculation for IrO groundstate                                               
  64 bit mpp version                                                                     DATE: 12-Mar-21          TIME: 19:23:47  
 **********************************************************************************************************************************

 SHA1:             19cd028119e0e09f93f0674bd8af7968d9b3eff6
 **********************************************************************************************************************************

 THRESHOLDS:

 ZERO    =  1.00D-12  ONEINT  =  1.00D-12  TWOINT  =  1.00D-15  PREFAC  =  1.00D-14  LOCALI  =  1.00D-09  EORDER  =  1.00D-04
 ENERGY  =  0.00D+00  ETEST   =  0.00D+00  EDENS   =  0.00D+00  THRDEDEF=  1.00D-06  GRADIENT=  1.00D-02  STEP    =  1.00D-03
 ORBITAL =  1.00D-05  CIVEC   =  1.00D-05  COEFF   =  1.00D-04  PRINTCI =  5.00D-02  PUNCHCI =  9.90D+01  OPTGRAD =  3.00D-04
 OPTENERG=  1.00D-06  OPTSTEP =  3.00D-04  THRGRAD =  1.00D-10  COMPRESS=  1.00D-11  VARMIN  =  1.00D-07  VARMAX  =  1.00D-03
 THRDOUB =  0.00D+00  THRDIV  =  1.00D-05  THRRED  =  1.00D-07  THRPSP  =  1.00D+00  THRDC   =  1.00D-10  THRCS   =  1.00D-10
 THRNRM  =  1.00D-08  THREQ   =  0.00D+00  THRDE   =  1.00D+00  THRREF  =  1.00D-05  SPARFAC =  1.00D+00  THRDLP  =  1.00D-07
 THRDIA  =  1.00D-10  THRDLS  =  1.00D-07  THRGPS  =  0.00D+00  THRKEX  =  0.00D+00  THRDIS  =  2.00D-01  THRVAR  =  1.00D-10
 THRLOC  =  1.00D-06  THRGAP  =  1.00D-06  THRLOCT = -1.00D+00  THRGAPT = -1.00D+00  THRORB  =  1.00D-06  THRMLTP =  0.00D+00
 THRCPQCI=  1.00D-10  KEXTA   =  0.00D+00  THRCOARS=  0.00D+00  SYMTOL  =  1.00D-06  GRADTOL =  1.00D-06  THROVL  =  1.00D-08
 THRORTH =  1.00D-08  GRID    =  1.00D-06  GRIDMAX =  1.00D-03  DTMAX   =  0.00D+00  THROCCDE=  1.00D-01  THROCCDE=  1.00D-01



 THRESHOLDS:

 ZERO    =  1.00D-12  ONEINT  =  1.00D-12  TWOINT  =  1.00D-15  PREFAC  =  1.00D-14  LOCALI  =  1.00D-09  EORDER  =  1.00D-04
 ENERGY  =  0.00D+00  ETEST   =  0.00D+00  EDENS   =  0.00D+00  THRDEDEF=  1.00D-06  GRADIENT=  1.00D-02  STEP    =  1.00D-03
 ORBITAL =  1.00D-05  CIVEC   =  1.00D-05  COEFF   =  1.00D-04  PRINTCI =  5.00D-02  PUNCHCI =  9.90D+01  OPTGRAD =  3.00D-04
 OPTENERG=  1.00D-06  OPTSTEP =  3.00D-04  THRGRAD =  1.00D-10  COMPRESS=  1.00D-11  VARMIN  =  1.00D-07  VARMAX  =  1.00D-03
 THRDOUB =  0.00D+00  THRDIV  =  1.00D-05  THRRED  =  1.00D-07  THRPSP  =  1.00D+00  THRDC   =  1.00D-10  THRCS   =  1.00D-10
 THRNRM  =  1.00D-08  THREQ   =  0.00D+00  THRDE   =  1.00D+00  THRREF  =  1.00D-05  SPARFAC =  1.00D+00  THRDLP  =  1.00D-07
 THRDIA  =  1.00D-10  THRDLS  =  1.00D-07  THRGPS  =  0.00D+00  THRKEX  =  0.00D+00  THRDIS  =  2.00D-01  THRVAR  =  1.00D-10
 THRLOC  =  1.00D-06  THRGAP  =  1.00D-06  THRLOCT = -1.00D+00  THRGAPT = -1.00D+00  THRORB  =  1.00D-06  THRMLTP =  0.00D+00
 THRCPQCI=  1.00D-10  KEXTA   =  0.00D+00  THRCOARS=  0.00D+00  SYMTOL  =  1.00D-06  GRADTOL =  1.00D-06  THROVL  =  1.00D-15
 THRORTH =  1.00D-08  GRID    =  1.00D-06  GRIDMAX =  1.00D-03  DTMAX   =  0.00D+00  THROCCDE=  1.00D-01  THROCCDE=  1.00D-01



 Variable memory set to 1024000000 words,  buffer space   230000 words

 SETTING BASIS          =    USERDEF
 SETTING NE             =        23.00000000                                  
 SETTING A1             =         6.00000000                                  
 SETTING B1             =         2.00000000                                  
 SETTING B2             =         3.00000000                                  
 SETTING A2             =         1.00000000                                  

 DO I                   =         1.00000000   
 SETTING Z(1)           =         1.50000000                                  

Geometry recognized as XYZ



 Recomputing integrals since basis changed


 Using spherical harmonics



 PROGRAM * SEWARD (Integral evaluation for generally contracted gaussian basis sets)     Author: Roland Lindh, 1990

 Geometry written to block  1 of record 700


 Point group  C2v 



 ATOMIC COORDINATES

 NR  ATOM    CHARGE       X              Y              Z

   1  IR     17.00    0.000000000    0.000000000    0.000000000
   2  O       6.00    0.000000000    0.000000000    2.834589187

 Bond lengths in Bohr (Angstrom)

 1-2  2.834589187
     ( 1.500000000)

 NUCLEAR CHARGE:                   23
 NUMBER OF PRIMITIVE AOS:         556
 NUMBER OF SYMMETRY AOS:          455
 NUMBER OF CONTRACTIONS:          455   ( 186A1  + 109B1  + 109B2  +  51A2  )
 NUMBER OF CORE ORBITALS:           4   (   2A1  +   1B1  +   1B2  +   0A2  )
 NUMBER OF VALENCE ORBITALS:       10   (   5A1  +   2B1  +   2B2  +   1A2  )


 NUCLEAR REPULSION ENERGY   35.98405034

 EXTRA SYMMETRY OF AOS IN SYMMETRY 1:   1 1 1 1 1 1 1 1 1 1   1 1 1 1 1 1 1 1 1 1   1 1 1 1 1 1 1 1 1 1   1 1 1 1 1 1 1 1 1 1
                                        1 1 1 1 1 1 1 1 1 1   1 1 1 1 1 1 1 1 1 1   1 1 1 1 1 1 1 2 1 2   1 2 1 2 1 2 1 2 1 2
                                        1 2 1 2 1 2 1 2 1 2   1 2 1 2 1 2 1 2 1 2   1 2 1 2 1 2 1 2 1 2   1 2 1 2 1 2 1 2 1 2
                                        1 2 1 2 1 2 1 2 1 2   1 2 1 2 1 2 1 2 1 2   1 2 1 2 1 3 2 1 3 2   1 3 2 1 1 1 1 1 1 1
                                        1 1 1 1 1 1 1 1 1 1   1 1 1 1 1 2 1 2 1 2   1 2 1 2 1 2
 EXTRA SYMMETRY OF AOS IN SYMMETRY 2:   1 1 1 1 1 1 1 1 1 1   1 1 1 1 1 1 1 1 1 1   1 1 1 1 1 1 1 1 1 1   1 1 1 1 1 1 1 1 1 1
                                        1 1 1 1 1 1 1 1 1 1   1 1 1 1 2 1 2 1 2 1   2 1 2 1 2 1 2 1 2 1   2 1 2 1 2 1 2 1 2 1
                                        2 1 2 1 2 1 2 1 2 1   2 1 2 1 1 1 1 1 1 1   1 1 1 1 1 1 2 1 2
 EXTRA SYMMETRY OF AOS IN SYMMETRY 3:   1 1 1 1 1 1 1 1 1 1   1 1 1 1 1 1 1 1 1 1   1 1 1 1 1 1 1 1 1 1   1 1 1 1 1 1 1 1 1 1
                                        1 1 1 1 1 1 1 1 1 1   1 1 1 1 2 1 2 1 2 1   2 1 2 1 2 1 2 1 2 1   2 1 2 1 2 1 2 1 2 1
                                        2 1 2 1 2 1 2 1 2 1   2 1 2 1 1 1 1 1 1 1   1 1 1 1 1 1 2 1 2
 EXTRA SYMMETRY OF AOS IN SYMMETRY 4:   1 1 1 1 1 1 1 1 1 1   1 1 1 1 1 1 1 1 1 1   1 1 1 1 1 1 1 1 1 1   1 1 1 1 1 1 1 1 1 1
                                        2 1 2 1 2 1 1 1 1 1   1

 Eigenvalues of metric

         1 0.666E-07 0.913E-06 0.334E-05 0.942E-05 0.155E-04 0.157E-04 0.247E-04 0.409E-04
         2 0.898E-07 0.370E-05 0.152E-04 0.517E-04 0.539E-04 0.125E-03 0.139E-03 0.432E-03
         3 0.898E-07 0.370E-05 0.152E-04 0.517E-04 0.539E-04 0.125E-03 0.139E-03 0.432E-03
         4 0.155E-04 0.538E-04 0.146E-03 0.607E-03 0.970E-03 0.207E-02 0.546E-02 0.578E-02


 Contracted 2-electron integrals neglected if value below      1.0D-15

 Warning: maximum contribution to expansion of local PP integrals   0.5D+07
 AO integral compression algorithm  1   Integral accuracy      1.0D-15

     4915.986 MB (compressed) written to integral file ( 38.4%)

     Node minimum: 322.699 MB, node maximum: 913.834 MB


 NUMBER OF SORTED TWO-ELECTRON INTEGRALS:  125132898.     BUFFER LENGTH:  32768
 NUMBER OF SEGMENTS:   4  SEGMENT LENGTH:   31982049      RECORD LENGTH: 524288

 Memory used in sort:      32.54 MW

 SORT1 READ  1600176772. AND WROTE    49745475. INTEGRALS IN    144 RECORDS. CPU TIME:    23.35 SEC, REAL TIME:    31.62 SEC
 SORT2 READ   545769641. AND WROTE  1376419418. INTEGRALS IN  14652 RECORDS. CPU TIME:     2.02 SEC, REAL TIME:     4.01 SEC

 Node minimum:   125060912.  Node maximum:   125200036. integrals

 OPERATOR DM      FOR CENTER  0  COORDINATES:    0.000000    0.000000    0.000000


 **********************************************************************************************************************************
 DATASETS  * FILE   NREC   LENGTH (MB)   RECORD NAMES
              1      19       22.49       500      610      700      900      950      970     1000      129      960     1100   
                                          VAR    BASINP    GEOM    SYMINP    ZMAT    AOBASIS   BASIS     P2S    ABASIS      S 
                                         1400     1410     1420     1200     1210     1080     1600     1650     1700   
                                           T        V       ECP      H0       H01     AOSYM     SMH    MOLCAS    OPER   

 PROGRAMS   *        TOTAL       INT
 CPU TIMES  *       206.62    206.38
 REAL TIME  *       219.20 SEC
 DISK USED  *        11.41 GB      
 GA USED    *         0.00 MB       (max)       0.00 MB       (current)
 **********************************************************************************************************************************


 PROGRAM * RHF-SCF (OPEN SHELL)       Authors: W. Meyer, H.-J. Werner


 NUMBER OF ELECTRONS:      12+   11-    SPACE SYMMETRY=4    SPIN SYMMETRY: Doublet 
 CONVERGENCE THRESHOLDS:    1.00E-05 (Density)    1.00E-07 (Energy)
 MAX. NUMBER OF ITERATIONS:       60
 INTERPOLATION TYPE:            DIIS
 INTERPOLATION STEPS:              2 (START)      1 (STEP)
 LEVEL SHIFTS:                 -1.00 (CLOSED) -0.50 (OPEN) 

 Number of closed-shell orbitals:   11 (   6   2   3   0 )
 Number of open-shell orbitals:      1 (   0   0   0   1 )


 Orbital guess generated from atomic densities. Full valence occupancy:    7   3   3   1

 Molecular orbital dump at record        2100.2

 ITERATION    DDIFF          GRAD             ENERGY        2-EL.EN.            DIPOLE MOMENTS         DIIS   ORB.
    1      0.000D+00      0.000D+00      -119.35230002    245.965101    0.00000    0.00000   -1.64375    0    start
    2      0.000D+00      0.464D-02      -119.37627597    244.968671    0.00000    0.00000   -1.18614    1    diag,B
    3      0.333D-02      0.154D-02      -119.38116554    244.896045    0.00000    0.00000   -1.15376    2    diag,B
    4      0.257D-02      0.826D-03      -119.38377046    244.768959    0.00000    0.00000   -1.07322    3    diag,B
    5      0.323D-02      0.510D-03      -119.38549688    244.613390    0.00000    0.00000   -1.01990    4    diag,B
    6      0.320D-02      0.314D-03      -119.38644175    244.469238    0.00000    0.00000   -0.96559    5    diag,B
    7      0.197D-02      0.178D-03      -119.38679633    244.362288    0.00000    0.00000   -0.92409    6    diag,B
    8      0.933D-03      0.968D-04      -119.38689819    244.314216    0.00000    0.00000   -0.89863    7    diag,B
    9      0.728D-03      0.542D-04      -119.38693138    244.288671    0.00000    0.00000   -0.88411    8    diag,B
   10      0.334D-03      0.290D-04      -119.38694065    244.277729    0.00000    0.00000   -0.87787    9    orth
   11      0.252D-03      0.179D-04      -119.38694460    244.271421    0.00000    0.00000   -0.87493   10    diag,B
   12      0.180D-03      0.108D-04      -119.38694620    244.268280    0.00000    0.00000   -0.87324   11    diag,B
   13      0.855D-04      0.597D-05      -119.38694665    244.267117    0.00000    0.00000   -0.87229   12    diag,B
   14      0.656D-04      0.336D-05      -119.38694675    244.266747    0.00000    0.00000   -0.87180   13    diag,B
   15      0.313D-04      0.214D-05      -119.38694680    244.266507    0.00000    0.00000   -0.87139   14    diag,B
   16      0.213D-04      0.144D-05      -119.38694681    244.266383    0.00000    0.00000   -0.87117   15    diag,B
   17      0.130D-04      0.102D-05      -119.38694682    244.266312    0.00000    0.00000   -0.87104   16    diag,B
   18      0.549D-05      0.660D-06      -119.38694682    244.266282    0.00000    0.00000   -0.87101    0    orth

 Final alpha occupancy:   6   2   3   1
 Final beta  occupancy:   6   2   3   0

 !RHF STATE 1.4 Energy               -119.386946820834
 Nuclear energy                        35.98405034
 One-electron energy                 -277.50413808
 Two-electron energy                  122.13314092
 Virial quotient                       -2.52243894
 !RHF STATE 1.4 Dipole moment           0.00000000     0.00000000    -0.87100949
 Dipole moment /Debye                   0.00000000     0.00000000    -2.21374031

 ELECTRON ORBITALS
 =================


   Orb  Occ    Energy  Couls-En    Coefficients

                                   1 1s      1 1s      1 1s      1 1s      1 1s      1 1s      1 1s      1 1s      1 1s      1 1s   
                                   1 1s      1 1s      1 1s      1 1s      1 1s      1 1s      1 1s      1 1s      1 1s      1 1s   
                                   1 1s      1 1s      1 1s      1 1s      1 1s      1 1s      1 1s      1 1s      1 1s      1 1s   
                                   1 1s      1 1s      1 1s      1 1s      1 1s      1 2pz     1 2pz     1 2pz     1 2pz     1 2pz  
                                   1 2pz     1 2pz     1 2pz     1 2pz     1 2pz     1 2pz     1 2pz     1 2pz     1 2pz     1 2pz  
                                   1 2pz     1 2pz     1 2pz     1 2pz     1 2pz     1 2pz     1 2pz     1 2pz     1 2pz     1 2pz  
                                   1 2pz     1 2pz     1 2pz     1 2pz     1 2pz     1 2pz     1 3d0     1 3d2+    1 3d0     1 3d2+ 
                                   1 3d0     1 3d2+    1 3d0     1 3d2+    1 3d0     1 3d2+    1 3d0     1 3d2+    1 3d0     1 3d2+ 
                                   1 3d0     1 3d2+    1 3d0     1 3d2+    1 3d0     1 3d2+    1 3d0     1 3d2+    1 3d0     1 3d2+ 
                                   1 3d0     1 3d2+    1 3d0     1 3d2+    1 3d0     1 3d2+    1 3d0     1 3d2+    1 3d0     1 3d2+ 
                                   1 3d0     1 3d2+    1 3d0     1 3d2+    1 3d0     1 3d2+    1 3d0     1 3d2+    1 3d0     1 3d2+ 
                                   1 4f0     1 4f2+    1 4f0     1 4f2+    1 4f0     1 4f2+    1 4f0     1 4f2+    1 4f0     1 4f2+ 
                                   1 4f0     1 4f2+    1 4f0     1 4f2+    1 4f0     1 4f2+    1 4f0     1 4f2+    1 4f0     1 4f2+ 
                                   1 4f0     1 4f2+    1 4f0     1 4f2+    1 4f0     1 4f2+    1 4f0     1 4f2+    1 4f0     1 4f2+ 
                                   1 4f0     1 4f2+    1 4f0     1 4f2+    1 5g0     1 5g4+    1 5g2+    1 5g0     1 5g4+    1 5g2+ 
                                   1 5g0     1 5g4+    1 5g2+    2 1s      2 1s      2 1s      2 1s      2 1s      2 1s      2 1s   
                                   2 1s      2 1s      2 1s      2 1s      2 1s      2 1s      2 2pz     2 2pz     2 2pz     2 2pz  
                                   2 2pz     2 2pz     2 2pz     2 2pz     2 3d0     2 3d2+    2 3d0     2 3d2+    2 3d0     2 3d2+ 
                                   2 3d0     2 3d2+    2 4f0     2 4f2+    2 4f0     2 4f2+ 

   1.1   2    -4.2978  -21.0823 -0.000000  0.000000 -0.000000  0.000000 -0.000000  0.000000 -0.000000  0.000000 -0.000000  0.000000
                                -0.000001  0.000003 -0.000008  0.000020 -0.000050  0.000125 -0.000311  0.000764 -0.001856  0.004451
                                -0.010581  0.025098 -0.054771  0.042700  0.333777 -1.006154  0.464751 -0.515531  0.999320 -0.094971
                                 0.577737  0.016100 -0.017030 -0.002584  0.000331  0.000000 -0.000000  0.000000 -0.000000  0.000000
                                -0.000000  0.000000 -0.000000  0.000000 -0.000000  0.000000 -0.000000  0.000000 -0.000000  0.000001
                                -0.000003  0.000007 -0.000016 -0.000003  0.000411 -0.001431  0.002945 -0.005910  0.010528 -0.264571
                                 0.268130 -0.010030 -0.008644 -0.006460 -0.000552  0.000204  0.000000 -0.000000 -0.000000  0.000000
                                 0.000000 -0.000000 -0.000000  0.000000  0.000000 -0.000000 -0.000001  0.000000  0.000003 -0.000000
                                -0.000008  0.000001  0.000019 -0.000003 -0.000038  0.000007  0.000069 -0.000029 -0.000046  0.000190
                                 0.000527 -0.000613 -0.004441 -0.000682  0.004561  0.000811 -0.000193  0.003193  0.006813  0.000254
                                 0.000751  0.001506 -0.005023 -0.000216 -0.003663 -0.000115 -0.001272  0.000001  0.000137 -0.000002
                                 0.000000 -0.000000 -0.000000  0.000000  0.000000 -0.000000 -0.000001  0.000000  0.000004 -0.000001
                                -0.000013 -0.000003  0.000020 -0.000012 -0.000118 -0.000050  0.000421  0.000147 -0.000305 -0.000202
                                -0.001967 -0.000531  0.002831 -0.000695 -0.001782  0.000250 -0.001443  0.000054 -0.000962  0.000093
                                 0.000095 -0.000038 -0.000025  0.000015  0.000057  0.000049 -0.000114  0.000575  0.000766 -0.000708
                                -0.001048  0.000371 -0.000440 -0.000000  0.000000 -0.000001  0.000007 -0.000072 -0.000978 -0.003088
                                 0.011522  0.001737  0.015770 -0.000058  0.000972  0.012685 -0.000132 -0.001409 -0.004199 -0.010744
                                -0.007657 -0.000120  0.000034 -0.002399  0.001433  0.000054  0.003927  0.000478  0.000053  0.000002
                                 0.000779  0.000155 -0.000990 -0.000133 -0.000270 -0.000273

   2.1   2    -2.5668  -17.3405  0.000000 -0.000000  0.000000 -0.000000  0.000000 -0.000000  0.000000 -0.000000  0.000000 -0.000000
                                 0.000000 -0.000000  0.000000 -0.000000  0.000000 -0.000000  0.000001 -0.000003  0.000007 -0.000018
                                 0.000054 -0.000164  0.000389  0.000836 -0.012008  0.040571 -0.089757  0.103819 -0.087689  0.090373
                                -0.062326 -0.040577 -0.032800 -0.013539  0.001967  0.000000 -0.000000  0.000000 -0.000000  0.000000
                                -0.000000  0.000000 -0.000000  0.000001 -0.000002  0.000007 -0.000020  0.000055 -0.000140  0.000342
                                -0.000812  0.001921 -0.004398  0.003317  0.057973 -0.190857 -0.125578 -0.010874  0.387382 -0.785707
                                 1.333986  0.217398 -0.006132 -0.019471 -0.002154  0.000562  0.000000  0.000000 -0.000000 -0.000000
                                 0.000000  0.000000 -0.000000 -0.000000  0.000002  0.000000 -0.000005 -0.000000  0.000016  0.000000
                                -0.000040 -0.000000  0.000091  0.000001 -0.000194 -0.000003  0.000416  0.000013 -0.000998 -0.000105
                                 0.005010  0.000436 -0.017047  0.000105  0.017449 -0.000257 -0.014396 -0.001634  0.028890 -0.001001
                                -0.014589 -0.001215 -0.010589  0.001269 -0.009463  0.001017 -0.003483  0.000058 -0.000100  0.000012
                                 0.000000  0.000000 -0.000000 -0.000000  0.000002  0.000000 -0.000006 -0.000001  0.000018  0.000001
                                -0.000020 -0.000011  0.000176 -0.000008 -0.000123 -0.000080  0.000760 -0.000014  0.000380 -0.000214
                                -0.003879  0.000362  0.014207 -0.001784 -0.006925 -0.000265 -0.002295 -0.001802 -0.003374 -0.000383
                                 0.000845  0.000044 -0.000599 -0.000017  0.000738 -0.000009  0.000090  0.001422 -0.000020  0.000128
                                -0.001808  0.000010  0.000735 -0.000000  0.000001 -0.000008  0.000050 -0.000509 -0.007497 -0.024031
                                 0.077147  0.018717  0.071797  0.000489  0.007200  0.039758 -0.000812 -0.008625 -0.027052 -0.054131
                                -0.037999 -0.000666  0.000210 -0.005981  0.005489  0.000125  0.016854  0.000963  0.000215 -0.000009
                                 0.006240  0.000445 -0.003244 -0.000397 -0.002552 -0.000510

   3.1   2    -1.3384  -12.6189  0.000000 -0.000000  0.000000 -0.000000  0.000000 -0.000000  0.000000 -0.000000  0.000000 -0.000000
                                 0.000000 -0.000000  0.000001 -0.000003  0.000007 -0.000017  0.000041 -0.000101  0.000245 -0.000589
                                 0.001406 -0.003360  0.007456 -0.006295 -0.045157  0.146374 -0.082735  0.090797 -0.174490 -0.058429
                                -0.006893 -0.015613 -0.092608 -0.025677  0.004151 -0.000000  0.000000 -0.000000  0.000000 -0.000000
                                 0.000000 -0.000000  0.000000 -0.000000  0.000000 -0.000001  0.000004 -0.000011  0.000029 -0.000072
                                 0.000174 -0.000426  0.001014 -0.000417 -0.018746  0.062843  0.004148  0.040971 -0.135665 -0.190204
                                 0.032479 -0.078274 -0.063398 -0.044820 -0.002615  0.001162  0.000000 -0.000000 -0.000000  0.000000
                                 0.000000 -0.000000 -0.000000  0.000000  0.000000 -0.000000 -0.000001  0.000000  0.000003 -0.000000
                                -0.000007  0.000001  0.000011 -0.000002  0.000016  0.000003 -0.000325 -0.000002  0.003312 -0.000028
                                -0.008975  0.000029 -0.024688  0.000651  0.023341 -0.000627  0.042761 -0.000549  0.027205 -0.001933
                                 0.080270  0.001072  0.050096 -0.000152 -0.018607 -0.000085 -0.006859 -0.000292  0.001123  0.000009
                                 0.000000 -0.000000 -0.000000  0.000000  0.000000 -0.000000 -0.000001  0.000001  0.000007 -0.000001
                                 0.000063  0.000011  0.000216  0.000006  0.000482  0.000086 -0.000403 -0.000153  0.003728  0.000399
                                -0.007127 -0.000370  0.023422  0.001443 -0.005742  0.001603  0.007602  0.001938 -0.006054  0.001221
                                 0.000464 -0.000413  0.000418  0.000122  0.001833  0.000039  0.000013  0.004119 -0.000089  0.001341
                                -0.000175 -0.000137  0.000446 -0.000001  0.000006 -0.000047  0.000313 -0.003257 -0.048650 -0.159562
                                 0.550587  0.148724  0.432457 -0.003313  0.047066  0.106284 -0.001130 -0.010978 -0.031758 -0.076586
                                -0.090192 -0.000472  0.000306 -0.020878  0.003945 -0.000509  0.022224  0.000096  0.000150 -0.000131
                                 0.016616 -0.001500 -0.002777 -0.000460 -0.004062 -0.001085

   4.1   2    -0.6665  -11.1562 -0.000000  0.000000 -0.000000  0.000000 -0.000000  0.000000 -0.000000  0.000000 -0.000000  0.000000
                                -0.000000  0.000000 -0.000000  0.000001 -0.000002  0.000006 -0.000014  0.000034 -0.000084  0.000206
                                -0.000513  0.001303 -0.002976  0.000335  0.037226 -0.127862  0.215048 -0.247992  0.254137 -0.181313
                                 0.146207  0.020391  0.100726  0.053491 -0.008894 -0.000000  0.000000 -0.000000  0.000000 -0.000000
                                 0.000000 -0.000000  0.000000 -0.000000  0.000000 -0.000000  0.000000 -0.000001  0.000003 -0.000005
                                 0.000006  0.000010 -0.000075 -0.000653  0.010888 -0.035866  0.035686 -0.059804  0.067393  1.079285
                                -1.028037  0.086048  0.034568  0.058730  0.009987 -0.003386 -0.000000 -0.000000  0.000000  0.000000
                                -0.000000 -0.000000  0.000001  0.000000 -0.000002 -0.000000  0.000008  0.000001 -0.000021 -0.000003
                                 0.000052  0.000008 -0.000107 -0.000019  0.000142  0.000054  0.000360 -0.000208 -0.006796  0.001319
                                 0.017074 -0.004247  0.072919 -0.003567 -0.072505  0.003207 -0.089697  0.018619 -0.104691  0.001604
                                -0.151522  0.028253 -0.166074  0.024264 -0.042418  0.009483  0.013580  0.000535 -0.000715 -0.000014
                                -0.000000  0.000000  0.000001 -0.000000 -0.000004  0.000000  0.000014 -0.000001 -0.000045  0.000001
                                 0.000017 -0.000008 -0.000511  0.000001  0.000071 -0.000066 -0.001923  0.000203 -0.003050 -0.000540
                                 0.015849  0.000863 -0.045061 -0.001725  0.024386  0.000045 -0.016910 -0.001598  0.001465 -0.000776
                                 0.000577 -0.000066  0.001740 -0.000068 -0.002163  0.000195 -0.000367 -0.007112  0.000372 -0.001225
                                 0.001098  0.000668 -0.000564 -0.000000  0.000002 -0.000013  0.000083 -0.000866 -0.013663 -0.043577
                                 0.139449  0.047043  0.139640  0.001977  0.012718 -0.089539  0.007057  0.074377  0.240932  0.393434
                                 0.257075  0.004580 -0.001845  0.029193 -0.012154 -0.000425 -0.039886 -0.001077 -0.000484 -0.000050
                                -0.018310 -0.001005  0.005911  0.001391  0.007362  0.000642

   5.1   2    -0.4865  -11.4777  0.000000 -0.000000  0.000000 -0.000000  0.000000 -0.000000  0.000000 -0.000000  0.000000 -0.000000
                                 0.000000 -0.000000  0.000000 -0.000001  0.000002 -0.000006  0.000015 -0.000037  0.000090 -0.000216
                                 0.000515 -0.001236  0.002757 -0.002333 -0.017065  0.056504 -0.034887  0.038032 -0.076401  0.009177
                                -0.048387  0.057800  0.031459 -0.002523  0.000868  0.000000 -0.000000  0.000000 -0.000000  0.000000
                                -0.000000  0.000000 -0.000000  0.000000 -0.000000  0.000000 -0.000000  0.000000 -0.000001  0.000001
                                -0.000002 -0.000001  0.000014  0.000157 -0.002510  0.008410 -0.013484  0.022291 -0.025973  0.184467
                                -0.202516 -0.003017  0.017838  0.001174 -0.000949  0.000394  0.000000 -0.000000 -0.000000  0.000000
                                 0.000000 -0.000000 -0.000000  0.000001  0.000001 -0.000004 -0.000002  0.000013  0.000006 -0.000038
                                -0.000016  0.000102  0.000038 -0.000256 -0.000089  0.000715  0.000250 -0.002778 -0.001111  0.017747
                                 0.004101 -0.057440 -0.002900 -0.047644  0.003464  0.043700 -0.016693  0.247744  0.013180  0.014166
                                -0.030858  0.389897 -0.010192  0.347247 -0.007807  0.169654 -0.003843  0.026800  0.000263 -0.000828
                                 0.000000  0.000000 -0.000000 -0.000000  0.000000  0.000000 -0.000001 -0.000001  0.000004  0.000002
                                 0.000007 -0.000005  0.000069  0.000018  0.000045 -0.000048  0.000334  0.000410  0.000074 -0.000995
                                -0.000731  0.002278  0.004564 -0.003322 -0.001664  0.003631  0.006622 -0.004786  0.000765 -0.003050
                                -0.000939 -0.000352  0.000024 -0.000075  0.000699  0.001718  0.000305  0.001115  0.002919  0.002812
                                 0.001934  0.004091  0.003050  0.000000 -0.000000  0.000001 -0.000004  0.000046  0.000698  0.002493
                                -0.011200 -0.002954 -0.017569  0.000092 -0.000684  0.002136 -0.000952 -0.010007 -0.032421 -0.051253
                                -0.036572 -0.000595  0.000249 -0.004449  0.000448  0.002424  0.001760  0.008234  0.000014  0.000122
                                 0.000759  0.003593 -0.000193 -0.002092 -0.000329 -0.002161

   6.1   2    -0.3363   -8.7308  0.000000 -0.000000  0.000000 -0.000000  0.000000 -0.000000  0.000000 -0.000000  0.000000 -0.000000
                                 0.000000 -0.000001  0.000003 -0.000007  0.000017 -0.000042  0.000104 -0.000255  0.000621 -0.001492
                                 0.003561 -0.008520  0.018996 -0.016876 -0.111060  0.367133 -0.188480  0.203984 -0.463436  0.028141
                                -0.376675  0.311078  0.591565  0.189076 -0.001701  0.000000 -0.000000  0.000000 -0.000000  0.000000
                                -0.000000  0.000000 -0.000000  0.000000 -0.000000  0.000000 -0.000001  0.000001 -0.000004  0.000009
                                -0.000019  0.000040 -0.000081  0.000272 -0.001688  0.005497 -0.022202  0.032200 -0.027215  0.450018
                                -0.458000  0.012780 -0.024621 -0.042779 -0.007129  0.000631  0.000000  0.000000 -0.000000 -0.000000
                                 0.000000  0.000000 -0.000000 -0.000000  0.000001  0.000000 -0.000004 -0.000002  0.000013  0.000005
                                -0.000035 -0.000012  0.000089  0.000031 -0.000255 -0.000085  0.001037  0.000327 -0.006832 -0.002081
                                 0.022126  0.006803  0.019293  0.005365 -0.017465 -0.005072 -0.096933 -0.029686 -0.002989 -0.001654
                                -0.159581 -0.043849 -0.132257 -0.035350 -0.080939 -0.016396 -0.022069 -0.004500  0.001350 -0.000067
                                 0.000000 -0.000000 -0.000000  0.000000  0.000001 -0.000000 -0.000002  0.000001  0.000008 -0.000001
                                 0.000008  0.000015  0.000122  0.000013  0.000049  0.000123  0.000875 -0.000355 -0.001815  0.000806
                                 0.003936 -0.000614  0.000663  0.002968  0.003552  0.000499  0.009475  0.002554  0.006177  0.002253
                                -0.001406 -0.000079  0.002015  0.000246 -0.000165  0.000374 -0.000892 -0.001323 -0.000028 -0.001142
                                -0.000999 -0.000218 -0.001360  0.000000 -0.000001  0.000005 -0.000033  0.000338  0.005855  0.015989
                                -0.045459 -0.014766 -0.069913 -0.003933 -0.004957 -0.043813 -0.002109 -0.021791 -0.069596 -0.111315
                                -0.099134 -0.001134  0.000558 -0.026243 -0.002647 -0.000274 -0.006666 -0.000100 -0.000129  0.000002
                                 0.000247  0.000346  0.001567 -0.000161  0.000806 -0.001001

   7.1   0     0.0125   -3.6875  0.000000 -0.000000  0.000000 -0.000000  0.000000 -0.000000  0.000000 -0.000000  0.000000 -0.000000
                                 0.000000 -0.000000  0.000001 -0.000001  0.000003 -0.000008  0.000021 -0.000050  0.000122 -0.000290
                                 0.000680 -0.001582  0.003482 -0.004413 -0.008966  0.026682  0.075504 -0.094604  0.050753 -0.273755
                                 0.194376 -0.131066  0.568718  1.323885 -1.314991  0.000000 -0.000000  0.000000 -0.000000  0.000000
                                -0.000000  0.000000 -0.000000  0.000000 -0.000000  0.000001 -0.000004  0.000011 -0.000027  0.000063
                                -0.000139  0.000283 -0.000560  0.002017 -0.013827  0.045238 -0.157207  0.228921 -0.198507  2.997727
                                -3.081588  0.075174 -0.112895  0.824019 -0.136057  0.610293 -0.000000  0.000000  0.000000 -0.000000
                                -0.000000  0.000000  0.000001 -0.000000 -0.000004  0.000000  0.000012 -0.000001 -0.000034  0.000002
                                 0.000085 -0.000006 -0.000189  0.000013  0.000373 -0.000034 -0.000559  0.000108 -0.000826 -0.000579
                                -0.000630  0.001957  0.047566  0.000447 -0.048327 -0.000331 -0.010992 -0.008078 -0.122693  0.001854
                                 0.033466 -0.012585 -0.122941 -0.008762 -0.022838 -0.007474  0.090596 -0.002974 -0.238778 -0.016034
                                 0.000000  0.000000 -0.000000 -0.000000  0.000002  0.000000 -0.000007 -0.000001  0.000023  0.000002
                                -0.000038 -0.000008  0.000206  0.000009 -0.000319 -0.000050  0.003071  0.000341 -0.007753 -0.000989
                                 0.014342  0.001123 -0.015411 -0.001522  0.022364  0.001228 -0.012372 -0.000927  0.034213  0.004221
                                 0.026373 -0.000900 -0.046811  0.007554  0.000213 -0.000187 -0.000285  0.000714 -0.000760  0.000081
                                -0.000148 -0.000820 -0.001219  0.000000 -0.000000  0.000002 -0.000011  0.000097  0.002627  0.003248
                                 0.023925 -0.000452 -0.018456 -0.007194 -0.001414 -1.021589 -0.001545 -0.015848 -0.050414 -0.084535
                                -0.119335 -0.000767  0.000410  0.374572 -0.002157 -0.000121 -0.007795  0.000646 -0.000104 -0.000001
                                 0.018566 -0.000591  0.001182 -0.000194  0.001958 -0.000846

   8.1   0     0.0312   -2.3441 -0.000000  0.000000 -0.000000  0.000000 -0.000000  0.000000 -0.000000  0.000000 -0.000000  0.000000
                                -0.000000  0.000000 -0.000000  0.000001 -0.000002  0.000005 -0.000013  0.000033 -0.000079  0.000188
                                -0.000439  0.001012 -0.002214  0.003052  0.003479 -0.009242 -0.065231  0.079100 -0.043898  0.123840
                                -0.031146 -0.025729 -1.378436 -3.112903  1.764265 -0.000000  0.000000 -0.000000  0.000000 -0.000000
                                 0.000000 -0.000000  0.000000 -0.000000  0.000001 -0.000002  0.000007 -0.000018  0.000046 -0.000110
                                 0.000250 -0.000544  0.001161 -0.002634  0.007452 -0.022825  0.182695 -0.243547  0.158724 -3.353268
                                 3.368626 -0.113940 -0.152205 -1.353037 -1.076101  1.323187 -0.000000 -0.000000  0.000000  0.000000
                                -0.000000 -0.000000  0.000000  0.000000 -0.000001 -0.000000  0.000005  0.000001 -0.000015 -0.000002
                                 0.000037  0.000006 -0.000087 -0.000014  0.000201  0.000030 -0.000539 -0.000074  0.002253  0.000254
                                -0.008158 -0.000983  0.005884  0.001519 -0.006362 -0.001591  0.029322  0.003443 -0.022660 -0.004876
                                 0.062016  0.006861 -0.024880  0.000222 -0.130328  0.003591 -0.509920 -0.002753 -0.000519  0.019993
                                 0.000000  0.000000 -0.000002 -0.000000  0.000008  0.000000 -0.000029 -0.000001  0.000085  0.000002
                                -0.000232 -0.000005  0.000559  0.000015 -0.001796 -0.000042  0.011194  0.000251 -0.029303 -0.000608
                                 0.047681  0.001036 -0.051148 -0.001127  0.040168  0.000897 -0.055725 -0.000497 -0.024933  0.000466
                                -0.134904 -0.002352  0.023337  0.004642  0.000248  0.000052  0.000108 -0.001119  0.000323  0.000146
                                -0.008523  0.000299  0.000218  0.000000 -0.000000  0.000000 -0.000002  0.000038 -0.000028  0.003099
                                -0.050069 -0.004282  0.330060  0.004038 -0.000585  3.357829 -0.000020  0.000741  0.006089 -0.006236
                                -0.273658  0.000423  0.000018 -0.634915 -0.000604  0.000031  0.020769 -0.000194  0.000086  0.000005
                                 0.030526  0.000510 -0.001160 -0.000014 -0.002606  0.000173

                                   1 2px     1 2px     1 2px     1 2px     1 2px     1 2px     1 2px     1 2px     1 2px     1 2px  
                                   1 2px     1 2px     1 2px     1 2px     1 2px     1 2px     1 2px     1 2px     1 2px     1 2px  
                                   1 2px     1 2px     1 2px     1 2px     1 2px     1 2px     1 2px     1 2px     1 2px     1 2px  
                                   1 2px     1 3d1+    1 3d1+    1 3d1+    1 3d1+    1 3d1+    1 3d1+    1 3d1+    1 3d1+    1 3d1+ 
                                   1 3d1+    1 3d1+    1 3d1+    1 3d1+    1 3d1+    1 3d1+    1 3d1+    1 3d1+    1 3d1+    1 3d1+ 
                                   1 3d1+    1 3d1+    1 3d1+    1 4f1+    1 4f3+    1 4f1+    1 4f3+    1 4f1+    1 4f3+    1 4f1+ 
                                   1 4f3+    1 4f1+    1 4f3+    1 4f1+    1 4f3+    1 4f1+    1 4f3+    1 4f1+    1 4f3+    1 4f1+ 
                                   1 4f3+    1 4f1+    1 4f3+    1 4f1+    1 4f3+    1 4f1+    1 4f3+    1 4f1+    1 4f3+    1 4f1+ 
                                   1 4f3+    1 4f1+    1 4f3+    1 4f1+    1 4f3+    1 4f1+    1 4f3+    1 5g1+    1 5g3+    1 5g1+ 
                                   1 5g3+    1 5g1+    1 5g3+    2 2px     2 2px     2 2px     2 2px     2 2px     2 2px     2 2px  
                                   2 2px     2 3d1+    2 3d1+    2 3d1+    2 3d1+    2 4f1+    2 4f3+    2 4f1+    2 4f3+ 

   1.2   2    -2.5042  -17.0812  0.000000 -0.000000  0.000000 -0.000000  0.000000 -0.000000  0.000000 -0.000000  0.000001 -0.000002
                                 0.000007 -0.000020  0.000055 -0.000140  0.000343 -0.000815  0.001932 -0.004435  0.003205  0.060420
                                -0.198703 -0.124525 -0.014628  0.392921 -0.101328  0.653004  0.259416  0.027304 -0.002333  0.000597
                                -0.000234  0.000000 -0.000000  0.000000 -0.000000  0.000000 -0.000001  0.000002 -0.000005  0.000012
                                -0.000026  0.000059 -0.000175  0.000695 -0.001467  0.001432 -0.000827 -0.003040  0.002099 -0.003680
                                -0.001979 -0.000830 -0.000012 -0.000000 -0.000000  0.000000  0.000000 -0.000001 -0.000000  0.000002
                                 0.000000 -0.000006  0.000001  0.000009  0.000040 -0.000058  0.000111  0.000111  0.000170 -0.001070
                                -0.000106  0.002279  0.002221 -0.004478  0.001490  0.003858  0.004440 -0.001268  0.002499 -0.003037
                                 0.002591 -0.001299  0.000522 -0.000139 -0.000127 -0.000082  0.000051  0.000082  0.000032  0.000991
                                -0.000506 -0.000756  0.000152  0.000222  0.002229  0.006747  0.012701  0.007574  0.000112 -0.000059
                                 0.000998 -0.001572 -0.005465 -0.000070 -0.002175  0.001325  0.000084  0.001224  0.000114

   2.2   2    -0.6146  -11.1565 -0.000000  0.000000 -0.000000  0.000000 -0.000000  0.000000 -0.000000  0.000000 -0.000000  0.000000
                                -0.000000  0.000001 -0.000003  0.000009 -0.000022  0.000055 -0.000138  0.000337 -0.000076 -0.007262
                                 0.024693 -0.005660  0.024648 -0.060445  0.279317 -0.353595 -0.000179 -0.006747  0.003399  0.002883
                                -0.001497 -0.000000  0.000000 -0.000000  0.000000 -0.000001  0.000003 -0.000008  0.000022 -0.000064
                                 0.000227 -0.001157  0.008657 -0.026594 -0.036745  0.033125  0.123495  0.007421  0.218331  0.185563
                                 0.038445  0.008253 -0.000698 -0.000000 -0.000000  0.000001  0.000000 -0.000006 -0.000000  0.000020
                                 0.000000 -0.000054 -0.000001  0.000244 -0.000002 -0.000143 -0.000015  0.001832 -0.000001 -0.008108
                                -0.000130  0.023285  0.000065 -0.033586 -0.000571  0.046895  0.000140 -0.006531 -0.000494  0.020335
                                 0.000995 -0.013291  0.000949  0.002612 -0.000009 -0.000124  0.000042  0.001074  0.000565  0.009480
                                 0.001367  0.001368  0.001960  0.006345  0.065554  0.209157  0.346579  0.284879  0.003632 -0.001676
                                 0.016281 -0.011207 -0.044060 -0.000529 -0.042828  0.006263  0.001413  0.010040  0.001820

   3.2   0    -0.0024   -6.9693  0.000000 -0.000000  0.000000 -0.000000  0.000000 -0.000000  0.000000 -0.000000  0.000000 -0.000000
                                 0.000001 -0.000002  0.000006 -0.000015  0.000038 -0.000094  0.000235 -0.000568  0.000173  0.011642
                                -0.039898  0.013321 -0.047298  0.106417 -0.656783  0.775250  0.025128 -0.093282 -0.210984 -0.119372
                                -0.335667 -0.000000  0.000000 -0.000000  0.000001 -0.000002  0.000007 -0.000021  0.000055 -0.000138
                                 0.000383 -0.001485  0.009448 -0.030422 -0.025394  0.022719  0.131201  0.006864  0.210125  0.196576
                                 0.148405  0.104636  0.071807  0.000000 -0.000000 -0.000000  0.000000  0.000000 -0.000000 -0.000000
                                 0.000000 -0.000001 -0.000001 -0.000034  0.000002 -0.000083 -0.000006 -0.000224  0.000014 -0.000068
                                -0.000081 -0.000548  0.000304 -0.000108 -0.000419 -0.004847  0.000341 -0.001186 -0.000532 -0.014673
                                -0.000265 -0.012761 -0.002782  0.000556 -0.000631 -0.005184 -0.004501 -0.000698  0.000236 -0.000919
                                -0.000363 -0.002236  0.001580 -0.002797 -0.028750 -0.091883 -0.152340 -0.166896 -0.001487  0.000741
                                -0.149234 -0.002501 -0.004874 -0.000120  0.003812  0.001323 -0.000484  0.000794 -0.000950

   4.2   0     0.0324   -3.2815  0.000000 -0.000000  0.000000 -0.000000  0.000000 -0.000000  0.000000 -0.000000  0.000000 -0.000001
                                 0.000004 -0.000010  0.000028 -0.000070  0.000169 -0.000387  0.000859 -0.001870  0.003616 -0.003436
                                 0.008087 -0.233724  0.294007 -0.144847  3.447312 -3.375722  0.121441 -0.130602  0.015351 -1.204055
                                 1.528237 -0.000000  0.000000 -0.000000  0.000001 -0.000004  0.000013 -0.000038  0.000097 -0.000230
                                 0.000547 -0.001579  0.007379 -0.025826  0.007844 -0.010267  0.101881 -0.061493  0.186739  0.091600
                                 0.131758 -0.141141 -0.148533  0.000000  0.000000 -0.000001 -0.000000  0.000004  0.000000 -0.000014
                                -0.000001  0.000040  0.000004 -0.000135 -0.000011  0.000203  0.000027 -0.001017 -0.000085  0.005262
                                 0.000525 -0.014323 -0.001323  0.022911  0.002188 -0.030050 -0.002471  0.021122  0.001938 -0.028031
                                -0.001714  0.020163  0.000933 -0.073480 -0.004814 -0.079540  0.007192 -0.000321  0.000124 -0.001432
                                -0.000090  0.000524  0.000770 -0.001788 -0.019536 -0.065773 -0.101759 -0.151983 -0.001431  0.000458
                                 0.423760 -0.001631  0.000375 -0.000057 -0.007374  0.000035 -0.000360  0.001593 -0.000557

                                   1 2py     1 2py     1 2py     1 2py     1 2py     1 2py     1 2py     1 2py     1 2py     1 2py  
                                   1 2py     1 2py     1 2py     1 2py     1 2py     1 2py     1 2py     1 2py     1 2py     1 2py  
                                   1 2py     1 2py     1 2py     1 2py     1 2py     1 2py     1 2py     1 2py     1 2py     1 2py  
                                   1 2py     1 3d1-    1 3d1-    1 3d1-    1 3d1-    1 3d1-    1 3d1-    1 3d1-    1 3d1-    1 3d1- 
                                   1 3d1-    1 3d1-    1 3d1-    1 3d1-    1 3d1-    1 3d1-    1 3d1-    1 3d1-    1 3d1-    1 3d1- 
                                   1 3d1-    1 3d1-    1 3d1-    1 4f1-    1 4f3-    1 4f1-    1 4f3-    1 4f1-    1 4f3-    1 4f1- 
                                   1 4f3-    1 4f1-    1 4f3-    1 4f1-    1 4f3-    1 4f1-    1 4f3-    1 4f1-    1 4f3-    1 4f1- 
                                   1 4f3-    1 4f1-    1 4f3-    1 4f1-    1 4f3-    1 4f1-    1 4f3-    1 4f1-    1 4f3-    1 4f1- 
                                   1 4f3-    1 4f1-    1 4f3-    1 4f1-    1 4f3-    1 4f1-    1 4f3-    1 5g1-    1 5g3-    1 5g1- 
                                   1 5g3-    1 5g1-    1 5g3-    2 2py     2 2py     2 2py     2 2py     2 2py     2 2py     2 2py  
                                   2 2py     2 3d1-    2 3d1-    2 3d1-    2 3d1-    2 4f1-    2 4f3-    2 4f1-    2 4f3- 

   1.3   2    -2.4928  -17.0747  0.000000 -0.000000  0.000000 -0.000000  0.000000 -0.000000  0.000000 -0.000000  0.000001 -0.000002
                                 0.000007 -0.000021  0.000055 -0.000141  0.000343 -0.000817  0.001937 -0.004447  0.003237  0.060352
                                -0.198702 -0.125780 -0.012021  0.391497 -0.092164  0.641836  0.261420  0.030730 -0.001413  0.000579
                                -0.000214  0.000000 -0.000000  0.000000 -0.000000  0.000000 -0.000000  0.000001 -0.000002  0.000005
                                -0.000008  0.000002  0.000161 -0.000649 -0.001277  0.001564  0.004174 -0.002434  0.007514 -0.005172
                                -0.002474 -0.000753 -0.000028 -0.000000  0.000000  0.000000 -0.000000 -0.000001  0.000000  0.000002
                                -0.000001 -0.000004  0.000002  0.000048 -0.000006  0.000054  0.000016  0.000286 -0.000064 -0.001040
                                 0.000039  0.004136  0.000069 -0.002713  0.000879  0.008316 -0.001023  0.001260 -0.000380 -0.000227
                                -0.001656 -0.000201 -0.000483 -0.000299  0.000100 -0.000004 -0.000044  0.000031  0.000059 -0.000007
                                -0.000491 -0.001336  0.000164  0.000137  0.001429  0.004395  0.007902  0.003337  0.000097 -0.000036
                                 0.000714 -0.001351 -0.004087 -0.000060 -0.001165  0.001219  0.000054  0.000910  0.000064

   2.3   2    -0.6948  -11.3010 -0.000000  0.000000 -0.000000  0.000000 -0.000000  0.000000 -0.000000  0.000000 -0.000000  0.000000
                                -0.000000  0.000001 -0.000002  0.000005 -0.000014  0.000034 -0.000086  0.000210 -0.000014 -0.004933
                                 0.016518 -0.004192  0.016824 -0.038330  0.132886 -0.179388 -0.005946 -0.042594 -0.017131  0.003085
                                -0.001618 -0.000000  0.000000 -0.000000  0.000000 -0.000001  0.000003 -0.000010  0.000027 -0.000076
                                 0.000258 -0.001266  0.009343 -0.029112 -0.037720  0.034664  0.134203  0.009228  0.229171  0.185937
                                 0.035299  0.005031 -0.000146 -0.000000 -0.000000  0.000001  0.000000 -0.000004 -0.000000  0.000015
                                 0.000000 -0.000042 -0.000000  0.000174 -0.000002 -0.000147 -0.000007  0.001335 -0.000004 -0.006269
                                -0.000037  0.017792 -0.000014 -0.026897 -0.000233  0.034599 -0.000120 -0.005505 -0.000223  0.005921
                                 0.000448 -0.018477  0.000477  0.001475 -0.000021 -0.000022  0.000020  0.001503  0.000378  0.009092
                                 0.001128  0.001292  0.001316  0.006748  0.070164  0.225148  0.360744  0.272365  0.003921 -0.001778
                                 0.015226 -0.009331 -0.033690 -0.000421 -0.031116  0.006260  0.001482  0.008367  0.001602

   3.3   2    -0.3586  -10.5523  0.000000 -0.000000  0.000000 -0.000000  0.000000 -0.000000  0.000000 -0.000000  0.000000 -0.000000
                                 0.000001 -0.000002  0.000005 -0.000013  0.000033 -0.000080  0.000199 -0.000481  0.000190  0.009337
                                -0.032232  0.007599 -0.033508  0.084581 -0.483366  0.579560  0.012425 -0.072592 -0.098023 -0.005948
                                -0.000060 -0.000000  0.000000 -0.000000  0.000001 -0.000004  0.000012 -0.000036  0.000095 -0.000236
                                 0.000642 -0.002415  0.015070 -0.049421 -0.035582  0.032814  0.211402  0.002811  0.334676  0.290118
                                 0.184451  0.029941  0.004592  0.000000  0.000000 -0.000001 -0.000000  0.000003  0.000000 -0.000010
                                -0.000000  0.000026  0.000001 -0.000144 -0.000001  0.000007  0.000013 -0.001055 -0.000014  0.003691
                                -0.000005 -0.010805  0.000055  0.015101  0.000504 -0.027270 -0.000213  0.008314 -0.000025 -0.033077
                                -0.000814 -0.002425 -0.000841 -0.011832 -0.000096  0.003095 -0.000044  0.000101  0.000679  0.000249
                                 0.001122  0.001405  0.001788 -0.005564 -0.057176 -0.182546 -0.297481 -0.296391 -0.002831  0.001477
                                -0.060888 -0.002714  0.000219 -0.000129  0.015955  0.000458 -0.001037 -0.001647 -0.001333

   4.3   0     0.0252   -2.3837  0.000000 -0.000000  0.000000 -0.000000  0.000000 -0.000000  0.000000 -0.000000  0.000000 -0.000001
                                 0.000002 -0.000006  0.000017 -0.000044  0.000104 -0.000236  0.000511 -0.001086  0.002542 -0.008063
                                 0.024954 -0.175932  0.235826 -0.155792  2.809347 -2.813677  0.074612 -0.047610  0.127552 -0.773085
                                 1.377795 -0.000000  0.000000 -0.000000  0.000001 -0.000002  0.000007 -0.000020  0.000051 -0.000118
                                 0.000268 -0.000683  0.002602 -0.009793  0.011303 -0.012131  0.036031 -0.042019  0.072645  0.012093
                                 0.047731 -0.140314 -0.165570  0.000000  0.000000 -0.000001 -0.000000  0.000003  0.000000 -0.000012
                                -0.000001  0.000034  0.000004 -0.000105 -0.000010  0.000200  0.000024 -0.000800 -0.000076  0.004540
                                 0.000490 -0.012123 -0.001308  0.019571  0.001957 -0.024034 -0.002201  0.018097  0.001865 -0.017892
                                -0.000684  0.023165  0.003477 -0.058359 -0.003540 -0.048003  0.010399  0.000021  0.000105 -0.000589
                                 0.000405  0.001259  0.000027 -0.000627 -0.007411 -0.026491 -0.037072 -0.074307 -0.000715  0.000154
                                 0.354023 -0.000594  0.001846 -0.000011 -0.006016 -0.000519 -0.000148  0.000641 -0.000132

   5.3   0     0.0771   -3.3717 -0.000000  0.000000 -0.000000  0.000000 -0.000000  0.000000 -0.000000  0.000000 -0.000001  0.000002
                                -0.000007  0.000020 -0.000052  0.000132 -0.000315  0.000721 -0.001593  0.003452 -0.006955  0.010136
                                -0.027546  0.457317 -0.584801  0.313210 -6.915705  6.814485 -0.234408  0.209395 -0.234156  1.630769
                                -1.034866  0.000000 -0.000000  0.000001 -0.000003  0.000011 -0.000037  0.000106 -0.000268  0.000608
                                -0.001280  0.002582 -0.004687  0.023752 -0.107402  0.110441 -0.059366  0.282100 -0.193368  0.156524
                                -0.173216  0.368581 -0.741003  0.000000 -0.000000 -0.000001  0.000000  0.000004 -0.000000 -0.000015
                                 0.000000  0.000044 -0.000001 -0.000139  0.000000  0.000245 -0.000008 -0.001044  0.000011  0.005696
                                -0.000034 -0.015159 -0.000029  0.023846 -0.000490 -0.029743  0.000361  0.022230 -0.000322 -0.030208
                                 0.002092 -0.030718  0.005116  0.021901  0.001092  0.071804  0.011548 -0.000696  0.000184  0.002018
                                 0.000987 -0.008868 -0.000295 -0.001218 -0.012360 -0.039175 -0.066172  0.000306 -0.000538  0.000326
                                -0.275218 -0.001602 -0.003919 -0.000073 -0.050657 -0.000155 -0.000201  0.004544 -0.000236

                                   1 3d2-    1 3d2-    1 3d2-    1 3d2-    1 3d2-    1 3d2-    1 3d2-    1 3d2-    1 3d2-    1 3d2- 
                                   1 3d2-    1 3d2-    1 3d2-    1 3d2-    1 3d2-    1 3d2-    1 3d2-    1 3d2-    1 3d2-    1 3d2- 
                                   1 3d2-    1 3d2-    1 4f2-    1 4f2-    1 4f2-    1 4f2-    1 4f2-    1 4f2-    1 4f2-    1 4f2- 
                                   1 4f2-    1 4f2-    1 4f2-    1 4f2-    1 4f2-    1 4f2-    1 4f2-    1 4f2-    1 4f2-    1 5g2- 
                                   1 5g4-    1 5g2-    1 5g4-    1 5g2-    1 5g4-    2 3d2-    2 3d2-    2 3d2-    2 3d2-    2 4f2- 
                                   2 4f2- 

   1.4   +    -0.5234  -11.5980 -0.000000  0.000000 -0.000000  0.000001 -0.000004  0.000014 -0.000040  0.000107 -0.000268  0.000743
                                -0.002863  0.018145 -0.058644 -0.047541  0.042609  0.253380  0.013578  0.402569  0.350616  0.159873
                                 0.021683 -0.000686  0.000000 -0.000000  0.000000 -0.000001  0.000003 -0.000007  0.000020 -0.000069
                                 0.000480 -0.001139  0.002515 -0.003827  0.003666 -0.005334 -0.003048 -0.000232 -0.000106 -0.000428
                                 0.001681  0.000825  0.003030  0.001563  0.003973  0.002276  0.007781  0.000113  0.002831 -0.001900
                                -0.001860

   2.4   0     0.0824   -2.6255 -0.000000  0.000000 -0.000001  0.000005 -0.000019  0.000064 -0.000184  0.000466 -0.001063  0.002277
                                -0.004878  0.011579 -0.051849  0.168308 -0.173980  0.152185 -0.465915  0.407497 -0.190034  0.217092
                                -0.487302  1.264797 -0.000000  0.000001 -0.000004  0.000014 -0.000040  0.000104 -0.000272  0.000796
                                -0.005063  0.013020 -0.021439  0.023438 -0.020667  0.014713 -0.022745  0.052127 -0.099335 -0.000000
                                -0.000058  0.000020 -0.000343 -0.000226  0.000208  0.000429 -0.000590  0.000001  0.005624 -0.000088
                                 0.000139

   3.4   0     0.1469   -2.5483 -0.000000  0.000000 -0.000000  0.000001 -0.000002  0.000007 -0.000021  0.000053 -0.000120  0.000258
                                -0.000558  0.001382 -0.006089  0.018602 -0.019272  0.018401 -0.052679  0.048422 -0.020252  0.025291
                                -0.052056  0.092779  0.000002 -0.000015  0.000069 -0.000247  0.000725 -0.001887  0.004896 -0.014471
                                 0.091524 -0.235453  0.385793 -0.421459  0.368011 -0.262989  0.371475 -1.008062  1.633100  0.000003
                                -0.000011  0.000057  0.000019 -0.000479 -0.000061  0.000802  0.002375  0.000027 -0.000854  0.000074
                                -0.001504

 HOMO      6.1    -0.336292 =      -9.1510eV
 LUMO      3.2    -0.002414 =      -0.0657eV
 LUMO-HOMO         0.333878 =       9.0853eV


 **********************************************************************************************************************************
 DATASETS  * FILE   NREC   LENGTH (MB)   RECORD NAMES
              1      19       22.57       500      610      700      900      950      970     1000      129      960     1100   
                                          VAR    BASINP    GEOM    SYMINP    ZMAT    AOBASIS   BASIS     P2S    ABASIS      S 
                                         1400     1410     1420     1200     1210     1080     1600     1650     1700   
                                           T        V       ECP      H0       H01     AOSYM     SMH    MOLCAS    OPER   

              2       4        4.55       700     1000      520     2100   
                                         GEOM     BASIS   MCVARS     RHF  

 PROGRAMS   *        TOTAL       RHF       INT
 CPU TIMES  *       218.62     12.00    206.38
 REAL TIME  *       232.23 SEC
 DISK USED  *        11.98 GB      
 SF USED    *         0.25 MB      
 GA USED    *         0.00 MB       (max)       0.00 MB       (current)
 **********************************************************************************************************************************
 SETTING SCF(1)         =      -119.38694682  AU                              


 PROGRAM * CCSD (Restricted open-shell coupled cluster)     Authors: C. Hampel, H.-J. Werner, 1991, M. Deegan, P.J. Knowles, 1992


 Convergence thresholds:  THRVAR = 1.00D-08  THRDEN = 1.00D-06

 CCSD(T)     terms to be evaluated (factor= 1.000)


 Number of closed-shell orbitals:  11 (   6   2   3   0 )
 Number of active  orbitals:        1 (   0   0   0   1 )
 Number of external orbitals:     443 ( 180 107 106  50 )

 Memory could be reduced to 445.68 Mwords without degradation in triples

 Number of N-1 electron functions:              23
 Number of N-2 electron functions:             253
 Number of singly external CSFs:              3275
 Number of doubly external CSFs:           9817564
 Total number of CSFs:                     9820839

 Molecular orbitals read from record     2100.2  Type=RHF/CANONICAL (state 1.4)

 Integral transformation finished. Total CPU:  16.64 sec, npass=  1  Memory used:  43.25 MW

 Starting RMP2 calculation

 Wavefunction is spin-projected

 ITER.      SQ.NORM     CORR.ENERGY   TOTAL ENERGY   ENERGY CHANGE        DEN1      VAR(S)    VAR(P)  DIIS     TIME
   1      1.24189535    -0.94674210  -120.33368892    -0.94674210    -0.00281270  0.64D-05  0.14D-02  1  1    18.05
   2      1.24531599    -0.94976388  -120.33671070    -0.00302178    -0.00000984  0.36D-07  0.77D-05  2  2    19.28
   3      1.24552718    -0.94986674  -120.33681356    -0.00010286    -0.00000006  0.15D-09  0.54D-07  3  3    20.66
   4      1.24553458    -0.94986818  -120.33681500    -0.00000144    -0.00000000  0.29D-11  0.25D-09  4  4    22.21
   5      1.24553461    -0.94986817  -120.33681499     0.00000001    -0.00000000  0.12D-12  0.14D-11  5  5    23.92

 Norm of t1 vector:      0.02784467      S-energy:    -0.00260409      T1 diagnostic:  0.00004451
 Norm of t2 vector:      0.49473153      P-energy:    -0.94726408
                                         Alpha-Beta:  -0.66822152
                                         Alpha-Alpha: -0.15145583
                                         Beta-Beta:   -0.12758672

 Spin contamination <S**2-Sz**2-Sz>     0.00000000
  Reference energy                   -119.386946820834
  RHF-RMP2 correlation energy          -0.949868166912
 !RHF-RMP2 energy                    -120.336814987746
 (NB above energy spin projected)

 Starting RCCSD calculation

 ITER.      SQ.NORM     CORR.ENERGY   TOTAL ENERGY   ENERGY CHANGE        DEN1      VAR(S)    VAR(P)  DIIS     TIME
   1      1.19424142    -0.86066305  -120.24760987    -0.86066305    -0.03668566  0.10D-01  0.75D-02  1  1    37.56
   2      1.21547723    -0.88902346  -120.27597028    -0.02836040    -0.00327622  0.41D-03  0.13D-02  2  2    50.34
   3      1.22551580    -0.89118468  -120.27813150    -0.00216122    -0.00064635  0.39D-03  0.18D-03  3  3    63.29
   4      1.23278232    -0.89330095  -120.28024777    -0.00211627    -0.00011045  0.44D-04  0.46D-04  4  4    76.24
   5      1.23730210    -0.89419841  -120.28114523    -0.00089746    -0.00001932  0.69D-05  0.11D-04  5  5    89.62
   6      1.23873444    -0.89432655  -120.28127338    -0.00012814    -0.00000539  0.16D-05  0.33D-05  6  6   102.82
   7      1.23945830    -0.89437675  -120.28132357    -0.00005020    -0.00000136  0.45D-06  0.76D-06  7  7   116.22
   8      1.23974506    -0.89439895  -120.28134577    -0.00002220    -0.00000027  0.99D-07  0.13D-06  8  8   129.83
   9      1.23981192    -0.89440024  -120.28134706    -0.00000129    -0.00000006  0.19D-07  0.31D-07  9  9   143.97
  10      1.23982267    -0.89440034  -120.28134716    -0.00000010    -0.00000001  0.40D-08  0.75D-08 10 10   158.61
  11      1.23982663    -0.89440137  -120.28134820    -0.00000104    -0.00000000  0.11D-08  0.27D-08 11 11   173.81
  12      1.23982781    -0.89440168  -120.28134850    -0.00000030    -0.00000000  0.27D-09  0.92D-09 12 12   187.50

 Norm of t1 vector:      0.14324289      S-energy:    -0.00278662      T1 diagnostic:  0.02032979
                                                                       D1 diagnostic:  0.05467420
 Norm of t2 vector:      0.46830469      P-energy:    -0.89161506
                                         Alpha-Beta:  -0.65800504
                                         Alpha-Alpha: -0.12668710
                                         Beta-Beta:   -0.10692292

 Spin contamination <S**2-Sz**2-Sz>     0.00000000

 Memory could be reduced to 458.42 Mwords without degradation in triples
 

  Correlated core orbitals:             1.1       2.1       1.2       1.3
  Orbital energies:                    -4.3237   -2.5738   -2.5540   -2.5429
 
  RCCSD core-core energy               -0.122199954867
  RCCSD core-valence energy            -0.221462286553
  RCCSD valence correlation energy     -0.550739435720
 

 RESULTS
 =======

  Reference energy                   -119.386946820834
  RCCSD singles energy                 -0.002786617229
  RCCSD pair energy                    -0.891615059911
  RCCSD correlation energy             -0.894401677140
  Triples (T) contribution             -0.047506659961
  Total correlation energy             -0.941908337101
 
  RHF-RCCSD energy                   -120.281348497974
  RHF-RCCSD[T] energy                -120.332635764052
  RHF-RCCSD-T energy                 -120.328355807907
 !RHF-RCCSD(T) energy                -120.328855157935

 Program statistics:

 Available memory in ccsd:              1023998628
 Min. memory needed in ccsd:              28062859
 Max. memory used in ccsd:                40287473
 Max. memory used in cckext:              32692403 (12 integral passes)
 Max. memory used in cckint:              43251562 ( 1 integral passes)



 **********************************************************************************************************************************
 DATASETS  * FILE   NREC   LENGTH (MB)   RECORD NAMES
              1      19       22.57       500      610      700      900      950      970     1000      129      960     1100   
                                          VAR    BASINP    GEOM    SYMINP    ZMAT    AOBASIS   BASIS     P2S    ABASIS      S 
                                         1400     1410     1420     1200     1210     1080     1600     1650     1700   
                                           T        V       ECP      H0       H01     AOSYM     SMH    MOLCAS    OPER   

              2       4        4.55       700     1000      520     2100   
                                         GEOM     BASIS   MCVARS     RHF  

 PROGRAMS   *        TOTAL  RCCSD(T)       RHF       INT
 CPU TIMES  *       685.97    467.29     12.00    206.38
 REAL TIME  *       785.55 SEC
 DISK USED  *        38.94 GB      
 SF USED    *         7.46 GB      
 GA USED    *         0.00 MB       (max)       0.00 MB       (current)
 **********************************************************************************************************************************
 SETTING CCSD(1)        =      -120.32885516  AU                              
 Output type csv         
                                                                                                                                                                                                                                                                

     Z,SCF,CCSD
   1.5,   -119.3869468,   -120.3288552
                                                  

 RCCSD(T)/USERDEF energy=   -120.328855157935

        RCCSD(T)        RHF-SCF 
   -120.32885516   -119.38694682
 **********************************************************************************************************************************
 Molpro calculation terminated
 Variable memory released
