
 Primary working directories    : /global/cscratch1/sd/bkincaid
 Secondary working directories  : /global/cscratch1/sd/bkincaid
 Wavefunction directory         : /global/homes/b/bkincaid/wfu/
 Main file repository           : /global/cscratch1/sd/bkincaid/

 SHA1      : 19cd028119e0e09f93f0674bd8af7968d9b3eff6
 NAME      : 2015.1.36
 ARCHNAME  : linux/x86_64
 FC        : /opt/cray/pe/craype/2.5.14/bin/ftn
 BLASLIB   : -L/opt/intel/compilers_and_libraries_2018.1.163/linux/mkl/lib/intel64 -Wl,-_start-group -lmkl_intel_ilp64 -lmkl_intel_thread -lmkl_core -Wl,-_end-group -liomp5
 id        : lbl

 Nodes     nprocs
 nid00763    23
 Number of processes for MPI-2 version of Molpro:   nprocs(total)=   24   nprocs(compute)=   23   nprocs(helper)=    1

 Using customized tuning parameters: mindgm=7; mindgv=16; mindgc=1; mindgr=1; noblas=0; minvec=7
 default implementation of scratch files=sf  

 ***,Calculation for Ag atom, singlet and triplet
 memory,512,m
 geometry={
 1
 Pd
 Pd  0.0 0.0 0.0
 }
 
 basis={
 Including file /global/u1/b/bkincaid/molpro/Pd/atoms/ecps/reg16/basis/reg16
 Including file /global/u1/b/bkincaid/molpro/Pd/atoms/ecps/reg16/basis/aug-cc-pwCVTZ.basis
 }
 
 Including file /global/u1/b/bkincaid/molpro/Pd/atoms/ecps/reg16/basis/states.proc
 
 do i=1,13
     if (i.eq.1) then
         Idten
     else if (i.eq.2) then
         EAs2d9
     else if (i.eq.3) then
         Is1d9
     else if (i.eq.4) then
         Is2d8
     else if (i.eq.5) then
         IId9
     else if (i.eq.6) then
         IIs1d8
     else if (i.eq.7) then
         IIId8
     else if (i.eq.8) then
         IVd7
     else if (i.eq.9) then
         Vd6
     else if (i.eq.10) then
         VId5
     else if (i.eq.11) then
         XIKr
     else if (i.eq.12) then
         XIVp3
     else if (i.eq.13) then
         XVIIs2
     endif
     scf(i)=energy
     _CC_NORM_MAX=2.0
    {rccsd(t),maxit=100;core}
     ccsd(i)=energy
 enddo
 
 table,scf,ccsd
 type,csv
 save

 Variables initialized (889), CPU time= 0.01 sec
 Commands  initialized (702), CPU time= 0.02 sec, 572 directives.
 Default parameters read. Elapsed time= 0.16 sec

 Checking input...
 Passed
1


                                         ***  PROGRAM SYSTEM MOLPRO  ***
                                       Copyright, TTI GmbH Stuttgart, 2015
                                    Version 2015.1 linked Dec 29 2018 15:55:43


 **********************************************************************************************************************************
 LABEL *   Calculation for Ag atom, singlet and triplet                                  
  64 bit mpp version                                                                     DATE: 07-Apr-21          TIME: 12:52:40  
 **********************************************************************************************************************************

 SHA1:             19cd028119e0e09f93f0674bd8af7968d9b3eff6
 **********************************************************************************************************************************

Geometry recognized as XYZ


 Variable memory set to  512000000 words,  buffer space   230000 words

 SETTING BASIS          =    USERDEF

 DO I                   =         1.00000000   

 Running procedure=IDTEN


 Recomputing integrals since basis changed


 Using spherical harmonics



 PROGRAM * SEWARD (Integral evaluation for generally contracted gaussian basis sets)     Author: Roland Lindh, 1990

 Geometry written to block  1 of record 700

 Orientation using atomic masses  
 Molecule type: Atom
 Symmetry elements: X,Y,Z
 Rotational constants:       0.0000000      0.0000000      0.0000000 GHz  (calculated with average atomic masses)

 Point group  D2h 



 ATOMIC COORDINATES

 NR  ATOM    CHARGE       X              Y              Z

   1  PD     18.00    0.000000000    0.000000000    0.000000000

 NUCLEAR CHARGE:                   18
 NUMBER OF PRIMITIVE AOS:         289
 NUMBER OF SYMMETRY AOS:          242
 NUMBER OF CONTRACTIONS:          242   (  73Ag  +  32B3u +  32B2u +  23B1g +  32B1u +  23B2g +  23B3g +   4Au  )
 NUMBER OF CORE ORBITALS:           4   (   1Ag  +   1B3u +   1B2u +   0B1g +   1B1u +   0B2g +   0B3g +   0Au  )
 NUMBER OF VALENCE ORBITALS:        6   (   3Ag  +   0B3u +   0B2u +   1B1g +   0B1u +   1B2g +   1B3g +   0Au  )


 NUCLEAR REPULSION ENERGY    0.00000000

 EXTRA SYMMETRY OF AOS IN SYMMETRY 1:   1 1 1 1 1 1 1 1 1 1   1 1 1 1 1 1 1 1 1 1   1 1 1 1 1 1 1 1 1 1   2 3 2 3 2 3 2 3 2 3
                                        2 3 2 3 2 3 2 3 2 3   2 3 2 3 2 3 2 3 2 3   2 3 2 3 4 5 6 4 5 6   4 5 6
 EXTRA SYMMETRY OF AOS IN SYMMETRY 2:   1 1 1 1 1 1 1 1 1 1   1 1 1 1 1 1 1 1 1 1   1 1 1 1 2 3 2 3 2 3   2 3
 EXTRA SYMMETRY OF AOS IN SYMMETRY 3:   1 1 1 1 1 1 1 1 1 1   1 1 1 1 1 1 1 1 1 1   1 1 1 1 2 3 2 3 2 3   2 3
 EXTRA SYMMETRY OF AOS IN SYMMETRY 4:   1 1 1 1 1 1 1 1 1 1   1 1 1 1 1 1 1 2 3 2   3 2 3
 EXTRA SYMMETRY OF AOS IN SYMMETRY 5:   1 1 1 1 1 1 1 1 1 1   1 1 1 1 1 1 1 1 1 1   1 1 1 1 2 3 2 3 2 3   2 3
 EXTRA SYMMETRY OF AOS IN SYMMETRY 6:   1 1 1 1 1 1 1 1 1 1   1 1 1 1 1 1 1 2 3 2   3 2 3
 EXTRA SYMMETRY OF AOS IN SYMMETRY 7:   1 1 1 1 1 1 1 1 1 1   1 1 1 1 1 1 1 2 3 2   3 2 3

 Eigenvalues of metric

         1 0.198E-05 0.951E-05 0.951E-05 0.291E-04 0.121E-03 0.307E-03 0.307E-03 0.363E-03
         2 0.982E-06 0.471E-03 0.163E-02 0.406E-02 0.938E-02 0.172E-01 0.270E-01 0.454E-01
         3 0.982E-06 0.471E-03 0.163E-02 0.406E-02 0.938E-02 0.172E-01 0.270E-01 0.454E-01
         4 0.951E-05 0.307E-03 0.302E-02 0.107E-01 0.287E-01 0.531E-01 0.105E+00 0.148E+00
         5 0.982E-06 0.471E-03 0.163E-02 0.406E-02 0.938E-02 0.172E-01 0.270E-01 0.454E-01
         6 0.951E-05 0.307E-03 0.302E-02 0.107E-01 0.287E-01 0.531E-01 0.105E+00 0.148E+00
         7 0.951E-05 0.307E-03 0.302E-02 0.107E-01 0.287E-01 0.531E-01 0.105E+00 0.148E+00
         8 0.941E-01 0.387E+00 0.119E+01 0.233E+01


 Contracted 2-electron integrals neglected if value below      1.0D-13
 AO integral compression algorithm  1   Integral accuracy      1.0D-13

     413.401 MB (compressed) written to integral file ( 46.0%)

     Node minimum: 4.719 MB, node maximum: 55.050 MB


 NUMBER OF SORTED TWO-ELECTRON INTEGRALS:    2444547.     BUFFER LENGTH:  32768
 NUMBER OF SEGMENTS:   1  SEGMENT LENGTH:    2444547      RECORD LENGTH: 524288

 Memory used in sort:       3.00 MW

 SORT1 READ   112766326. AND WROTE     1563133. INTEGRALS IN      5 RECORDS. CPU TIME:     2.70 SEC, REAL TIME:     3.55 SEC
 SORT2 READ    36622834. AND WROTE    56960207. INTEGRALS IN   1679 RECORDS. CPU TIME:     0.13 SEC, REAL TIME:     0.25 SEC

 Node minimum:     2444547.  Node maximum:     2491187. integrals

 OPERATOR DM      FOR CENTER  0  COORDINATES:    0.000000    0.000000    0.000000


 **********************************************************************************************************************************
 DATASETS  * FILE   NREC   LENGTH (MB)   RECORD NAMES
              1      19       20.37       500      610      700      900      950      970     1000      129      960     1100   
                                          VAR    BASINP    GEOM    SYMINP    ZMAT    AOBASIS   BASIS     P2S    ABASIS      S 
                                         1400     1410     1420     1200     1210     1080     1600     1650     1700   
                                           T        V       ECP      H0       H01     AOSYM     SMH    MOLCAS    OPER   

 PROGRAMS   *        TOTAL       INT
 CPU TIMES  *        27.30     26.76
 REAL TIME  *        32.64 SEC
 DISK USED  *       862.97 MB      
 GA USED    *         0.00 MB       (max)       0.00 MB       (current)
 **********************************************************************************************************************************


 PROGRAM * RHF-SCF (CLOSED SHELL)       Authors: W. Meyer, H.-J. Werner


 NUMBER OF ELECTRONS:       9+    9-    SPACE SYMMETRY=1    SPIN SYMMETRY: Singlet 
 CONVERGENCE THRESHOLDS:    1.00E-05 (Density)    1.00E-07 (Energy)
 MAX. NUMBER OF ITERATIONS:       60
 INTERPOLATION TYPE:            DIIS
 INTERPOLATION STEPS:              2 (START)      1 (STEP)
 LEVEL SHIFTS:                  0.00 (CLOSED)  0.00 (OPEN) 

 Number of closed-shell orbitals:    9 (   3   1   1   1   1   1   1   0 )


 
 Extra symmetries of mos in symmetry 1:   1   3   2
 Orbital guess generated from atomic densities. Full valence occupancy:    4   1   1   1   1   1   1   0


 Molecular orbital dump at record        4202.2

 ITERATION    DDIFF          GRAD             ENERGY        2-EL.EN.            DIPOLE MOMENTS         DIIS   ORB.
    1      0.000D+00      0.000D+00      -126.56829551    207.324245    0.00000    0.00000    0.00000    0    start
    2      0.000D+00      0.133D-01      -126.57075824    197.710795    0.00000    0.00000    0.00000    1    diag
    3      0.495D-02      0.147D-01      -126.60905015    202.221117    0.00000    0.00000    0.00000    2    diag
    4      0.205D-02      0.618D-03      -126.60910591    202.344379    0.00000    0.00000    0.00000    3    diag
    5      0.119D-03      0.739D-04      -126.60910692    202.362125    0.00000    0.00000    0.00000    4    diag
    6      0.382D-04      0.595D-05      -126.60910693    202.362503    0.00000    0.00000    0.00000    5    diag
    7      0.472D-05      0.447D-06      -126.60910693    202.362678    0.00000    0.00000    0.00000    0    orth

 Final occupancy:   3   1   1   1   1   1   1   0

 !RHF STATE 1.1 Energy               -126.609106929530
 Nuclear energy                         0.00000000
 One-electron energy                 -227.79044572
 Two-electron energy                  101.18133879
 Virial quotient                       -2.59615204
 !RHF STATE 1.1 Dipole moment           0.00000000     0.00000000     0.00000000
 Dipole moment /Debye                   0.00000000     0.00000000     0.00000000

 ELECTRON ORBITALS
 =================


   Orb  Occ    Energy  Couls-En    Coefficients

                                   1 1s      1 1s      1 1s      1 1s      1 1s      1 1s      1 1s      1 1s      1 1s      1 1s   
                                   1 1s      1 1s      1 1s      1 1s      1 1s      1 1s      1 1s      1 1s      1 1s      1 1s   
                                   1 1s      1 1s      1 1s      1 1s      1 1s      1 1s      1 1s      1 1s      1 1s      1 1s   
                                   1 3d0     1 3d2+    1 3d0     1 3d2+    1 3d0     1 3d2+    1 3d0     1 3d2+    1 3d0     1 3d2+ 
                                   1 3d0     1 3d2+    1 3d0     1 3d2+    1 3d0     1 3d2+    1 3d0     1 3d2+    1 3d0     1 3d2+ 
                                   1 3d0     1 3d2+    1 3d0     1 3d2+    1 3d0     1 3d2+    1 3d0     1 3d2+    1 3d0     1 3d2+ 
                                   1 3d0     1 3d2+    1 3d0     1 3d2+    1 5g0     1 5g4+    1 5g2+    1 5g0     1 5g4+    1 5g2+ 
                                   1 5g0     1 5g4+    1 5g2+ 

   1.1   2    -3.8432  -20.1048 -0.000000  0.000000 -0.000000  0.000000 -0.000000  0.000000 -0.000001  0.000003 -0.000008  0.000023
                                -0.000060  0.000157 -0.000400  0.001013 -0.002555  0.006430 -0.014835  0.003539  0.232528 -0.705828
                                -0.189319  0.913410  0.542042  0.036722 -0.016748  0.008111  0.099607 -0.091773 -0.003379  0.000834
                                 0.000000 -0.000000 -0.000000  0.000000  0.000000 -0.000000 -0.000000  0.000000  0.000000 -0.000000
                                -0.000000  0.000000  0.000000 -0.000000 -0.000000  0.000000  0.000000 -0.000000  0.000000 -0.000000
                                 0.000000 -0.000000 -0.000000  0.000000 -0.000000 -0.000000 -0.000000  0.000000 -0.000000  0.000000
                                -0.000000  0.000000 -0.000000 -0.000000 -0.000000 -0.000000 -0.000000 -0.000000  0.000000 -0.000000
                                 0.000000 -0.000000  0.000000

   2.1   2    -0.3267  -11.1321  0.000000 -0.000000 -0.000000  0.000000 -0.000000  0.000000 -0.000000  0.000000 -0.000000  0.000000
                                -0.000000  0.000000 -0.000000  0.000000 -0.000000  0.000000 -0.000000  0.000000 -0.000000  0.000000
                                 0.000000 -0.000001 -0.000000  0.000000 -0.000000  0.000000 -0.000000  0.000001 -0.000000  0.000000
                                 0.000000  0.000000 -0.000000 -0.000001  0.000001  0.000007 -0.000005 -0.000030  0.000023  0.000141
                                 0.000065  0.000394  0.001527  0.009195 -0.004949 -0.029795  0.007104  0.042769  0.035050  0.211026
                                 0.057261  0.344746  0.053703  0.323325  0.035518  0.213840  0.012614  0.075944  0.005475  0.032963
                                 0.003466  0.020870  0.000453  0.002727 -0.000000 -0.000000 -0.000000  0.000000  0.000000  0.000000
                                -0.000000 -0.000000 -0.000000

   3.1   2    -0.3267  -11.1321 -0.000000  0.000000  0.000000 -0.000000  0.000000 -0.000000  0.000000 -0.000000  0.000000 -0.000000
                                 0.000000 -0.000000  0.000000 -0.000000  0.000000 -0.000000  0.000000 -0.000000  0.000000 -0.000000
                                -0.000000  0.000000  0.000000 -0.000000  0.000000  0.000000  0.000000 -0.000000  0.000000 -0.000000
                                -0.000000  0.000000  0.000001 -0.000000 -0.000007  0.000001  0.000030 -0.000005 -0.000141  0.000023
                                -0.000394  0.000065 -0.009195  0.001527  0.029795 -0.004949 -0.042769  0.007104 -0.211026  0.035050
                                -0.344746  0.057261 -0.323325  0.053703 -0.213840  0.035518 -0.075944  0.012614 -0.032963  0.005475
                                -0.020870  0.003466 -0.002727  0.000453  0.000000 -0.000000 -0.000000  0.000000 -0.000000  0.000000
                                -0.000000 -0.000000 -0.000000

   4.1   0     0.0041   -2.1326  0.000000 -0.000000  0.000000 -0.000000  0.000000 -0.000000  0.000000 -0.000000  0.000000 -0.000000
                                 0.000001 -0.000002  0.000005 -0.000012  0.000036 -0.000108  0.000248  0.001555 -0.021851  0.082042
                                 0.096171 -0.213198 -0.130678  0.078573 -0.109972  0.436989 -0.087039  0.160585 -0.597706  1.272903
                                 0.000000  0.000000 -0.000000 -0.000000  0.000000  0.000000 -0.000000 -0.000000  0.000000  0.000000
                                -0.000000 -0.000000  0.000000  0.000000 -0.000000 -0.000000  0.000000  0.000000  0.000000  0.000000
                                 0.000000  0.000000  0.000000 -0.000000  0.000000  0.000000 -0.000000 -0.000000 -0.000000 -0.000000
                                -0.000000 -0.000000  0.000000  0.000000 -0.000000  0.000000  0.000000 -0.000000  0.000000 -0.000000
                                 0.000000 -0.000000  0.000000

   5.1   0     0.0235   -2.5611  0.000000 -0.000000  0.000000 -0.000000  0.000000 -0.000000  0.000000 -0.000001  0.000002 -0.000007
                                 0.000018 -0.000045  0.000116 -0.000291  0.000726 -0.001794  0.004305 -0.007289 -0.006573 -0.003744
                                -0.229505  0.261723  0.079286 -0.204120  0.680023 -1.223211  0.216738 -0.423560  2.967230 -1.951643
                                 0.000000  0.000000 -0.000000 -0.000000  0.000000  0.000000 -0.000000 -0.000000  0.000000  0.000000
                                -0.000000 -0.000000  0.000000  0.000000 -0.000000 -0.000000  0.000000  0.000000  0.000000  0.000000
                                 0.000000  0.000000  0.000000 -0.000000  0.000000  0.000000 -0.000000 -0.000000  0.000000 -0.000000
                                -0.000000 -0.000000  0.000000  0.000000  0.000000  0.000000  0.000000 -0.000000  0.000000 -0.000000
                                 0.000000 -0.000000  0.000000

                                   1 2px     1 2px     1 2px     1 2px     1 2px     1 2px     1 2px     1 2px     1 2px     1 2px  
                                   1 2px     1 2px     1 2px     1 2px     1 2px     1 2px     1 2px     1 2px     1 2px     1 2px  
                                   1 2px     1 2px     1 2px     1 2px     1 4f1+    1 4f3+    1 4f1+    1 4f3+    1 4f1+    1 4f3+ 
                                   1 4f1+    1 4f3+ 

   1.2   2    -2.4124  -16.9478  0.000000 -0.000000  0.000000 -0.000000  0.000002 -0.000007  0.000027 -0.000090  0.000270 -0.000780
                                 0.002389 -0.009500  0.049362 -0.119863 -0.333378  0.342484  0.292500  0.043805 -0.005305  0.003109
                                 0.194961  0.534551 -0.001446  0.000464 -0.000000  0.000000  0.000000 -0.000000  0.000000 -0.000000
                                 0.000000  0.000000

   2.2   0     0.0111   -1.1509 -0.000000  0.000000 -0.000000  0.000000 -0.000000  0.000001 -0.000003  0.000011 -0.000033  0.000088
                                -0.000227  0.000595 -0.001774  0.005603 -0.104546 -0.018539 -0.017538  0.030686 -0.068780  0.208943
                                 0.111338  0.008149 -0.565082  1.336855 -0.000000  0.000000  0.000000  0.000000 -0.000000  0.000000
                                 0.000000 -0.000000

   3.2   0     0.0407   -1.8471  0.000000 -0.000000  0.000000 -0.000000  0.000001 -0.000002  0.000008 -0.000027  0.000079 -0.000209
                                 0.000518 -0.001182  0.002311 -0.008924  0.315202  0.031619  0.031795 -0.074512  0.240388 -0.621157
                                -0.327340 -0.056284  2.090155 -1.174498 -0.000000  0.000000 -0.000000  0.000000 -0.000000  0.000000
                                 0.000000 -0.000000

                                   1 2py     1 2py     1 2py     1 2py     1 2py     1 2py     1 2py     1 2py     1 2py     1 2py  
                                   1 2py     1 2py     1 2py     1 2py     1 2py     1 2py     1 2py     1 2py     1 2py     1 2py  
                                   1 2py     1 2py     1 2py     1 2py     1 4f1-    1 4f3-    1 4f1-    1 4f3-    1 4f1-    1 4f3- 
                                   1 4f1-    1 4f3- 

   1.3   2    -2.4124  -16.9478  0.000000 -0.000000  0.000000 -0.000000  0.000002 -0.000007  0.000027 -0.000090  0.000270 -0.000780
                                 0.002389 -0.009500  0.049362 -0.119863 -0.333378  0.342484  0.292500  0.043805 -0.005305  0.003109
                                 0.194961  0.534551 -0.001446  0.000464  0.000000  0.000000  0.000000 -0.000000  0.000000 -0.000000
                                -0.000000  0.000000

   2.3   0     0.0111   -1.1509 -0.000000  0.000000 -0.000000  0.000000 -0.000000  0.000001 -0.000003  0.000011 -0.000033  0.000088
                                -0.000227  0.000595 -0.001774  0.005603 -0.104546 -0.018539 -0.017538  0.030686 -0.068780  0.208943
                                 0.111338  0.008149 -0.565082  1.336855 -0.000000  0.000000  0.000000  0.000000 -0.000000  0.000000
                                 0.000000 -0.000000

   3.3   0     0.0407   -1.8471  0.000000 -0.000000  0.000000 -0.000000  0.000001 -0.000002  0.000008 -0.000027  0.000079 -0.000209
                                 0.000518 -0.001182  0.002311 -0.008924  0.315202  0.031619  0.031795 -0.074512  0.240388 -0.621157
                                -0.327340 -0.056284  2.090155 -1.174498 -0.000000  0.000000 -0.000000  0.000000 -0.000000  0.000000
                                 0.000000 -0.000000

                                   1 3d2-    1 3d2-    1 3d2-    1 3d2-    1 3d2-    1 3d2-    1 3d2-    1 3d2-    1 3d2-    1 3d2- 
                                   1 3d2-    1 3d2-    1 3d2-    1 3d2-    1 3d2-    1 3d2-    1 3d2-    1 5g2-    1 5g4-    1 5g2- 
                                   1 5g4-    1 5g2-    1 5g4- 

   1.4   2    -0.3267  -11.1321  0.000000 -0.000001  0.000007 -0.000031  0.000143  0.000400  0.009321 -0.030203  0.043355  0.213917
                                 0.349469  0.327754  0.216770  0.076984  0.033414  0.021156  0.002765 -0.000000  0.000000 -0.000000
                                 0.000000  0.000000 -0.000000

   2.4   0     0.1009   -2.2245  0.000001 -0.000006  0.000032 -0.000128  0.000425 -0.001333  0.002909 -0.009195  0.057045  0.536062
                                 0.448736 -0.190537  0.186134 -0.476933 -0.400180 -0.606689  1.256238  0.000000 -0.000000 -0.000000
                                 0.000000 -0.000000  0.000000

   3.4   0     0.3433   -3.3264 -0.000003  0.000020 -0.000105  0.000424 -0.001429  0.004003 -0.014510  0.046441 -0.208081 -1.852938
                                -1.671441  0.454609 -0.825900  1.896099  1.269380  1.963880 -0.890482  0.000000 -0.000000 -0.000000
                                 0.000000  0.000000 -0.000000

                                   1 2pz     1 2pz     1 2pz     1 2pz     1 2pz     1 2pz     1 2pz     1 2pz     1 2pz     1 2pz  
                                   1 2pz     1 2pz     1 2pz     1 2pz     1 2pz     1 2pz     1 2pz     1 2pz     1 2pz     1 2pz  
                                   1 2pz     1 2pz     1 2pz     1 2pz     1 4f0     1 4f2+    1 4f0     1 4f2+    1 4f0     1 4f2+ 
                                   1 4f0     1 4f2+ 

   1.5   2    -2.4124  -16.9478  0.000000 -0.000000  0.000000 -0.000000  0.000002 -0.000007  0.000027 -0.000090  0.000270 -0.000780
                                 0.002389 -0.009500  0.049362 -0.119863 -0.333378  0.342484  0.292500  0.043805 -0.005305  0.003109
                                 0.194961  0.534551 -0.001446  0.000464 -0.000000 -0.000000  0.000000 -0.000000  0.000000 -0.000000
                                -0.000000 -0.000000

   2.5   0     0.0111   -1.1509 -0.000000  0.000000 -0.000000  0.000000 -0.000000  0.000001 -0.000003  0.000011 -0.000033  0.000088
                                -0.000227  0.000595 -0.001774  0.005603 -0.104546 -0.018539 -0.017538  0.030686 -0.068780  0.208943
                                 0.111338  0.008149 -0.565082  1.336855 -0.000000  0.000000  0.000000  0.000000 -0.000000  0.000000
                                 0.000000  0.000000

   3.5   0     0.0407   -1.8471  0.000000 -0.000000  0.000000 -0.000000  0.000001 -0.000002  0.000008 -0.000027  0.000079 -0.000209
                                 0.000518 -0.001182  0.002311 -0.008924  0.315202  0.031619  0.031795 -0.074512  0.240388 -0.621157
                                -0.327340 -0.056284  2.090155 -1.174498 -0.000000  0.000000 -0.000000  0.000000 -0.000000  0.000000
                                 0.000000 -0.000000

                                   1 3d1+    1 3d1+    1 3d1+    1 3d1+    1 3d1+    1 3d1+    1 3d1+    1 3d1+    1 3d1+    1 3d1+ 
                                   1 3d1+    1 3d1+    1 3d1+    1 3d1+    1 3d1+    1 3d1+    1 3d1+    1 5g1+    1 5g3+    1 5g1+ 
                                   1 5g3+    1 5g1+    1 5g3+ 

   1.6   2    -0.3267  -11.1321  0.000000 -0.000001  0.000007 -0.000031  0.000143  0.000400  0.009321 -0.030203  0.043355  0.213917
                                 0.349469  0.327754  0.216770  0.076984  0.033414  0.021156  0.002765 -0.000000 -0.000000 -0.000000
                                 0.000000  0.000000 -0.000000

   2.6   0     0.1009   -2.2245  0.000001 -0.000006  0.000032 -0.000128  0.000425 -0.001333  0.002909 -0.009195  0.057045  0.536062
                                 0.448736 -0.190537  0.186134 -0.476933 -0.400180 -0.606689  1.256238  0.000000 -0.000000 -0.000000
                                 0.000000 -0.000000  0.000000

   3.6   0     0.3433   -3.3264 -0.000003  0.000020 -0.000105  0.000424 -0.001429  0.004003 -0.014510  0.046441 -0.208081 -1.852938
                                -1.671441  0.454609 -0.825900  1.896099  1.269380  1.963880 -0.890482  0.000000 -0.000000 -0.000000
                                 0.000000  0.000000 -0.000000

                                   1 3d1-    1 3d1-    1 3d1-    1 3d1-    1 3d1-    1 3d1-    1 3d1-    1 3d1-    1 3d1-    1 3d1- 
                                   1 3d1-    1 3d1-    1 3d1-    1 3d1-    1 3d1-    1 3d1-    1 3d1-    1 5g1-    1 5g3-    1 5g1- 
                                   1 5g3-    1 5g1-    1 5g3- 

   1.7   2    -0.3267  -11.1321  0.000000 -0.000001  0.000007 -0.000031  0.000143  0.000400  0.009321 -0.030203  0.043355  0.213917
                                 0.349469  0.327754  0.216770  0.076984  0.033414  0.021156  0.002765 -0.000000  0.000000 -0.000000
                                 0.000000  0.000000 -0.000000

   2.7   0     0.1009   -2.2245  0.000001 -0.000006  0.000032 -0.000128  0.000425 -0.001333  0.002909 -0.009195  0.057045  0.536062
                                 0.448736 -0.190537  0.186134 -0.476933 -0.400180 -0.606689  1.256238  0.000000 -0.000000 -0.000000
                                 0.000000 -0.000000  0.000000

   3.7   0     0.3433   -3.3264 -0.000003  0.000020 -0.000105  0.000424 -0.001429  0.004003 -0.014510  0.046441 -0.208081 -1.852938
                                -1.671441  0.454609 -0.825900  1.896099  1.269380  1.963880 -0.890482  0.000000 -0.000000 -0.000000
                                 0.000000 -0.000000 -0.000000

                                   1 4f2-    1 4f2-    1 4f2-    1 4f2- 

   1.8   0     0.8894   -4.2711 -0.007025  0.132799 -0.231843  1.117228

   2.8   0     2.0943   -5.3364  0.214894 -0.062090  1.280811 -0.768285

 HOMO      1.4    -0.326708 =      -8.8902eV
 LUMO      4.1     0.004068 =       0.1107eV
 LUMO-HOMO         0.330776 =       9.0009eV


 **********************************************************************************************************************************
 DATASETS  * FILE   NREC   LENGTH (MB)   RECORD NAMES
              1      19       20.40       500      610      700      900      950      970     1000      129      960     1100   
                                          VAR    BASINP    GEOM    SYMINP    ZMAT    AOBASIS   BASIS     P2S    ABASIS      S 
                                         1400     1410     1420     1200     1210     1080     1600     1650     1700   
                                           T        V       ECP      H0       H01     AOSYM     SMH    MOLCAS    OPER   

              2       5        5.58       200      700     1000      520     4202   
                                        OPTIONS   GEOM     BASIS   MCVARS     RHF  

 PROGRAMS   *        TOTAL       RHF       INT
 CPU TIMES  *        27.75      0.45     26.76
 REAL TIME  *        33.25 SEC
 DISK USED  *         1.48 GB      
 SF USED    *         0.04 MB      
 GA USED    *         0.00 MB       (max)       0.00 MB       (current)
 **********************************************************************************************************************************
 SETTING SCF(1)         =      -126.60910693  AU                              
 SETTING _CC_NORM_MAX   =         2.00000000                                  


 PROGRAM * CCSD (Restricted open-shell coupled cluster)     Authors: C. Hampel, H.-J. Werner, 1991, M. Deegan, P.J. Knowles, 1992


 Convergence thresholds:  THRVAR = 1.00D-08  THRDEN = 1.00D-06

 CCSD(T)     terms to be evaluated (factor= 1.000)


 Number of closed-shell orbitals:   9 (   3   1   1   1   1   1   1   0 )
 Number of external orbitals:     233 (  70  31  31  22  31  22  22   4 )

 Memory could be reduced to 29.42 Mwords without degradation in triples

 Number of N-1 electron functions:              18
 Number of N-2 electron functions:             153
 Number of singly external CSFs:               738
 Number of doubly external CSFs:            813477
 Total number of CSFs:                      814215

 Molecular orbitals read from record     4202.2  Type=RHF/CANONICAL (state 1.1)

 Integral transformation finished. Total CPU:   0.71 sec, npass=  1  Memory used:   4.84 MW

 Starting RMP2 calculation

 Wavefunction is spin-projected

 ITER.      SQ.NORM     CORR.ENERGY   TOTAL ENERGY   ENERGY CHANGE        DEN1      VAR(S)    VAR(P)  DIIS     TIME
   1      1.14325051    -0.76991203  -127.37901896    -0.76991203    -0.00136921  0.15D-11  0.52D-03  1  1     0.97
   2      1.14446783    -0.77135608  -127.38046301    -0.00144405    -0.00000363  0.62D-13  0.25D-05  2  2     1.10
   3      1.14453755    -0.77139711  -127.38050404    -0.00004103    -0.00000001  0.17D-14  0.11D-07  3  3     1.29
   4      1.14453944    -0.77139745  -127.38050438    -0.00000034    -0.00000000  0.38D-16  0.58D-10  4  4     1.55

 Norm of t1 vector:      0.00000733      S-energy:    -0.00000000      T1 diagnostic:  0.00000122
 Norm of t2 vector:      0.38018343      P-energy:    -0.77139745
                                         Alpha-Beta:  -0.53245576
                                         Alpha-Alpha: -0.11947085
                                         Beta-Beta:   -0.11947085

 Spin contamination <S**2-Sz**2-Sz>     0.00000000
  Reference energy                   -126.609106929530
  RHF-RMP2 correlation energy          -0.771397448090
 !RHF-RMP2 energy                    -127.380504377620
 (NB above energy spin projected)

 Starting RCCSD calculation

 ITER.      SQ.NORM     CORR.ENERGY   TOTAL ENERGY   ENERGY CHANGE        DEN1      VAR(S)    VAR(P)  DIIS     TIME
   1      1.11331354    -0.71092274  -127.32002967    -0.71092274    -0.01724336  0.25D-02  0.33D-02  1  1     2.18
   2      1.12102173    -0.72559552  -127.33470245    -0.01467278    -0.00088270  0.42D-04  0.32D-03  2  2     2.62
   3      1.12192049    -0.72560765  -127.33471458    -0.00001213    -0.00008958  0.64D-04  0.17D-04  3  3     3.03
   4      1.12258563    -0.72588517  -127.33499209    -0.00027752    -0.00000938  0.39D-05  0.32D-05  4  4     3.52
   5      1.12297734    -0.72598851  -127.33509544    -0.00010334    -0.00000091  0.79D-06  0.24D-06  5  5     4.06
   6      1.12306910    -0.72599797  -127.33510490    -0.00000946    -0.00000011  0.45D-07  0.41D-07  6  6     4.86
   7      1.12309567    -0.72599863  -127.33510556    -0.00000066    -0.00000002  0.27D-07  0.25D-08  6  1     5.90
   8      1.12310172    -0.72599991  -127.33510684    -0.00000128    -0.00000000  0.25D-08  0.23D-09  6  2     6.79
   9      1.12310298    -0.72599917  -127.33510610     0.00000075    -0.00000000  0.30D-09  0.81D-10  6  3     7.59

 Norm of t1 vector:      0.05329220      S-energy:    -0.00000014      T1 diagnostic:  0.00888203
                                                                       D1 diagnostic:  0.01657237
 Norm of t2 vector:      0.34678945      P-energy:    -0.72599903
                                         Alpha-Beta:  -0.52092301
                                         Alpha-Alpha: -0.10253801
                                         Beta-Beta:   -0.10253801

 Spin contamination <S**2-Sz**2-Sz>     0.00000000

 Memory could be reduced to 29.91 Mwords without degradation in triples
 

  Correlated core orbitals:             1.1       1.2       1.3       1.5
  Orbital energies:                    -3.8432   -2.4124   -2.4124   -2.4124
 
  RCCSD core-core energy               -0.113285188174
  RCCSD core-valence energy            -0.261731267291
  RCCSD valence correlation energy     -0.350982710565
 

 RESULTS
 =======

  Reference energy                   -126.609106929530
  RCCSD singles energy                 -0.000000135572
  RCCSD pair energy                    -0.725999030458
  RCCSD correlation energy             -0.725999166030
  Triples (T) contribution             -0.029636517456
  Total correlation energy             -0.755635683486
 
  RHF-RCCSD energy                   -127.335106095561
  RHF-RCCSD[T] energy                -127.365810701610
  RHF-RCCSD-T energy                 -127.364589485964
 !RHF-RCCSD(T) energy                -127.364742613016

 Program statistics:

 Available memory in ccsd:               511999162
 Min. memory needed in ccsd:               2450153
 Max. memory used in ccsd:                 3434108
 Max. memory used in cckext:               2685931 ( 9 integral passes)
 Max. memory used in cckint:               4839137 ( 1 integral passes)



 **********************************************************************************************************************************
 DATASETS  * FILE   NREC   LENGTH (MB)   RECORD NAMES
              1      19       20.40       500      610      700      900      950      970     1000      129      960     1100   
                                          VAR    BASINP    GEOM    SYMINP    ZMAT    AOBASIS   BASIS     P2S    ABASIS      S 
                                         1400     1410     1420     1200     1210     1080     1600     1650     1700   
                                           T        V       ECP      H0       H01     AOSYM     SMH    MOLCAS    OPER   

              2       5        5.58       200      700     1000      520     4202   
                                        OPTIONS   GEOM     BASIS   MCVARS     RHF  

 PROGRAMS   *        TOTAL  RCCSD(T)       RHF       INT
 CPU TIMES  *        42.77     15.00      0.45     26.76
 REAL TIME  *        59.66 SEC
 DISK USED  *         3.80 GB      
 SF USED    *       440.31 MB      
 GA USED    *         0.00 MB       (max)       0.00 MB       (current)
 **********************************************************************************************************************************
 SETTING CCSD(1)        =      -127.36474261  AU                              

 DO I                   =         2.00000000   

 Running procedure=EAS2D9


 PROGRAM * RHF-SCF (OPEN SHELL)       Authors: W. Meyer, H.-J. Werner


 NUMBER OF ELECTRONS:      10+    9-    SPACE SYMMETRY=1    SPIN SYMMETRY: Doublet 
 CONVERGENCE THRESHOLDS:    1.00E-05 (Density)    1.00E-07 (Energy)
 MAX. NUMBER OF ITERATIONS:       60
 INTERPOLATION TYPE:            DIIS
 INTERPOLATION STEPS:              2 (START)      1 (STEP)
 LEVEL SHIFTS:                 -0.60 (CLOSED) -0.30 (OPEN) 

 Number of closed-shell orbitals:    9 (   3   1   1   1   1   1   1   0 )
 Number of open-shell orbitals:      1 (   1   0   0   0   0   0   0   0 )


 
 Extra symmetries of mos in symmetry 1:   1   1   3   2
 Orbital guess generated from atomic densities. Full valence occupancy:    4   1   1   1   1   1   1   0


 Molecular orbital dump at record        4202.2

 ITERATION    DDIFF          GRAD             ENERGY        2-EL.EN.            DIPOLE MOMENTS         DIIS   ORB.
    1      0.000D+00      0.000D+00      -126.59153351    207.185931    0.00000    0.00000    0.00000    0    start
    2      0.000D+00      0.431D-02      -126.59907931    206.721197    0.00000    0.00000    0.00000    1    diag,B
    3      0.244D-02      0.136D-02      -126.60202680    206.320428    0.00000    0.00000    0.00000    2    diag,B
    4      0.182D-02      0.927D-03      -126.60476787    205.893428    0.00000    0.00000    0.00000    3    diag,B
    5      0.215D-02      0.632D-03      -126.60671412    205.423006    0.00000    0.00000    0.00000    4    diag,B
    6      0.236D-02      0.404D-03      -126.60750122    205.206385    0.00000    0.00000    0.00000    5    diag,B
    7      0.195D-02      0.293D-03      -126.60812949    204.966802    0.00000    0.00000    0.00000    6    fixocc
    8      0.359D-02      0.169D-03      -126.60834853    204.842197    0.00000    0.00000    0.00000    7    diag,B
    9      0.242D-02      0.111D-03      -126.60844498    204.784850    0.00000    0.00000    0.00000    8    diag,B
   10      0.983D-03      0.846D-04      -126.60853101    204.720270    0.00000    0.00000    0.00000    9    orth
   11      0.124D-02      0.588D-04      -126.60857841    204.694879    0.00000    0.00000    0.00000    9    diag,B
   12      0.179D-02      0.331D-04      -126.60859265    204.653634    0.00000    0.00000    0.00000    9    diag,B
   13      0.115D-02      0.133D-04      -126.60859343    204.662285    0.00000    0.00000    0.00000    9    diag,B
   14      0.277D-03      0.695D-05      -126.60859371    204.657049    0.00000    0.00000    0.00000    9    diag,B
   15      0.774D-04      0.526D-05      -126.60859386    204.656767    0.00000    0.00000    0.00000    9    diag,B
   16      0.134D-04      0.499D-05      -126.60859403    204.656399    0.00000    0.00000    0.00000    9    diag,B
   17      0.655D-05      0.491D-05      -126.60859429    204.656307    0.00000    0.00000    0.00000    9    diag,B
   18      0.587D-05      0.487D-05      -126.60859494    204.656583    0.00000    0.00000    0.00000    9    diag,B
   19      0.838D-05      0.480D-05      -126.60859689    204.656570    0.00000    0.00000    0.00000    9    diag,B
   20      0.257D-04      0.460D-05      -126.60859922    204.656598    0.00000    0.00000    0.00000    9    orth
   21      0.331D-04      0.435D-05      -126.60860837    204.654342    0.00000    0.00000    0.00000    9    diag,B
   22      0.170D-03      0.104D-04      -126.60860733    204.655095    0.00000    0.00000    0.00000    9    diag,B
   23      0.322D-04      0.773D-05      -126.60860463    204.657023    0.00000    0.00000    0.00000    9    diag,B
   24      0.572D-04      0.438D-05      -126.60860528    204.658225    0.00000    0.00000    0.00000    9    diag,B
   25      0.161D-04      0.447D-05      -126.60860413    204.657271    0.00000    0.00000    0.00000    9    diag,B
   26      0.239D-04      0.389D-05      -126.60861019    204.656661    0.00000    0.00000    0.00000    9    diag,B
   27      0.149D-03      0.138D-04      -126.60860998    204.657188    0.00000    0.00000    0.00000    9    diag,B
   28      0.109D-04      0.132D-04      -126.60860886    204.657482    0.00000    0.00000    0.00000    9    diag,B
   29      0.368D-04      0.882D-05      -126.60860891    204.657431    0.00000    0.00000    0.00000    9    diag,B
   30      0.259D-05      0.887D-05      -126.60860862    204.657479    0.00000    0.00000    0.00000    0    orth

 Final alpha occupancy:   4   1   1   1   1   1   1   0
 Final beta  occupancy:   3   1   1   1   1   1   1   0

 !RHF STATE 1.1 Energy               -126.608608624688
 Nuclear energy                         0.00000000
 One-electron energy                 -228.93734829
 Two-electron energy                  102.32873966
 Virial quotient                       -2.63148001
 !RHF STATE 1.1 Dipole moment           0.00000000     0.00000000     0.00000000
 Dipole moment /Debye                   0.00000000     0.00000000     0.00000000

 ELECTRON ORBITALS
 =================


   Orb  Occ    Energy  Couls-En    Coefficients

                                   1 1s      1 1s      1 1s      1 1s      1 1s      1 1s      1 1s      1 1s      1 1s      1 1s   
                                   1 1s      1 1s      1 1s      1 1s      1 1s      1 1s      1 1s      1 1s      1 1s      1 1s   
                                   1 1s      1 1s      1 1s      1 1s      1 1s      1 1s      1 1s      1 1s      1 1s      1 1s   
                                   1 3d0     1 3d2+    1 3d0     1 3d2+    1 3d0     1 3d2+    1 3d0     1 3d2+    1 3d0     1 3d2+ 
                                   1 3d0     1 3d2+    1 3d0     1 3d2+    1 3d0     1 3d2+    1 3d0     1 3d2+    1 3d0     1 3d2+ 
                                   1 3d0     1 3d2+    1 3d0     1 3d2+    1 3d0     1 3d2+    1 3d0     1 3d2+    1 3d0     1 3d2+ 
                                   1 3d0     1 3d2+    1 3d0     1 3d2+    1 5g0     1 5g4+    1 5g2+    1 5g0     1 5g4+    1 5g2+ 
                                   1 5g0     1 5g4+    1 5g2+ 

   1.1   2    -3.8037  -20.0845 -0.000000  0.000000 -0.000000  0.000000 -0.000000  0.000000 -0.000001  0.000003 -0.000008  0.000023
                                -0.000061  0.000159 -0.000407  0.001031 -0.002600  0.006541 -0.015103  0.004034  0.232555 -0.704369
                                -0.174961  0.894325  0.523051  0.030979 -0.014410  0.006943  0.085289 -0.053687 -0.002848  0.000725
                                 0.000000 -0.000000 -0.000000  0.000000  0.000000 -0.000000 -0.000001  0.000000  0.000002 -0.000000
                                -0.000008  0.000000  0.000037 -0.000009 -0.000105  0.000029 -0.000197 -0.000017  0.000800 -0.000211
                                -0.000520 -0.000210 -0.002006 -0.000076 -0.001193 -0.000027 -0.000214 -0.000009  0.000326 -0.000049
                                 0.000876 -0.000083 -0.000010  0.000000 -0.000224 -0.000000 -0.000011 -0.000469 -0.000000 -0.000023
                                -0.000723 -0.000001 -0.000033

   2.1   2    -0.0227   -4.7378  0.000000 -0.000000  0.000000 -0.000000  0.000000 -0.000000  0.000000 -0.000001  0.000002 -0.000005
                                 0.000012 -0.000031  0.000080 -0.000204  0.000519 -0.001324  0.003159 -0.001388 -0.048235  0.164742
                                 0.054709 -0.274346 -0.228674  0.104169  0.316771  0.350973 -0.044175  0.062524  0.296183  0.127831
                                -0.000000  0.000000  0.000000 -0.000000 -0.000000  0.000000  0.000000 -0.000000 -0.000001  0.000000
                                -0.000005  0.000001 -0.000102  0.000016  0.000333 -0.000052 -0.000381  0.000067 -0.002035  0.000330
                                -0.003323  0.000546 -0.001475  0.000393  0.003702 -0.000126  0.004753 -0.000304 -0.000830  0.000102
                                -0.001062  0.000113  0.004386 -0.000352 -0.000125 -0.000000 -0.000004 -0.000277 -0.000001 -0.000009
                                 0.000166  0.000000  0.000010

   3.1   2    -0.2519  -11.2752 -0.000000  0.000000 -0.000000  0.000000 -0.000000  0.000000 -0.000000  0.000000 -0.000000  0.000000
                                -0.000000  0.000000 -0.000001  0.000002 -0.000005  0.000011 -0.000027  0.000028  0.000247 -0.000772
                                 0.000519  0.000372  0.000068 -0.001167 -0.000395 -0.000209 -0.000450  0.001274  0.000051 -0.000016
                                -0.000000  0.000000  0.000000 -0.000001 -0.000000  0.000007  0.000001 -0.000030 -0.000005  0.000144
                                -0.000016  0.000431 -0.000356  0.009625  0.001155 -0.031230 -0.001662  0.044927 -0.008103  0.219191
                                -0.013336  0.360634 -0.012311  0.332528 -0.007067  0.190443 -0.002008  0.053907 -0.001362  0.036801
                                -0.000933  0.025240 -0.000110  0.002861 -0.000038 -0.000078  0.000937 -0.000074 -0.000118  0.001115
                                -0.000095 -0.000205  0.002538

   4.1   +    -0.3340  -11.4987  0.000000 -0.000000  0.000000 -0.000000  0.000000 -0.000000  0.000000 -0.000000  0.000000 -0.000001
                                 0.000001 -0.000004  0.000009 -0.000023  0.000058 -0.000145  0.000354 -0.000561 -0.001280  0.003700
                                -0.016658  0.012094  0.013049  0.022803 -0.001567 -0.002562  0.013646 -0.033833 -0.006158 -0.001806
                                 0.000000  0.000000 -0.000001 -0.000000  0.000008  0.000000 -0.000032 -0.000001  0.000149  0.000006
                                 0.000428  0.000016  0.009815  0.000364 -0.031790 -0.001180  0.045051  0.001672  0.224984  0.008354
                                 0.372238  0.013793  0.335131  0.012380  0.171371  0.006335  0.036950  0.001382  0.036647  0.001357
                                 0.025408  0.000944  0.000772  0.000037  0.002250 -0.000006 -0.000054  0.003867 -0.000010 -0.000087
                                 0.005515 -0.000013 -0.000118

   5.1   0     0.0766   -1.1555 -0.000000  0.000000 -0.000000  0.000000 -0.000000  0.000000 -0.000000  0.000001 -0.000003  0.000007
                                -0.000020  0.000052 -0.000131  0.000330 -0.000815  0.001993 -0.004796  0.010473 -0.018210  0.101688
                                 0.384318 -0.558455 -0.243140  0.298847 -0.893152  1.695414 -0.358845  0.686788 -3.019452  2.419969
                                 0.000000 -0.000000 -0.000000  0.000000  0.000000 -0.000000 -0.000000  0.000000  0.000001 -0.000000
                                 0.000003 -0.000000  0.000057 -0.000002 -0.000184  0.000007  0.000219 -0.000007  0.000998 -0.000022
                                 0.001762 -0.000047  0.001281 -0.000028 -0.000478  0.000064 -0.000952  0.000073  0.000523 -0.000034
                                 0.000685 -0.000048 -0.000544  0.000039  0.000050  0.000000  0.000001  0.000063  0.000000  0.000001
                                -0.000349 -0.000001 -0.000018

   6.1   0     0.1607   -2.1700  0.000000 -0.000000  0.000000 -0.000000  0.000000 -0.000000  0.000000 -0.000002  0.000005 -0.000013
                                 0.000034 -0.000088  0.000224 -0.000558  0.001367 -0.003283  0.007927 -0.023107  0.093459 -0.412341
                                -0.963189  1.611872  0.824966 -0.867192  1.964086 -4.711075  0.890706 -1.694109  4.826597 -1.496656
                                 0.000000 -0.000000 -0.000000  0.000000  0.000000 -0.000000 -0.000001  0.000000  0.000004 -0.000000
                                 0.000000  0.000000  0.000158 -0.000007 -0.000514  0.000022  0.000905 -0.000044  0.006051 -0.000327
                                 0.007287 -0.000341  0.001931  0.000017 -0.000874  0.000133 -0.003443  0.000262 -0.001305  0.000111
                                -0.002260  0.000177  0.001091 -0.000094  0.000129  0.000000  0.000004  0.000160  0.000000  0.000003
                                -0.000964 -0.000001 -0.000048

                                   1 2px     1 2px     1 2px     1 2px     1 2px     1 2px     1 2px     1 2px     1 2px     1 2px  
                                   1 2px     1 2px     1 2px     1 2px     1 2px     1 2px     1 2px     1 2px     1 2px     1 2px  
                                   1 2px     1 2px     1 2px     1 2px     1 4f1+    1 4f3+    1 4f1+    1 4f3+    1 4f1+    1 4f3+ 
                                   1 4f1+    1 4f3+ 

   1.2   2    -2.3579  -16.9182  0.000000 -0.000000  0.000000 -0.000000  0.000002 -0.000007  0.000027 -0.000089  0.000267 -0.000771
                                 0.002370 -0.009476  0.049475 -0.120087 -0.350473  0.342969  0.285530  0.038497 -0.004028  0.002874
                                 0.212096  0.542776 -0.001194  0.000398  0.002815 -0.000087  0.003631 -0.000128  0.002969 -0.000026
                                 0.000242  0.000023

   2.2   0     0.0691   -0.9290 -0.000000  0.000000 -0.000000  0.000000 -0.000001  0.000002 -0.000009  0.000028 -0.000081  0.000217
                                -0.000552  0.001390 -0.003737  0.012345 -0.279845 -0.041412 -0.039260  0.073080 -0.177884  0.486198
                                 0.295195  0.032144 -1.204570  1.637351 -0.000004  0.000001 -0.000000  0.000000 -0.000007  0.000000
                                 0.000060 -0.000006

   3.2   0     0.1304   -1.6834  0.000000 -0.000000  0.000000 -0.000000  0.000001 -0.000004  0.000016 -0.000052  0.000152 -0.000407
                                 0.001023 -0.002472  0.005888 -0.020571  0.565052  0.070527  0.068462 -0.138226  0.416839 -1.031846
                                -0.591571 -0.082843  2.231653 -0.891240 -0.000055  0.000007  0.000032 -0.000001 -0.000118  0.000009
                                 0.000777 -0.000080

                                   1 2py     1 2py     1 2py     1 2py     1 2py     1 2py     1 2py     1 2py     1 2py     1 2py  
                                   1 2py     1 2py     1 2py     1 2py     1 2py     1 2py     1 2py     1 2py     1 2py     1 2py  
                                   1 2py     1 2py     1 2py     1 2py     1 4f1-    1 4f3-    1 4f1-    1 4f3-    1 4f1-    1 4f3- 
                                   1 4f1-    1 4f3- 

   1.3   2    -2.3584  -16.9194  0.000000 -0.000000  0.000000 -0.000000  0.000002 -0.000007  0.000027 -0.000089  0.000267 -0.000771
                                 0.002369 -0.009475  0.049475 -0.120071 -0.350856  0.342966  0.285355  0.038292 -0.004026  0.002860
                                 0.212427  0.543063 -0.001189  0.000396  0.002933 -0.000081  0.003759 -0.000121  0.003202 -0.000018
                                 0.000302  0.000024

   2.3   0     0.0691   -0.9291 -0.000000  0.000000 -0.000000  0.000000 -0.000001  0.000002 -0.000009  0.000028 -0.000081  0.000217
                                -0.000552  0.001390 -0.003737  0.012345 -0.279782 -0.041411 -0.039260  0.073090 -0.177846  0.486197
                                 0.295132  0.032128 -1.204415  1.637281 -0.000004  0.000001  0.000000  0.000000 -0.000007  0.000000
                                 0.000055 -0.000006

   3.3   0     0.1304   -1.6850  0.000000 -0.000000  0.000000 -0.000000  0.000001 -0.000004  0.000016 -0.000052  0.000152 -0.000406
                                 0.001022 -0.002466  0.005869 -0.020517  0.564430  0.070354  0.068315 -0.137879  0.416742 -1.029968
                                -0.590885 -0.082901  2.230153 -0.890896 -0.000049  0.000007  0.000034 -0.000001 -0.000115  0.000009
                                 0.000720 -0.000082

                                   1 3d2-    1 3d2-    1 3d2-    1 3d2-    1 3d2-    1 3d2-    1 3d2-    1 3d2-    1 3d2-    1 3d2- 
                                   1 3d2-    1 3d2-    1 3d2-    1 3d2-    1 3d2-    1 3d2-    1 3d2-    1 5g2-    1 5g4-    1 5g2- 
                                   1 5g4-    1 5g2-    1 5g4- 

   1.4   2    -0.2519  -11.2754  0.000000 -0.000001  0.000007 -0.000030  0.000144  0.000432  0.009632 -0.031252  0.044958  0.219346
                                 0.360890  0.332760  0.190556  0.053926  0.036828  0.025260  0.002860  0.000935 -0.000078  0.001112
                                -0.000118  0.002534 -0.000205

   2.4   0     0.2167   -2.0506  0.000001 -0.000008  0.000041 -0.000166  0.000552 -0.001696  0.004146 -0.013137  0.075185  0.697324
                                 0.589841 -0.228485  0.248747 -0.563962 -0.512296 -0.776822  1.294386 -0.000019  0.000007 -0.000049
                                 0.000019 -0.000026  0.000006

   3.4   0     0.4806   -3.1837 -0.000003  0.000021 -0.000108  0.000437 -0.001472  0.004144 -0.014732  0.047150 -0.213797 -1.906593
                                -1.712332  0.475007 -0.801033  1.869052  1.311294  2.024418 -0.838700 -0.000052  0.000023 -0.000247
                                 0.000088  0.000087 -0.000024

                                   1 2pz     1 2pz     1 2pz     1 2pz     1 2pz     1 2pz     1 2pz     1 2pz     1 2pz     1 2pz  
                                   1 2pz     1 2pz     1 2pz     1 2pz     1 2pz     1 2pz     1 2pz     1 2pz     1 2pz     1 2pz  
                                   1 2pz     1 2pz     1 2pz     1 2pz     1 4f0     1 4f2+    1 4f0     1 4f2+    1 4f0     1 4f2+ 
                                   1 4f0     1 4f2+ 

   1.5   2    -2.3633  -16.9328  0.000000 -0.000000  0.000000 -0.000000  0.000002 -0.000007  0.000027 -0.000088  0.000266 -0.000769
                                 0.002365 -0.009469  0.049475 -0.119892 -0.355112  0.342961  0.283442  0.036019 -0.004027  0.002705
                                 0.216117  0.546262 -0.001129  0.000375 -0.001049 -0.000196 -0.000892 -0.000253 -0.003155 -0.000212
                                -0.001032 -0.000019

   2.5   0     0.0691   -0.9296 -0.000000  0.000000 -0.000000  0.000000 -0.000001  0.000002 -0.000009  0.000028 -0.000081  0.000217
                                -0.000551  0.001388 -0.003736  0.012334 -0.279051 -0.041394 -0.039266  0.073218 -0.177399  0.486164
                                 0.294396  0.031945 -1.202662  1.636498 -0.000011  0.000000 -0.000009 -0.000000  0.000002  0.000001
                                 0.000120 -0.000004

   3.5   0     0.1298   -1.7050  0.000000 -0.000000  0.000000 -0.000000  0.000001 -0.000004  0.000016 -0.000051  0.000149 -0.000399
                                 0.001001 -0.002406  0.005652 -0.019888  0.557511  0.068349  0.066616 -0.133626  0.415848 -1.008514
                                -0.583236 -0.083702  2.212743 -0.886832 -0.000145  0.000004 -0.000029 -0.000002 -0.000071  0.000009
                                 0.001589 -0.000055

                                   1 3d1+    1 3d1+    1 3d1+    1 3d1+    1 3d1+    1 3d1+    1 3d1+    1 3d1+    1 3d1+    1 3d1+ 
                                   1 3d1+    1 3d1+    1 3d1+    1 3d1+    1 3d1+    1 3d1+    1 3d1+    1 5g1+    1 5g3+    1 5g1+ 
                                   1 5g3+    1 5g1+    1 5g3+ 

   1.6   2    -0.2803  -11.3546  0.000000 -0.000001  0.000007 -0.000031  0.000145  0.000433  0.009704 -0.031489  0.045108  0.220935
                                 0.364087  0.333865  0.184497  0.047660  0.037323  0.025871  0.001904  0.000991 -0.000065  0.001510
                                -0.000087  0.002527 -0.000172

   2.6   0     0.2162   -2.0512  0.000001 -0.000008  0.000041 -0.000165  0.000550 -0.001685  0.004152 -0.013160  0.074918  0.694246
                                 0.587798 -0.226211  0.248621 -0.559166 -0.509426 -0.772628  1.292238 -0.000082  0.000003 -0.000240
                                 0.000008 -0.000059  0.000002

   3.6   0     0.4777   -3.1750 -0.000003  0.000020 -0.000107  0.000433 -0.001457  0.004104 -0.014553  0.046581 -0.211541 -1.887271
                                -1.694456  0.471659 -0.788845  1.864294  1.298613  2.004659 -0.840230 -0.000275  0.000009 -0.001127
                                 0.000040  0.000361 -0.000014

                                   1 3d1-    1 3d1-    1 3d1-    1 3d1-    1 3d1-    1 3d1-    1 3d1-    1 3d1-    1 3d1-    1 3d1- 
                                   1 3d1-    1 3d1-    1 3d1-    1 3d1-    1 3d1-    1 3d1-    1 3d1-    1 5g1-    1 5g3-    1 5g1- 
                                   1 5g3-    1 5g1-    1 5g3- 

   1.7   2    -0.2828  -11.3615  0.000000 -0.000001  0.000007 -0.000031  0.000145  0.000433  0.009711 -0.031510  0.045121  0.221077
                                 0.364371  0.333952  0.183958  0.047132  0.037363  0.025920  0.001833  0.000957 -0.000065  0.001450
                                -0.000087  0.002437 -0.000171

   2.7   0     0.2161   -2.0513  0.000001 -0.000008  0.000041 -0.000165  0.000549 -0.001684  0.004153 -0.013161  0.074892  0.693964
                                 0.587605 -0.226016  0.248603 -0.558736 -0.509171 -0.772254  1.292043 -0.000077  0.000003 -0.000226
                                 0.000009 -0.000054  0.000002

   3.7   0     0.4774   -3.1743 -0.000003  0.000020 -0.000107  0.000432 -0.001456  0.004101 -0.014537  0.046531 -0.211342 -1.885558
                                -1.692871  0.471354 -0.787768  1.863866  1.297482  2.002897 -0.840370 -0.000259  0.000010 -0.001063
                                 0.000041  0.000346 -0.000015

                                   1 4f2-    1 4f2-    1 4f2-    1 4f2- 

   1.8   0     1.0335   -4.1803 -0.002949  0.131910 -0.208278  1.102852

   2.8   0     2.1798   -5.2692  0.216933 -0.044871  1.263580 -0.780731

 HOMO      1.4    -0.251931 =      -6.8554eV
 LUMO      2.5     0.069083 =       1.8798eV
 LUMO-HOMO         0.321014 =       8.7352eV


 **********************************************************************************************************************************
 DATASETS  * FILE   NREC   LENGTH (MB)   RECORD NAMES
              1      19       20.40       500      610      700      900      950      970     1000      129      960     1100   
                                          VAR    BASINP    GEOM    SYMINP    ZMAT    AOBASIS   BASIS     P2S    ABASIS      S 
                                         1400     1410     1420     1200     1210     1080     1600     1650     1700   
                                           T        V       ECP      H0       H01     AOSYM     SMH    MOLCAS    OPER   

              2       5        5.66       200      700     1000      520     4202   
                                        OPTIONS   GEOM     BASIS   MCVARS     RHF  

 PROGRAMS   *        TOTAL       RHF  RCCSD(T)       RHF       INT
 CPU TIMES  *        43.72      0.95     15.00      0.45     26.76
 REAL TIME  *        61.00 SEC
 DISK USED  *         3.80 GB      
 SF USED    *       440.31 MB      
 GA USED    *         0.00 MB       (max)       0.00 MB       (current)
 **********************************************************************************************************************************


 PROGRAM * POP (Mulliken population analysis)

 
 Density matrix read from record         4202.2  Type=RHF/CHARGE (state 1.1)
 
 Population analysis by basis function type

 Unique atom        s        p        d        f        g    Total    Charge
   1  PD      4.00001  5.99968  8.99976  0.00032  0.00023 19.00000  - 1.00000


 **********************************************************************************************************************************
 DATASETS  * FILE   NREC   LENGTH (MB)   RECORD NAMES
              1      19       20.40       500      610      700      900      950      970     1000      129      960     1100   
                                          VAR    BASINP    GEOM    SYMINP    ZMAT    AOBASIS   BASIS     P2S    ABASIS      S 
                                         1400     1410     1420     1200     1210     1080     1600     1650     1700   
                                           T        V       ECP      H0       H01     AOSYM     SMH    MOLCAS    OPER   

              2       5        5.66       200      700     1000      520     4202   
                                        OPTIONS   GEOM     BASIS   MCVARS     RHF  

 PROGRAMS   *        TOTAL       POP       RHF  RCCSD(T)       RHF       INT
 CPU TIMES  *        43.73      0.00      0.95     15.00      0.45     26.76
 REAL TIME  *        61.02 SEC
 DISK USED  *         3.80 GB      
 SF USED    *       440.31 MB      
 GA USED    *         0.00 MB       (max)       0.00 MB       (current)
 **********************************************************************************************************************************


 PROGRAM * MULTI (Direct Multiconfiguration SCF)       Authors: P.J. Knowles, H.-J. Werner (1984)     S.T. Elbert (1988)


 Number of closed-shell orbitals:   5 (   2   1   1   0   1   0   0   0 )
 Number of active  orbitals:        5 (   2   0   0   1   0   1   1   0 )
 Number of external orbitals:     232 (  69  31  31  22  31  22  22   4 )

 State symmetry 1

 Number of electrons:     9    Spin symmetry=Doublet   Space symmetry=1
 Number of states:        2
 Number of CSFs:          2   (2 determinants, 5 intermediate states)

 State symmetry 2

 Number of electrons:     9    Spin symmetry=Doublet   Space symmetry=4
 Number of states:        1
 Number of CSFs:          1   (1 determinants, 5 intermediate states)

 State symmetry 3

 Number of electrons:     9    Spin symmetry=Doublet   Space symmetry=6
 Number of states:        1
 Number of CSFs:          1   (1 determinants, 5 intermediate states)

 State symmetry 4

 Number of electrons:     9    Spin symmetry=Doublet   Space symmetry=7
 Number of states:        1
 Number of CSFs:          1   (1 determinants, 5 intermediate states)

 Molecular orbitals read from record     4202.2  Type=RHF/CANONICAL (state 1.1)
 *** IN SYMMETRY 1 ORBITAL  1 SYMMETRY CONTAMINATION OF 0.308D-02 HAS BEEN REMOVED
 *** IN SYMMETRY 1 ORBITAL  2 SYMMETRY CONTAMINATION OF 0.121D-01 HAS BEEN REMOVED
 *** IN SYMMETRY 1 ORBITAL  3 SYMMETRY CONTAMINATION OF 0.433D-01 HAS BEEN REMOVED
 *** IN SYMMETRY 1 ORBITAL  4 SYMMETRY CONTAMINATION OF 0.128D+00 HAS BEEN REMOVED

 EXTRA SYMMETRY OF MOS IN SYMMETRY 1:   1 1 3 2 1 1 2 3 1 2   3 1 2 3 1 2 3 4 6 5   2 3 1 4 6 5 2 3 1 4   6 5 2 3 1 2 3 2 3 1
                                        2 3 1 1 2 3 1 2 3 1   2 3 1 1 2 3 1 2 3 1   1 2 3 1 1 1 1 1 1 1   1 1 1
 *** IN SYMMETRY 2 ORBITAL  1 SYMMETRY CONTAMINATION OF 0.503D-02 HAS BEEN REMOVED
 EXTRA SYMMETRY OF MOS IN SYMMETRY 2:   1 1 1 1 1 1 2 3 2 3   1 2 3 1 2 3 1 1 1 1   1 1 1 1 1 1 1 1 1 1   1 1
 *** IN SYMMETRY 3 ORBITAL  1 SYMMETRY CONTAMINATION OF 0.529D-02 HAS BEEN REMOVED
 EXTRA SYMMETRY OF MOS IN SYMMETRY 3:   1 1 1 1 1 1 2 3 2 3   1 2 3 1 2 3 1 1 1 1   1 1 1 1 1 1 1 1 1 1   1 1
 *** IN SYMMETRY 4 ORBITAL  1 SYMMETRY CONTAMINATION OF 0.379D-02 HAS BEEN REMOVED
 EXTRA SYMMETRY OF MOS IN SYMMETRY 4:   1 1 1 1 1 2 3 1 2 3   1 2 3 1 1 1 1 1 1 1   1 1 1
 *** IN SYMMETRY 5 ORBITAL  1 SYMMETRY CONTAMINATION OF 0.344D-02 HAS BEEN REMOVED
 EXTRA SYMMETRY OF MOS IN SYMMETRY 5:   1 1 1 1 1 1 2 3 2 3   1 2 3 1 2 3 1 1 1 1   1 1 1 1 1 1 1 1 1 1   1 1
 *** IN SYMMETRY 6 ORBITAL  1 SYMMETRY CONTAMINATION OF 0.409D-02 HAS BEEN REMOVED
 EXTRA SYMMETRY OF MOS IN SYMMETRY 6:   1 1 1 1 1 2 3 1 2 3   1 2 3 1 1 1 1 1 1 1   1 1 1
 *** IN SYMMETRY 7 ORBITAL  1 SYMMETRY CONTAMINATION OF 0.395D-02 HAS BEEN REMOVED
 EXTRA SYMMETRY OF MOS IN SYMMETRY 7:   1 1 1 1 1 2 3 1 2 3   1 2 3 1 1 1 1 1 1 1   1 1 1

 Wavefunction dump at record             5202.2

 Convergence thresholds  0.10E-01 (gradient)  0.10E-05 (energy)  0.10E-02 (step length)

 Weight factors for state symmetry  1:    0.20000   0.20000
 Weight factors for state symmetry  2:    0.20000
 Weight factors for state symmetry  3:    0.20000
 Weight factors for state symmetry  4:    0.20000

 Number of orbital rotations:      439   (     4 Core/Active    231 Core/Virtual   0 Active/Active    204 Active/Virtual)
 Total number of variables:        446


 ITER. MIC  NCI  NEG     ENERGY(VAR)     ENERGY(PROJ)   ENERGY CHANGE     GRAD(0)  GRAD(ORB)   GRAD(CI)     STEP       TIME

   1   37   16    0    -126.60403043    -126.60502249   -0.00099207    0.04554620 0.00000000 0.00000000  0.29D-01      0.20
   2   26   20    0    -126.60502302    -126.60502317   -0.00000015    0.00030003 0.00000000 0.00000000  0.97D-03      0.34
   3   22   20    0    -126.60502317    -126.60502317   -0.00000000    0.00000012 0.00000000 0.00000000  0.43D-06      0.47

 ** WVFN ****  CONVERGENCE REACHED, FINAL GRADIENT:  0.63D-11



 Results for state 1.1
 =====================

 !MCSCF STATE 1.1 Energy             -126.605023171304
 Nuclear energy                         0.00000000
 Kinetic energy                        48.10914677
 One electron energy                 -228.93968592
 Two electron energy                  102.33466275
 Virial ratio                           3.63162063

 !MCSCF STATE 1.1 Dipole moment         0.00000000     0.00000000     0.00000000
 Dipole moment /Debye                   0.00000000     0.00000000     0.00000000

 Results for state 2.1
 =====================

 !MCSCF STATE 2.1 Energy             -126.605023171304
 Nuclear energy                         0.00000000
 Kinetic energy                        48.10914677
 One electron energy                 -228.93968592
 Two electron energy                  102.33466275
 Virial ratio                           3.63162063

 !MCSCF STATE 2.1 Dipole moment         0.00000000     0.00000000     0.00000000
 Dipole moment /Debye                   0.00000000     0.00000000     0.00000000



 Results for state 1.4
 =====================

 !MCSCF STATE 1.4 Energy             -126.605023171304
 Nuclear energy                         0.00000000
 Kinetic energy                        48.10914677
 One electron energy                 -228.93968592
 Two electron energy                  102.33466275
 Virial ratio                           3.63162063

 !MCSCF STATE 1.4 Dipole moment         0.00000000     0.00000000     0.00000000
 Dipole moment /Debye                   0.00000000     0.00000000     0.00000000



 Results for state 1.6
 =====================

 !MCSCF STATE 1.6 Energy             -126.605023171304
 Nuclear energy                         0.00000000
 Kinetic energy                        48.10914677
 One electron energy                 -228.93968592
 Two electron energy                  102.33466275
 Virial ratio                           3.63162063

 !MCSCF STATE 1.6 Dipole moment         0.00000000     0.00000000     0.00000000
 Dipole moment /Debye                   0.00000000     0.00000000     0.00000000



 Results for state 1.7
 =====================

 !MCSCF STATE 1.7 Energy             -126.605023171304
 Nuclear energy                         0.00000000
 Kinetic energy                        48.10914677
 One electron energy                 -228.93968592
 Two electron energy                  102.33466275
 Virial ratio                           3.63162063

 !MCSCF STATE 1.7 Dipole moment         0.00000000     0.00000000     0.00000000
 Dipole moment /Debye                   0.00000000     0.00000000     0.00000000

 State-averaged charge density matrix saved on record  5202.2 (density set 1)


 NATURAL ORBITALS (state averaged)
 =================================

   Orb     Occ        Energy       Coefficients

                                   1 1s      1 1s      1 1s      1 1s      1 1s      1 1s      1 1s      1 1s      1 1s      1 1s   
                                   1 1s      1 1s      1 1s      1 1s      1 1s      1 1s      1 1s      1 1s      1 1s      1 1s   
                                   1 1s      1 1s      1 1s      1 1s      1 1s      1 1s      1 1s      1 1s      1 1s      1 1s   
                                   1 3d0     1 3d2+    1 3d0     1 3d2+    1 3d0     1 3d2+    1 3d0     1 3d2+    1 3d0     1 3d2+ 
                                   1 3d0     1 3d2+    1 3d0     1 3d2+    1 3d0     1 3d2+    1 3d0     1 3d2+    1 3d0     1 3d2+ 
                                   1 3d0     1 3d2+    1 3d0     1 3d2+    1 3d0     1 3d2+    1 3d0     1 3d2+    1 3d0     1 3d2+ 
                                   1 3d0     1 3d2+    1 3d0     1 3d2+    1 5g0     1 5g4+    1 5g2+    1 5g0     1 5g4+    1 5g2+ 
                                   1 5g0     1 5g4+    1 5g2+ 

   1.1  2.00000    -3.803749    -0.000000  0.000000 -0.000000  0.000000 -0.000000  0.000000 -0.000001  0.000003 -0.000008  0.000023
                                -0.000061  0.000159 -0.000407  0.001031 -0.002600  0.006540 -0.015101  0.004030  0.232551 -0.704363
                                -0.175054  0.894459  0.523129  0.031122 -0.014423  0.006928  0.085375 -0.053957 -0.002886  0.000714
                                 0.000000  0.000000  0.000000  0.000000  0.000000  0.000000  0.000000  0.000000  0.000000  0.000000
                                 0.000000  0.000000  0.000000  0.000000  0.000000  0.000000  0.000000  0.000000  0.000000  0.000000
                                 0.000000  0.000000  0.000000  0.000000  0.000000  0.000000  0.000000  0.000000  0.000000  0.000000
                                 0.000000  0.000000  0.000000  0.000000  0.000000  0.000000  0.000000  0.000000  0.000000  0.000000
                                 0.000000  0.000000  0.000000

   2.1  2.00000    -0.022686     0.000000 -0.000000  0.000000 -0.000000  0.000000 -0.000000  0.000000 -0.000001  0.000002 -0.000005
                                 0.000012 -0.000031  0.000081 -0.000204  0.000519 -0.001324  0.003161 -0.001392 -0.048232  0.164721
                                 0.054569 -0.274178 -0.228485  0.104068  0.316787  0.350710 -0.044056  0.062272  0.296129  0.128404
                                 0.000000  0.000000  0.000000  0.000000  0.000000  0.000000  0.000000  0.000000  0.000000  0.000000
                                 0.000000  0.000000  0.000000  0.000000  0.000000  0.000000  0.000000  0.000000  0.000000  0.000000
                                 0.000000  0.000000  0.000000  0.000000  0.000000  0.000000  0.000000  0.000000  0.000000  0.000000
                                 0.000000  0.000000  0.000000  0.000000  0.000000  0.000000  0.000000  0.000000  0.000000  0.000000
                                 0.000000  0.000000  0.000000

   3.1  1.80000    -0.212746     0.000000  0.000000  0.000000  0.000000  0.000000  0.000000  0.000000  0.000000  0.000000  0.000000
                                 0.000000  0.000000  0.000000  0.000000  0.000000  0.000000  0.000000  0.000000  0.000000  0.000000
                                 0.000000  0.000000  0.000000  0.000000  0.000000  0.000000  0.000000  0.000000  0.000000  0.000000
                                 0.000000  0.000000 -0.000001  0.000000  0.000007  0.000000 -0.000031  0.000000  0.000145  0.000000
                                 0.000432  0.000000  0.009687  0.000000 -0.031424  0.000000  0.045046  0.000000  0.220667  0.000000
                                 0.363560  0.000000  0.333617  0.000000  0.185822  0.000000  0.049061  0.000000  0.037085  0.000000
                                 0.025623  0.000000  0.002096  0.000000  0.000000  0.000000  0.000000  0.000000  0.000000  0.000000
                                 0.000000  0.000000  0.000000

   4.1  1.80000    -0.212746     0.000000  0.000000  0.000000  0.000000  0.000000  0.000000  0.000000  0.000000  0.000000  0.000000
                                 0.000000  0.000000  0.000000  0.000000  0.000000  0.000000  0.000000  0.000000  0.000000  0.000000
                                 0.000000  0.000000  0.000000  0.000000  0.000000  0.000000  0.000000  0.000000  0.000000  0.000000
                                 0.000000  0.000000  0.000000 -0.000001  0.000000  0.000007  0.000000 -0.000031  0.000000  0.000145
                                 0.000000  0.000432  0.000000  0.009687  0.000000 -0.031424  0.000000  0.045046  0.000000  0.220667
                                 0.000000  0.363560  0.000000  0.333617  0.000000  0.185822  0.000000  0.049061  0.000000  0.037085
                                 0.000000  0.025623  0.000000  0.002096  0.000000  0.000000  0.000000  0.000000  0.000000  0.000000
                                 0.000000  0.000000  0.000000

                                   1 2px     1 2px     1 2px     1 2px     1 2px     1 2px     1 2px     1 2px     1 2px     1 2px  
                                   1 2px     1 2px     1 2px     1 2px     1 2px     1 2px     1 2px     1 2px     1 2px     1 2px  
                                   1 2px     1 2px     1 2px     1 2px     1 4f1+    1 4f3+    1 4f1+    1 4f3+    1 4f1+    1 4f3+ 
                                   1 4f1+    1 4f3+ 

   1.2  2.00000    -2.359700     0.000000 -0.000000  0.000000 -0.000000  0.000002 -0.000007  0.000027 -0.000089  0.000267 -0.000771
                                 0.002368 -0.009474  0.049478 -0.120024 -0.352107  0.342994  0.284782  0.037610 -0.004031  0.002813
                                 0.213499  0.544037 -0.001171  0.000390  0.000000  0.000000  0.000000  0.000000  0.000000  0.000000
                                 0.000000  0.000000

                                   1 2py     1 2py     1 2py     1 2py     1 2py     1 2py     1 2py     1 2py     1 2py     1 2py  
                                   1 2py     1 2py     1 2py     1 2py     1 2py     1 2py     1 2py     1 2py     1 2py     1 2py  
                                   1 2py     1 2py     1 2py     1 2py     1 4f1-    1 4f3-    1 4f1-    1 4f3-    1 4f1-    1 4f3- 
                                   1 4f1-    1 4f3- 

   1.3  2.00000    -2.359700     0.000000 -0.000000  0.000000 -0.000000  0.000002 -0.000007  0.000027 -0.000089  0.000267 -0.000771
                                 0.002368 -0.009474  0.049478 -0.120024 -0.352107  0.342994  0.284782  0.037610 -0.004031  0.002813
                                 0.213499  0.544037 -0.001171  0.000390  0.000000  0.000000  0.000000  0.000000  0.000000  0.000000
                                 0.000000  0.000000

                                   1 3d2-    1 3d2-    1 3d2-    1 3d2-    1 3d2-    1 3d2-    1 3d2-    1 3d2-    1 3d2-    1 3d2- 
                                   1 3d2-    1 3d2-    1 3d2-    1 3d2-    1 3d2-    1 3d2-    1 3d2-    1 5g2-    1 5g4-    1 5g2- 
                                   1 5g4-    1 5g2-    1 5g4- 

   1.4  1.80000    -0.212746     0.000000 -0.000001  0.000007 -0.000031  0.000145  0.000432  0.009687 -0.031424  0.045046  0.220667
                                 0.363560  0.333617  0.185822  0.049061  0.037085  0.025623  0.002096  0.000000  0.000000  0.000000
                                 0.000000  0.000000  0.000000

                                   1 2pz     1 2pz     1 2pz     1 2pz     1 2pz     1 2pz     1 2pz     1 2pz     1 2pz     1 2pz  
                                   1 2pz     1 2pz     1 2pz     1 2pz     1 2pz     1 2pz     1 2pz     1 2pz     1 2pz     1 2pz  
                                   1 2pz     1 2pz     1 2pz     1 2pz     1 4f0     1 4f2+    1 4f0     1 4f2+    1 4f0     1 4f2+ 
                                   1 4f0     1 4f2+ 

   1.5  2.00000    -2.359700     0.000000 -0.000000  0.000000 -0.000000  0.000002 -0.000007  0.000027 -0.000089  0.000267 -0.000771
                                 0.002368 -0.009474  0.049478 -0.120024 -0.352107  0.342994  0.284782  0.037610 -0.004031  0.002813
                                 0.213499  0.544037 -0.001171  0.000390  0.000000  0.000000  0.000000  0.000000  0.000000  0.000000
                                 0.000000  0.000000

                                   1 3d1+    1 3d1+    1 3d1+    1 3d1+    1 3d1+    1 3d1+    1 3d1+    1 3d1+    1 3d1+    1 3d1+ 
                                   1 3d1+    1 3d1+    1 3d1+    1 3d1+    1 3d1+    1 3d1+    1 3d1+    1 5g1+    1 5g3+    1 5g1+ 
                                   1 5g3+    1 5g1+    1 5g3+ 

   1.6  1.80000    -0.212746     0.000000 -0.000001  0.000007 -0.000031  0.000145  0.000432  0.009687 -0.031424  0.045046  0.220667
                                 0.363560  0.333617  0.185822  0.049061  0.037085  0.025623  0.002096  0.000000  0.000000  0.000000
                                 0.000000  0.000000  0.000000

                                   1 3d1-    1 3d1-    1 3d1-    1 3d1-    1 3d1-    1 3d1-    1 3d1-    1 3d1-    1 3d1-    1 3d1- 
                                   1 3d1-    1 3d1-    1 3d1-    1 3d1-    1 3d1-    1 3d1-    1 3d1-    1 5g1-    1 5g3-    1 5g1- 
                                   1 5g3-    1 5g1-    1 5g3- 

   1.7  1.80000    -0.212746     0.000000 -0.000001  0.000007 -0.000031  0.000145  0.000432  0.009687 -0.031424  0.045046  0.220667
                                 0.363560  0.333617  0.185822  0.049061  0.037085  0.025623  0.002096  0.000000  0.000000  0.000000
                                 0.000000  0.000000  0.000000

 Total charge:  -1.000000000000
 

 EXTRA SYMMETRY OF MOS IN SYMMETRY 1:   1 1 2 3 1 1 3 2 1 3   2 1 2 3 1 2 3 4 5 6   2 3 1 5 4 6 2 3 1 4   5 6 3 2 1 2 3 2 3 1
                                        2 3 1 1 2 3 1 3 2 1   2 3 1 1 2 3 1 2 3 1   1 2 3 1 1 1 1 1 1 1   1 1 1
 EXTRA SYMMETRY OF MOS IN SYMMETRY 2:   1 1 1 1 1 1 2 3 3 2   1 3 2 1 3 2 1 1 1 1   1 1 1 1 1 1 1 1 1 1   1 1
 EXTRA SYMMETRY OF MOS IN SYMMETRY 3:   1 1 1 1 1 1 2 3 2 3   1 3 2 1 3 2 1 1 1 1   1 1 1 1 1 1 1 1 1 1   1 1
 EXTRA SYMMETRY OF MOS IN SYMMETRY 4:   1 1 1 1 1 2 3 1 3 2   1 2 3 1 1 1 1 1 1 1   1 1 1
 EXTRA SYMMETRY OF MOS IN SYMMETRY 6:   1 1 1 1 1 3 2 1 3 2   1 2 3 1 1 1 1 1 1 1   1 1 1
 EXTRA SYMMETRY OF MOS IN SYMMETRY 7:   1 1 1 1 1 3 2 1 3 2   1 2 3 1 1 1 1 1 1 1   1 1 1

 Natural orbital dump (state averaged) at molpro section  5202.2    (Orbital set 2)


 CI vector for state symmetry 1
 ==============================

 a2 2 2 2          1.0000000   0.0000000
 2a 2 2 2          0.0000000   1.0000000

 TOTAL ENERGIES                      -126.60502317  -126.60502317

 CI vector for state symmetry 2
 ==============================

 22 a 2 2          1.0000000

 TOTAL ENERGIES                      -126.60502317

 CI vector for state symmetry 3
 ==============================

 22 2 a 2          1.0000000

 TOTAL ENERGIES                      -126.60502317

 CI vector for state symmetry 4
 ==============================

 22 2 2 a          1.0000000

 TOTAL ENERGIES                      -126.60502317



 **********************************************************************************************************************************
 DATASETS  * FILE   NREC   LENGTH (MB)   RECORD NAMES
              1      20       25.81       500      610      700      900      950      970     1000      129      960     1100   
                                          VAR    BASINP    GEOM    SYMINP    ZMAT    AOBASIS   BASIS     P2S    ABASIS      S 
                                         1400     1410     1420     1200     1210     1080     1600     1650     1700     1380   
                                           T        V       ECP      H0       H01     AOSYM     SMH    MOLCAS    OPER     JKOP   

              2       6        8.52       200      700     1000      520     4202     5202   
                                        OPTIONS   GEOM     BASIS   MCVARS     RHF     MCSCF   

 PROGRAMS   *        TOTAL     MULTI       POP       RHF  RCCSD(T)       RHF       INT
 CPU TIMES  *        44.36      0.63      0.00      0.95     15.00      0.45     26.76
 REAL TIME  *        62.71 SEC
 DISK USED  *         3.80 GB      
 SF USED    *       440.31 MB      
 GA USED    *         0.00 MB       (max)       0.00 MB       (current)
 **********************************************************************************************************************************


 PROGRAM * RHF-SCF (OPEN SHELL)       Authors: W. Meyer, H.-J. Werner


 NUMBER OF ELECTRONS:      10+    9-    SPACE SYMMETRY=1    SPIN SYMMETRY: Doublet 
 CONVERGENCE THRESHOLDS:    1.00E-05 (Density)    1.00E-07 (Energy)
 MAX. NUMBER OF ITERATIONS:        0
 INTERPOLATION TYPE:            DIIS
 INTERPOLATION STEPS:              2 (START)      1 (STEP)
 LEVEL SHIFTS:                 -0.60 (CLOSED) -0.30 (OPEN) 

 Number of closed-shell orbitals:    9 (   3   1   1   1   1   1   1   0 )
 Number of open-shell orbitals:      1 (   1   0   0   0   0   0   0   0 )


 Molecular orbitals read from record     5202.2  Type=MCSCF/NATURAL (state averaged)

 Molecular orbital dump at record        2102.2

 ITERATION    DDIFF          GRAD             ENERGY        2-EL.EN.            DIPOLE MOMENTS         DIIS   ORB.
    1      0.000D+00      0.000D+00      -126.60502317    204.669326    0.00000    0.00000    0.00000    0    start

 Final alpha occupancy:   4   1   1   1   1   1   1   0
 Final beta  occupancy:   3   1   1   1   1   1   1   0

 !RHF STATE 1.1 Energy               -126.605023171304
 Nuclear energy                         0.00000000
 One-electron energy                 -228.93968592
 Two-electron energy                  102.33466275
 Virial quotient                       -2.63162063
 !RHF STATE 1.1 Dipole moment           0.00000000     0.00000000     0.00000000
 Dipole moment /Debye                   0.00000000     0.00000000     0.00000000

 Orbital energies:

         1.1          2.1          3.1          4.1          5.1          6.1
     -3.803749    -0.022686    -0.212746    -0.212746     0.076767     0.161520

         1.2          2.2          3.2
     -2.359700     0.069109     0.130235

         1.3          2.3          3.3
     -2.359700     0.069109     0.130235

         1.4          2.4          3.4
     -0.212746     0.216420     0.479953

         1.5          2.5          3.5
     -2.359700     0.069109     0.130235

         1.6          2.6          3.6
     -0.212746     0.216420     0.479953

         1.7          2.7          3.7
     -0.212746     0.216420     0.479953

         1.8          2.8
      1.035243     2.188322

 HOMO      4.1    -0.212746 =      -5.7891eV
 LUMO      2.2     0.069109 =       1.8805eV
 LUMO-HOMO         0.281855 =       7.6697eV


 **********************************************************************************************************************************
 DATASETS  * FILE   NREC   LENGTH (MB)   RECORD NAMES
[...]

              2      17       37.89       200      700     1000      520     4202     5202     2102     2105     5202(1)  2107   
                                        OPTIONS   GEOM     BASIS   MCVARS     RHF     MCSCF     RHF      RHF     MCSCF     RHF  
                                         2109     2111     2113     2115     2117     2119     2120   
                                          RHF      RHF      RHF      RHF      RHF      RHF      RHF  

 PROGRAMS   *        TOTAL       RHF  RCCSD(T)       RHF  RCCSD(T)       RHF  RCCSD(T)       RHF     MULTI       POP       RHF
 CPU TIMES  *       174.12      0.51      2.49      0.49      6.74      0.57      9.72      0.05      0.74      0.00      0.60
 REAL TIME  *       282.40 SEC
 DISK USED  *         4.36 GB      
 SF USED    *       496.45 MB      
 GA USED    *         0.00 MB       (max)       0.00 MB       (current)
 **********************************************************************************************************************************
 SETTING SCF(12)        =       -69.59535009  AU                              
 SETTING _CC_NORM_MAX   =         2.00000000                                  


 PROGRAM * CCSD (Restricted open-shell coupled cluster)     Authors: C. Hampel, H.-J. Werner, 1991, M. Deegan, P.J. Knowles, 1992


 Convergence thresholds:  THRVAR = 1.00D-08  THRDEN = 1.00D-06

 CCSD(T)     terms to be evaluated (factor= 1.000)


 Number of closed-shell orbitals:   1 (   1   0   0   0   0   0   0   0 )
 Number of active  orbitals:        3 (   0   1   1   0   1   0   0   0 )
 Number of external orbitals:     238 (  72  31  31  23  31  23  23   4 )

 Memory could be reduced to 19.53 Mwords without degradation in triples

 Number of N-1 electron functions:               5
 Number of N-2 electron functions:              10
 Number of singly external CSFs:               240
 Number of doubly external CSFs:             54682
 Total number of CSFs:                       54922

 Molecular orbitals read from record     2120.2  Type=RHF/CANONICAL (state 1.8)

 Integral transformation finished. Total CPU:   0.24 sec, npass=  1  Memory used:   2.49 MW

 Starting RMP2 calculation

 Wavefunction is spin-projected

 ITER.      SQ.NORM     CORR.ENERGY   TOTAL ENERGY   ENERGY CHANGE        DEN1      VAR(S)    VAR(P)  DIIS     TIME
   1      1.02039056    -0.14473823   -69.74008832    -0.14473823    -0.00011796  0.96D-08  0.18D-04  1  1     0.26
   2      1.02043570    -0.14486094   -69.74021103    -0.00012271    -0.00000001  0.28D-11  0.16D-08  2  2     0.27
   3      1.02043591    -0.14486134   -69.74021144    -0.00000041    -0.00000000  0.27D-15  0.16D-12  3  3     0.28

 Norm of t1 vector:      0.00754076      S-energy:    -0.00046319      T1 diagnostic:  0.00011285
 Norm of t2 vector:      0.14275520      P-energy:    -0.14439815
                                         Alpha-Beta:  -0.10958897
                                         Alpha-Alpha: -0.03480918
                                         Beta-Beta:    0.00000000

 Spin contamination <S**2-Sz**2-Sz>     0.00000000
  Reference energy                    -69.595350094206
  RHF-RMP2 correlation energy          -0.144861340840
 !RHF-RMP2 energy                     -69.740211435046
 (NB above energy spin projected)

 Starting RCCSD calculation

 ITER.      SQ.NORM     CORR.ENERGY   TOTAL ENERGY   ENERGY CHANGE        DEN1      VAR(S)    VAR(P)  DIIS     TIME
   1      1.02480869    -0.15718722   -69.75253732    -0.15718722    -0.00269360  0.10D-04  0.41D-03  1  1     0.35
   2      1.02606362    -0.16004875   -69.75539885    -0.00286153    -0.00003028  0.17D-07  0.40D-05  2  2     0.42
   3      1.02616322    -0.16019050   -69.75554059    -0.00014174    -0.00000039  0.66D-09  0.49D-07  3  3     0.48
   4      1.02617266    -0.16020450   -69.75555459    -0.00001400    -0.00000000  0.25D-10  0.21D-09  4  4     0.61
   5      1.02617278    -0.16020440   -69.75555449     0.00000010    -0.00000000  0.82D-13  0.12D-11  5  5     0.68

 Norm of t1 vector:      0.00806829      S-energy:    -0.00044097      T1 diagnostic:  0.00113867
                                                                       D1 diagnostic:  0.00161654
 Norm of t2 vector:      0.16157871      P-energy:    -0.15976343
                                         Alpha-Beta:  -0.12416217
                                         Alpha-Alpha: -0.03560126
                                         Beta-Beta:    0.00000000

 Spin contamination <S**2-Sz**2-Sz>     0.00000000

 Memory could be reduced to 19.88 Mwords without degradation in triples
 

  Correlated core orbitals:             1.1       1.2       1.3       1.5
  Orbital energies:                   -13.3334  -11.6022  -11.6022  -11.6022
 
  RCCSD core-core energy               -0.160204396404
 

 RESULTS
 =======

  Reference energy                    -69.595350094206
  RCCSD singles energy                 -0.000440968014
  RCCSD pair energy                    -0.159763428390
  RCCSD correlation energy             -0.160204396404
  Triples (T) contribution             -0.003019608944
  Total correlation energy             -0.163224005348
 
  RHF-RCCSD energy                    -69.755554490610
  RHF-RCCSD[T] energy                 -69.758572741045
  RHF-RCCSD-T energy                  -69.758572363608
 !RHF-RCCSD(T) energy                 -69.758574099554

 Program statistics:

 Available memory in ccsd:               511999732
 Min. memory needed in ccsd:                440371
 Max. memory used in ccsd:                  489107
 Max. memory used in cckext:                507829 ( 5 integral passes)
 Max. memory used in cckint:               2485465 ( 1 integral passes)



 **********************************************************************************************************************************
 DATASETS  * FILE   NREC   LENGTH (MB)   RECORD NAMES
              1      20       25.81       500      610      700      900      950      970     1000      129      960     1100   
                                          VAR    BASINP    GEOM    SYMINP    ZMAT    AOBASIS   BASIS     P2S    ABASIS      S 
                                         1400     1410     1420     1200     1210     1080     1600     1650     1700     1380   
                                           T        V       ECP      H0       H01     AOSYM     SMH    MOLCAS    OPER     JKOP   

              2      17       37.89       200      700     1000      520     4202     5202     2102     2105     5202(1)  2107   
                                        OPTIONS   GEOM     BASIS   MCVARS     RHF     MCSCF     RHF      RHF     MCSCF     RHF  
                                         2109     2111     2113     2115     2117     2119     2120   
                                          RHF      RHF      RHF      RHF      RHF      RHF      RHF  

 PROGRAMS   *        TOTAL  RCCSD(T)       RHF  RCCSD(T)       RHF  RCCSD(T)       RHF  RCCSD(T)       RHF     MULTI       POP
 CPU TIMES  *       175.66      1.54      0.51      2.49      0.49      6.74      0.57      9.72      0.05      0.74      0.00
 REAL TIME  *       284.82 SEC
 DISK USED  *         4.36 GB      
 SF USED    *       496.45 MB      
 GA USED    *         0.00 MB       (max)       0.00 MB       (current)
 **********************************************************************************************************************************
 SETTING CCSD(12)       =       -69.75857410  AU                              

 DO I                   =        13.00000000   

 Running procedure=XVIIS2


 PROGRAM * RHF-SCF (CLOSED SHELL)       Authors: W. Meyer, H.-J. Werner


 NUMBER OF ELECTRONS:       1+    1-    SPACE SYMMETRY=1    SPIN SYMMETRY: Singlet 
 CONVERGENCE THRESHOLDS:    1.00E-05 (Density)    1.00E-07 (Energy)
 MAX. NUMBER OF ITERATIONS:       60
 INTERPOLATION TYPE:            DIIS
 INTERPOLATION STEPS:              2 (START)      1 (STEP)
 LEVEL SHIFTS:                  0.00 (CLOSED)  0.00 (OPEN) 



 Orbital guess generated from atomic densities. Full valence occupancy:    4   1   1   1   1   1   1   0


 Molecular orbital dump at record        2121.2

 Initial occupancy:   1   0   0   0   0   0   0   0

 ITERATION    DDIFF          GRAD             ENERGY        2-EL.EN.            DIPOLE MOMENTS         DIIS   ORB.
    1      0.000D+00      0.000D+00       -31.62911843      1.869684    0.00000    0.00000    0.00000    0    start
    2      0.000D+00      0.168D+00       -32.22974487      2.095193    0.00000    0.00000    0.00000    1    diag
    3      0.361D-01      0.126D-01       -32.23302069      2.111581    0.00000    0.00000    0.00000    2    diag
    4      0.476D-02      0.768D-04       -32.23302078      2.111660    0.00000    0.00000    0.00000    3    diag
    5      0.120D-03      0.186D-05       -32.23302078      2.111658    0.00000    0.00000    0.00000    4    diag
    6      0.814D-06      0.375D-07       -32.23302078      2.111658    0.00000    0.00000    0.00000    0    orth

 Final occupancy:   1   0   0   0   0   0   0   0

 !RHF STATE 1.1 Energy                -32.233020782705
 Nuclear energy                         0.00000000
 One-electron energy                  -33.28884982
 Two-electron energy                    1.05582904
 Virial quotient                       -6.02363624
 !RHF STATE 1.1 Dipole moment           0.00000000     0.00000000     0.00000000
 Dipole moment /Debye                   0.00000000     0.00000000     0.00000000

 Orbital energies:

         1.1          2.1          3.1
    -15.588596   -10.906530   -10.906530

         1.2          2.2
    -13.315428    -8.301412

         1.3          2.3
    -13.315428    -8.301412

         1.4          2.4
    -10.906530    -6.444095

         1.5          2.5
    -13.315428    -8.301412

         1.6          2.6
    -10.906530    -6.444095

         1.7          2.7
    -10.906530    -6.444095

         1.8          2.8
     -8.301412    -5.245265

 HOMO      1.1   -15.588596 =    -424.1873eV
 LUMO      1.2   -13.315428 =    -362.3312eV
 LUMO-HOMO         2.273167 =      61.8560eV


 **********************************************************************************************************************************
 DATASETS  * FILE   NREC   LENGTH (MB)   RECORD NAMES
              1      20       25.81       500      610      700      900      950      970     1000      129      960     1100   
                                          VAR    BASINP    GEOM    SYMINP    ZMAT    AOBASIS   BASIS     P2S    ABASIS      S 
                                         1400     1410     1420     1200     1210     1080     1600     1650     1700     1380   
                                           T        V       ECP      H0       H01     AOSYM     SMH    MOLCAS    OPER     JKOP   

              2      18       40.71       200      700     1000      520     4202     5202     2102     2105     5202(1)  2107   
                                        OPTIONS   GEOM     BASIS   MCVARS     RHF     MCSCF     RHF      RHF     MCSCF     RHF  
                                         2109     2111     2113     2115     2117     2119     2120     2121   
                                          RHF      RHF      RHF      RHF      RHF      RHF      RHF      RHF  

 PROGRAMS   *        TOTAL       RHF  RCCSD(T)       RHF  RCCSD(T)       RHF  RCCSD(T)       RHF  RCCSD(T)       RHF     MULTI
 CPU TIMES  *       176.15      0.48      1.54      0.51      2.49      0.49      6.74      0.57      9.72      0.05      0.74
 REAL TIME  *       285.40 SEC
 DISK USED  *         4.36 GB      
 SF USED    *       496.45 MB      
 GA USED    *         0.00 MB       (max)       0.00 MB       (current)
 **********************************************************************************************************************************
 SETTING SCF(13)        =       -32.23302078  AU                              
 SETTING _CC_NORM_MAX   =         2.00000000                                  


 PROGRAM * CCSD (Restricted open-shell coupled cluster)     Authors: C. Hampel, H.-J. Werner, 1991, M. Deegan, P.J. Knowles, 1992


 Convergence thresholds:  THRVAR = 1.00D-08  THRDEN = 1.00D-06

 CCSD(T)     terms to be evaluated (factor= 1.000)


 Number of closed-shell orbitals:   1 (   1   0   0   0   0   0   0   0 )
 Number of external orbitals:     241 (  72  32  32  23  32  23  23   4 )

 Memory could be reduced to 14.26 Mwords without degradation in triples

 Number of N-1 electron functions:               2
 Number of N-2 electron functions:               1
 Number of singly external CSFs:               144
 Number of doubly external CSFs:              9859
 Total number of CSFs:                       10003

 Molecular orbitals read from record     2121.2  Type=RHF/CANONICAL (state 1.1)

 Integral transformation finished. Total CPU:   0.09 sec, npass=  1  Memory used:   1.01 MW

 Starting RMP2 calculation

 Wavefunction is spin-projected

 ITER.      SQ.NORM     CORR.ENERGY   TOTAL ENERGY   ENERGY CHANGE        DEN1      VAR(S)    VAR(P)  DIIS     TIME
   1      1.01102634    -0.05989866   -32.29291944    -0.05989866    -0.00008004  0.62D-19  0.16D-04  1  1     0.09
   2      1.01106181    -0.05998196   -32.29300274    -0.00008330    -0.00000000  0.26D-22  0.33D-09  2  2     0.09
   3      1.01106190    -0.05998211   -32.29300289    -0.00000015    -0.00000000  0.49D-27  0.47D-14  3  3     0.09

 Norm of t1 vector:      0.00000001      S-energy:    -0.00000000      T1 diagnostic:  0.00000001
 Norm of t2 vector:      0.10517557      P-energy:    -0.05998211
                                         Alpha-Beta:  -0.05998211
                                         Alpha-Alpha:  0.00000000
                                         Beta-Beta:    0.00000000

 Spin contamination <S**2-Sz**2-Sz>     0.00000000
  Reference energy                    -32.233020782705
  RHF-RMP2 correlation energy          -0.059982107660
 !RHF-RMP2 energy                     -32.293002890365
 (NB above energy spin projected)

 Starting RCCSD calculation

 ITER.      SQ.NORM     CORR.ENERGY   TOTAL ENERGY   ENERGY CHANGE        DEN1      VAR(S)    VAR(P)  DIIS     TIME
   1      1.01511767    -0.06720659   -32.30022737    -0.06720659    -0.00297414  0.30D-05  0.58D-03  1  1     0.11
   2      1.01761311    -0.07115926   -32.30418004    -0.00395267    -0.00002933  0.30D-07  0.38D-05  2  2     0.13
   3      1.01780262    -0.07140892   -32.30442971    -0.00024967    -0.00000018  0.51D-10  0.17D-07  3  3     0.15
   4      1.01780178    -0.07140567   -32.30442645     0.00000325    -0.00000000  0.21D-12  0.72D-10  4  4     0.17
   5      1.01780218    -0.07140624   -32.30442702    -0.00000057    -0.00000000  0.69D-14  0.99D-13  5  5     0.19

 Norm of t1 vector:      0.00223697      S-energy:    -0.00000000      T1 diagnostic:  0.00111849
                                                                       D1 diagnostic:  0.00158178
 Norm of t2 vector:      0.13340604      P-energy:    -0.07140624
                                         Alpha-Beta:  -0.07140624
                                         Alpha-Alpha:  0.00000000
                                         Beta-Beta:    0.00000000

 Doubles amplitudes (print threshold =  0.500E-01):

         I         J         SYM. A    SYM. B    A         B      T(IJ, AB) [Alpha-Beta]

         1         1         2         2         1         1     -0.07488653
         1         1         3         3         1         1     -0.07488653
         1         1         5         5         1         1     -0.07488653

 Spin contamination <S**2-Sz**2-Sz>     0.00000000

 Memory could be reduced to 13.99 Mwords without degradation in triples
 

  Correlated core orbitals:             1.1
  Orbital energies:                   -15.5886
 
  RCCSD core-core energy               -0.071406240517
 

 RESULTS
 =======

  Reference energy                    -32.233020782705
  RCCSD singles energy                 -0.000000000210
  RCCSD pair energy                    -0.071406240306
  RCCSD correlation energy             -0.071406240517
  Triples (T) contribution              0.000000000000
  Total correlation energy             -0.071406240517
 
  RHF-RCCSD energy                    -32.304427023221
  RHF-RCCSD[T] energy                 -32.304427023221
  RHF-RCCSD-T energy                  -32.304427023221
 !RHF-RCCSD(T) energy                 -32.304427023221

 Program statistics:

 Available memory in ccsd:               511999882
 Min. memory needed in ccsd:                281125
 Max. memory used in ccsd:                  281125
 Max. memory used in cckext:                369777 ( 5 integral passes)
 Max. memory used in cckint:               1009422 ( 1 integral passes)



 **********************************************************************************************************************************
 DATASETS  * FILE   NREC   LENGTH (MB)   RECORD NAMES
              1      20       25.81       500      610      700      900      950      970     1000      129      960     1100   
                                          VAR    BASINP    GEOM    SYMINP    ZMAT    AOBASIS   BASIS     P2S    ABASIS      S 
                                         1400     1410     1420     1200     1210     1080     1600     1650     1700     1380   
                                           T        V       ECP      H0       H01     AOSYM     SMH    MOLCAS    OPER     JKOP   

              2      18       40.71       200      700     1000      520     4202     5202     2102     2105     5202(1)  2107   
                                        OPTIONS   GEOM     BASIS   MCVARS     RHF     MCSCF     RHF      RHF     MCSCF     RHF  
                                         2109     2111     2113     2115     2117     2119     2120     2121   
                                          RHF      RHF      RHF      RHF      RHF      RHF      RHF      RHF  

 PROGRAMS   *        TOTAL  RCCSD(T)       RHF  RCCSD(T)       RHF  RCCSD(T)       RHF  RCCSD(T)       RHF  RCCSD(T)       RHF
 CPU TIMES  *       176.61      0.46      0.48      1.54      0.51      2.49      0.49      6.74      0.57      9.72      0.05
 REAL TIME  *       286.15 SEC
 DISK USED  *         4.36 GB      
 SF USED    *       496.45 MB      
 GA USED    *         0.00 MB       (max)       0.00 MB       (current)
 **********************************************************************************************************************************
 SETTING CCSD(13)       =       -32.30442702  AU                              
 Output type csv         
                                                                                                                                                                                                                                                                

        SCF,CCSD
   -126.60910693,   -127.36474261
   -126.60502317,   -127.37812155
   -126.60506612,   -127.33402084
   -126.52912640,   -127.25327082
   -126.37265379,   -127.05854774
   -126.28490286,   -126.94890200
   -125.73100221,   -126.35079653
   -124.58753184,   -125.15201158
   -122.89313960,   -123.40924254
   -120.65375608,   -121.11447165
    -98.37735806,    -98.69753277
    -69.59535009,    -69.75857410
    -32.23302078,    -32.30442702
                                                  

 RCCSD(T)/USERDEF energy=    -32.304427023221

        RCCSD(T)        RHF-SCF         RCCSD(T)        RHF-SCF         RCCSD(T)        RHF-SCF         RCCSD(T)        RHF-SCF 
    -32.30442702    -32.23302078    -69.75857410    -69.59535009    -98.69753277    -98.37735806   -121.11447165   -120.65375608
 **********************************************************************************************************************************
 Molpro calculation terminated
 Variable memory released
