
 Primary working directories    : /global/cscratch1/sd/gwang18
 Secondary working directories  : /global/cscratch1/sd/gwang18
 Wavefunction directory         : /global/homes/g/gwang18/wfu/
 Main file repository           : /global/cscratch1/sd/gwang18/

 SHA1      : 19cd028119e0e09f93f0674bd8af7968d9b3eff6
 NAME      : 2015.1.36
 ARCHNAME  : linux/x86_64
 FC        : /opt/cray/pe/craype/2.5.14/bin/ftn
 BLASLIB   : -L/opt/intel/compilers_and_libraries_2018.1.163/linux/mkl/lib/intel64 -Wl,-_start-group -lmkl_intel_ilp64 -lmkl_intel_thread -lmkl_core -Wl,-_end-group -liomp5
 id        : lbl

 Nodes     nprocs
 nid12837    15
 Number of processes for MPI-2 version of Molpro:   nprocs(total)=   16   nprocs(compute)=   15   nprocs(helper)=    1

 Using customized tuning parameters: mindgm=7; mindgv=16; mindgc=1; mindgr=1; noblas=0; minvec=7
 default implementation of scratch files=sf  

 ***,I
 memory,512,m
 
 gthresh,twoint=1.e-12
 gprint,basis,orbitals
 
 angstrom
 geometry={
 1                                                                               ! Number of atoms
 I 0.0 0.0 0.0
 }
 
 
 basis={
 Including file /global/u2/g/gwang18/projects/cc-so-ecp/i/basis/plot-check/cc-basis/ecp.molpro
 Including file /global/u2/g/gwang18/projects/cc-so-ecp/i/basis/plot-check/cc-basis/../../basis/I.cc-pVQZ.molpro
 }
 
 {rhf
  start,atden
  wf,7,5,1
  occ,1,1,1,0,1,0,0,0
  closed,1,1,1,0,0,0,0,0
  orbital,4202.2
 }
 pop
 {multi
  start,4202.2
  occ,1,1,1,0,1,0,0,0
  closed,1,0,0,0,0,0,0,0
  wf,7,2,1;state,1
  wf,7,3,1;state,1
  wf,7,5,1;state,1
  natorb,ci,print
  orbital,5202.2
 }
 {rhf,nitord=1,maxit=0
  start,5202.2
  wf,7,5,1
  occ,1,1,1,0,1,0,0,0
  closed,1,1,1,0,0,0,0,0
  print,orbitals=2
 }
 scf(1)=energy
 {uccsd(t);maxit,100;core}
 ccsd(1)=energy
 
 
 table,scf,ccsd
 save
 type,csv
 

 Variables initialized (889), CPU time= 0.01 sec
 Commands  initialized (702), CPU time= 0.01 sec, 572 directives.
 Default parameters read. Elapsed time= 0.13 sec

 Checking input...
 Passed
1


                                         ***  PROGRAM SYSTEM MOLPRO  ***
                                       Copyright, TTI GmbH Stuttgart, 2015
                                    Version 2015.1 linked Dec 29 2018 15:55:43


 **********************************************************************************************************************************
 LABEL *   I                                                                             
  64 bit mpp version                                                                     DATE: 16-Dec-21          TIME: 12:17:08  
 **********************************************************************************************************************************

 SHA1:             19cd028119e0e09f93f0674bd8af7968d9b3eff6
 **********************************************************************************************************************************

 THRESHOLDS:

 ZERO    =  1.00D-12  ONEINT  =  1.00D-12  TWOINT  =  1.00D-12  PREFAC  =  1.00D-14  LOCALI  =  1.00D-09  EORDER  =  1.00D-04
 ENERGY  =  0.00D+00  ETEST   =  0.00D+00  EDENS   =  0.00D+00  THRDEDEF=  1.00D-06  GRADIENT=  1.00D-02  STEP    =  1.00D-03
 ORBITAL =  1.00D-05  CIVEC   =  1.00D-05  COEFF   =  1.00D-04  PRINTCI =  5.00D-02  PUNCHCI =  9.90D+01  OPTGRAD =  3.00D-04
 OPTENERG=  1.00D-06  OPTSTEP =  3.00D-04  THRGRAD =  1.00D-10  COMPRESS=  1.00D-11  VARMIN  =  1.00D-07  VARMAX  =  1.00D-03
 THRDOUB =  0.00D+00  THRDIV  =  1.00D-05  THRRED  =  1.00D-07  THRPSP  =  1.00D+00  THRDC   =  1.00D-10  THRCS   =  1.00D-10
 THRNRM  =  1.00D-08  THREQ   =  0.00D+00  THRDE   =  1.00D+00  THRREF  =  1.00D-05  SPARFAC =  1.00D+00  THRDLP  =  1.00D-07
 THRDIA  =  1.00D-10  THRDLS  =  1.00D-07  THRGPS  =  0.00D+00  THRKEX  =  0.00D+00  THRDIS  =  2.00D-01  THRVAR  =  1.00D-10
 THRLOC  =  1.00D-06  THRGAP  =  1.00D-06  THRLOCT = -1.00D+00  THRGAPT = -1.00D+00  THRORB  =  1.00D-06  THRMLTP =  0.00D+00
 THRCPQCI=  1.00D-10  KEXTA   =  0.00D+00  THRCOARS=  0.00D+00  SYMTOL  =  1.00D-06  GRADTOL =  1.00D-06  THROVL  =  1.00D-08
 THRORTH =  1.00D-08  GRID    =  1.00D-06  GRIDMAX =  1.00D-03  DTMAX   =  0.00D+00  THROCCDE=  1.00D-01  THROCCDE=  1.00D-01



 ZUNIT=ANG
 

Geometry recognized as XYZ


 Variable memory set to  512000000 words,  buffer space   230000 words

 SETTING BASIS          =    USERDEF


 Recomputing integrals since basis changed


 Using spherical harmonics



 PROGRAM * SEWARD (Integral evaluation for generally contracted gaussian basis sets)     Author: Roland Lindh, 1990

 Geometry written to block  1 of record 700

 Orientation using atomic masses  
 Molecule type: Atom
 Symmetry elements: X,Y,Z
 Rotational constants:       0.0000000      0.0000000      0.0000000 GHz  (calculated with average atomic masses)

 Point group  D2h 



 ATOMIC COORDINATES

 NR  ATOM    CHARGE       X              Y              Z

   1  I       7.00    0.000000000    0.000000000    0.000000000


          I   CORE POTENTIAL

          f POTENTIAL

 POWERS             1              3              2              2
 EXPONENTIALS   12.00134       12.03588       3.022296      0.9779056    
 COEFFICIENTS   7.000000       84.00936      -3.998559      -3.050310    

          s - f POTENTIAL

 POWERS             2              2
 EXPONENTIALS   3.150276       1.008080    
 COEFFICIENTS   114.0238       1.974146    

          p - f POTENTIAL

 POWERS             2              2
 EXPONENTIALS   2.954190      0.7308215    
 COEFFICIENTS   111.4666       1.710240    

          d - f POTENTIAL

 POWERS             2              2
 EXPONENTIALS   2.604979      0.8995931    
 COEFFICIENTS   45.30084       8.704290    


 BASIS DATA

   Nr Sym  Nuc  Type         Exponents   Contraction coefficients

    1.1 Ag    1  1s          61.701593     0.000480
                             29.837151    -0.002928
                             14.428405     0.013931
                              6.977170    -0.077260
                              3.373963     0.362021
                              1.631553    -0.697646
                              0.788973    -0.135463
                              0.381525     0.575037
                              0.184495     0.592546
                              0.089216     0.182295
    2.1 Ag    1  1s           0.417192     1.000000
    3.1 Ag    1  1s           0.220853     1.000000
    4.1 Ag    1  1s           0.116915     1.000000
    5.1 Ag    1  3d0          1.187512     1.000000
    6.1 Ag    1  3d2+         1.187512     1.000000
    7.1 Ag    1  3d0          0.476890     1.000000
    8.1 Ag    1  3d2+         0.476890     1.000000
    9.1 Ag    1  3d0          0.191513     1.000000
   10.1 Ag    1  3d2+         0.191513     1.000000
   11.1 Ag    1  5g0          0.494142     1.000000
   12.1 Ag    1  5g4+         0.494142     1.000000
   13.1 Ag    1  5g2+         0.494142     1.000000
    1.2 B3u   1  2px         33.795456    -0.000318
                             16.225632     0.002086
                              7.790134    -0.012949
                              3.740143     0.080672
                              1.795691    -0.242571
                              0.862134     0.014118
                              0.413922     0.351558
                              0.198729     0.473120
                              0.095412     0.278425
                              0.045809     0.052566
    2.2 B3u   1  2px          0.531766     1.000000
    3.2 B3u   1  2px          0.216097     1.000000
    4.2 B3u   1  2px          0.087817     1.000000
    5.2 B3u   1  4f1+         0.643823     1.000000
    6.2 B3u   1  4f3+         0.643823     1.000000
    7.2 B3u   1  4f1+         0.255896     1.000000
    8.2 B3u   1  4f3+         0.255896     1.000000
    1.3 B2u   1  2py         33.795456    -0.000318
                             16.225632     0.002086
                              7.790134    -0.012949
                              3.740143     0.080672
                              1.795691    -0.242571
                              0.862134     0.014118
                              0.413922     0.351558
                              0.198729     0.473120
                              0.095412     0.278425
                              0.045809     0.052566
    2.3 B2u   1  2py          0.531766     1.000000
    3.3 B2u   1  2py          0.216097     1.000000
    4.3 B2u   1  2py          0.087817     1.000000
    5.3 B2u   1  4f1-         0.643823     1.000000
    6.3 B2u   1  4f3-         0.643823     1.000000
    7.3 B2u   1  4f1-         0.255896     1.000000
    8.3 B2u   1  4f3-         0.255896     1.000000
    1.4 B1g   1  3d2-         1.187512     1.000000
    2.4 B1g   1  3d2-         0.476890     1.000000
    3.4 B1g   1  3d2-         0.191513     1.000000
    4.4 B1g   1  5g2-         0.494142     1.000000
    5.4 B1g   1  5g4-         0.494142     1.000000
    1.5 B1u   1  2pz         33.795456    -0.000318
                             16.225632     0.002086
                              7.790134    -0.012949
                              3.740143     0.080672
                              1.795691    -0.242571
                              0.862134     0.014118
                              0.413922     0.351558
                              0.198729     0.473120
                              0.095412     0.278425
                              0.045809     0.052566
    2.5 B1u   1  2pz          0.531766     1.000000
    3.5 B1u   1  2pz          0.216097     1.000000
    4.5 B1u   1  2pz          0.087817     1.000000
    5.5 B1u   1  4f0          0.643823     1.000000
    6.5 B1u   1  4f2+         0.643823     1.000000
    7.5 B1u   1  4f0          0.255896     1.000000
    8.5 B1u   1  4f2+         0.255896     1.000000
    1.6 B2g   1  3d1+         1.187512     1.000000
    2.6 B2g   1  3d1+         0.476890     1.000000
    3.6 B2g   1  3d1+         0.191513     1.000000
    4.6 B2g   1  5g1+         0.494142     1.000000
    5.6 B2g   1  5g3+         0.494142     1.000000
    1.7 B3g   1  3d1-         1.187512     1.000000
    2.7 B3g   1  3d1-         0.476890     1.000000
    3.7 B3g   1  3d1-         0.191513     1.000000
    4.7 B3g   1  5g1-         0.494142     1.000000
    5.7 B3g   1  5g3-         0.494142     1.000000
    1.8 Au    1  4f2-         0.643823     1.000000
    2.8 Au    1  4f2-         0.255896     1.000000

 NUCLEAR CHARGE:                    7
 NUMBER OF PRIMITIVE AOS:         105
 NUMBER OF SYMMETRY AOS:           90
 NUMBER OF CONTRACTIONS:           54   (  13Ag  +   8B3u +   8B2u +   5B1g +   8B1u +   5B2g +   5B3g +   2Au  )
 NUMBER OF CORE ORBITALS:           0   (   0Ag  +   0B3u +   0B2u +   0B1g +   0B1u +   0B2g +   0B3g +   0Au  )
 NUMBER OF VALENCE ORBITALS:        4   (   1Ag  +   1B3u +   1B2u +   0B1g +   1B1u +   0B2g +   0B3g +   0Au  )


 NUCLEAR REPULSION ENERGY    0.00000000

 EXTRA SYMMETRY OF AOS IN SYMMETRY 1:   1 1 1 1 2 3 2 3 2 3   4 5 6
 EXTRA SYMMETRY OF AOS IN SYMMETRY 2:   1 1 1 1 2 3 2 3
 EXTRA SYMMETRY OF AOS IN SYMMETRY 3:   1 1 1 1 2 3 2 3
 EXTRA SYMMETRY OF AOS IN SYMMETRY 4:   1 1 1 2 3
 EXTRA SYMMETRY OF AOS IN SYMMETRY 5:   1 1 1 1 2 3 2 3
 EXTRA SYMMETRY OF AOS IN SYMMETRY 6:   1 1 1 2 3
 EXTRA SYMMETRY OF AOS IN SYMMETRY 7:   1 1 1 2 3

 Eigenvalues of metric

         1 0.416E-02 0.532E-01 0.134E+00 0.134E+00 0.321E+00 0.725E+00 0.725E+00 0.100E+01
         2 0.830E-02 0.917E-01 0.370E+00 0.370E+00 0.607E+00 0.163E+01 0.163E+01 0.329E+01
         3 0.830E-02 0.917E-01 0.370E+00 0.370E+00 0.607E+00 0.163E+01 0.163E+01 0.329E+01
         4 0.134E+00 0.725E+00 0.100E+01 0.100E+01 0.214E+01
         5 0.830E-02 0.917E-01 0.370E+00 0.370E+00 0.607E+00 0.163E+01 0.163E+01 0.329E+01
         6 0.134E+00 0.725E+00 0.100E+01 0.100E+01 0.214E+01
         7 0.134E+00 0.725E+00 0.100E+01 0.100E+01 0.214E+01
         8 0.370E+00 0.163E+01


 Contracted 2-electron integrals neglected if value below      1.0D-12
 AO integral compression algorithm  1   Integral accuracy      1.0D-12

     3.932 MB (compressed) written to integral file (100.0%)

     Node minimum: 0.262 MB, node maximum: 0.262 MB


 NUMBER OF SORTED TWO-ELECTRON INTEGRALS:      10749.     BUFFER LENGTH:  32768
 NUMBER OF SEGMENTS:   1  SEGMENT LENGTH:      10749      RECORD LENGTH: 524288

 Memory used in sort:       0.57 MW

 SORT1 READ      261850. AND WROTE        8179. INTEGRALS IN      1 RECORDS. CPU TIME:     0.01 SEC, REAL TIME:     0.04 SEC
 SORT2 READ      115456. AND WROTE      151531. INTEGRALS IN     15 RECORDS. CPU TIME:     0.00 SEC, REAL TIME:     0.03 SEC

 Node minimum:        7740.  Node maximum:       12257. integrals

 OPERATOR DM      FOR CENTER  0  COORDINATES:    0.000000    0.000000    0.000000


 **********************************************************************************************************************************
 DATASETS  * FILE   NREC   LENGTH (MB)   RECORD NAMES
              1      19       19.90       500      610      700      900      950      970     1000      129      960     1100   
                                          VAR    BASINP    GEOM    SYMINP    ZMAT    AOBASIS   BASIS     P2S    ABASIS      S 
                                         1400     1410     1420     1200     1210     1080     1600     1650     1700   
                                           T        V       ECP      H0       H01     AOSYM     SMH    MOLCAS    OPER   

 PROGRAMS   *        TOTAL       INT
 CPU TIMES  *         0.97      0.41
 REAL TIME  *         1.90 SEC
 DISK USED  *        64.64 MB      
 GA USED    *         0.00 MB       (max)       0.00 MB       (current)
 **********************************************************************************************************************************


 PROGRAM * RHF-SCF (OPEN SHELL)       Authors: W. Meyer, H.-J. Werner


 NUMBER OF ELECTRONS:       4+    3-    SPACE SYMMETRY=5    SPIN SYMMETRY: Doublet 
 CONVERGENCE THRESHOLDS:    1.00E-05 (Density)    1.00E-07 (Energy)
 MAX. NUMBER OF ITERATIONS:       60
 INTERPOLATION TYPE:            DIIS
 INTERPOLATION STEPS:              2 (START)      1 (STEP)
 LEVEL SHIFTS:                 -0.60 (CLOSED) -0.30 (OPEN) 

 Number of closed-shell orbitals:    3 (   1   1   1   0   0   0   0   0 )
 Number of open-shell orbitals:      1 (   0   0   0   0   1   0   0   0 )



   Atom=I  basis=ECP46MDF_GUESS    lmin=0  lmax=1

 Orbital guess generated from atomic densities. Full valence occupancy:    1   1   1   0   1   0   0   0


 Molecular orbital dump at record        4202.2

 ITERATION    DDIFF          GRAD             ENERGY        2-EL.EN.            DIPOLE MOMENTS         DIIS   ORB.
    1      0.000D+00      0.000D+00       -11.21424742     14.772646    0.00000    0.00000    0.00000    0    start
    2      0.000D+00      0.594D-02       -11.21667156     14.838262    0.00000    0.00000    0.00000    1    diag,B
    3      0.654D-02      0.204D-02       -11.21712333     14.870998    0.00000    0.00000    0.00000    2    diag,B
    4      0.306D-02      0.479D-03       -11.21714994     14.877565    0.00000    0.00000    0.00000    3    diag,B
    5      0.109D-02      0.105D-03       -11.21715112     14.878226    0.00000    0.00000    0.00000    4    diag,B
    6      0.298D-03      0.186D-04       -11.21715116     14.878299    0.00000    0.00000    0.00000    5    diag,B
    7      0.648D-04      0.307D-05       -11.21715116     14.878247    0.00000    0.00000    0.00000    6    fixocc
    8      0.755D-05      0.824D-06       -11.21715116     14.878243    0.00000    0.00000    0.00000    0    orth

 Final alpha occupancy:   1   1   1   0   1   0   0   0
 Final beta  occupancy:   1   1   1   0   0   0   0   0

 !RHF STATE 1.5 Energy                -11.217151162462
 Nuclear energy                         0.00000000
 One-electron energy                  -18.65627242
 Two-electron energy                    7.43912125
 Virial quotient                       -3.15768224
 !RHF STATE 1.5 Dipole moment           0.00000000     0.00000000     0.00000000
 Dipole moment /Debye                   0.00000000     0.00000000     0.00000000

 ELECTRON ORBITALS
 =================


   Orb  Occ    Energy  Couls-En    Coefficients

                                   1 1s      1 1s      1 1s      1 1s      1 3d0     1 3d2+    1 3d0     1 3d2+    1 3d0     1 3d2+ 
                                   1 5g0     1 5g4+    1 5g2+ 

   1.1   2    -0.8796   -3.9594  0.999771 -0.000695  0.001560 -0.000760 -0.000408  0.000000  0.002387 -0.000000 -0.007098  0.000000
                                 0.000006  0.000000 -0.000000

                                   1 2px     1 2px     1 2px     1 2px     1 4f1+    1 4f3+    1 4f1+    1 4f3+ 

   1.2   2    -0.3911   -2.8862  0.995882  0.001025 -0.006451  0.011111  0.004126  0.000000  0.007915 -0.000000

                                   1 2py     1 2py     1 2py     1 2py     1 4f1-    1 4f3-    1 4f1-    1 4f3- 

   1.3   2    -0.3911   -2.8862  0.995882  0.001025 -0.006451  0.011111  0.004126 -0.000000  0.007915  0.000000

                                   1 2pz     1 2pz     1 2pz     1 2pz     1 4f0     1 4f2+    1 4f0     1 4f2+ 

   1.5   +    -0.4543   -2.9708  1.016989 -0.004207  0.026908 -0.047502  0.012377  0.000000  0.021627  0.000000

 HOMO      1.2    -0.391101 =     -10.6424eV
 LUMO      2.1     0.290166 =       7.8958eV
 LUMO-HOMO         0.681267 =      18.5382eV


 **********************************************************************************************************************************
 DATASETS  * FILE   NREC   LENGTH (MB)   RECORD NAMES
              1      19       19.90       500      610      700      900      950      970     1000      129      960     1100   
                                          VAR    BASINP    GEOM    SYMINP    ZMAT    AOBASIS   BASIS     P2S    ABASIS      S 
                                         1400     1410     1420     1200     1210     1080     1600     1650     1700   
                                           T        V       ECP      H0       H01     AOSYM     SMH    MOLCAS    OPER   

              2       4        2.76       700     1000      520     4202   
                                         GEOM     BASIS   MCVARS     RHF  

 PROGRAMS   *        TOTAL       RHF       INT
 CPU TIMES  *         1.02      0.05      0.41
 REAL TIME  *         2.05 SEC
 DISK USED  *       406.16 MB      
 SF USED    *         0.00 MB      
 GA USED    *         0.00 MB       (max)       0.00 MB       (current)
 **********************************************************************************************************************************


 PROGRAM * POP (Mulliken population analysis)

 
 Density matrix read from record         4202.2  Type=RHF/CHARGE (state 1.5)
 
 Population analysis by basis function type

 Unique atom        s        p        d        f        g    Total    Charge
   1  I       1.99993  4.99856  0.00007  0.00144  0.00000  7.00000  + 0.00000


 **********************************************************************************************************************************
 DATASETS  * FILE   NREC   LENGTH (MB)   RECORD NAMES
              1      19       19.90       500      610      700      900      950      970     1000      129      960     1100   
                                          VAR    BASINP    GEOM    SYMINP    ZMAT    AOBASIS   BASIS     P2S    ABASIS      S 
                                         1400     1410     1420     1200     1210     1080     1600     1650     1700   
                                           T        V       ECP      H0       H01     AOSYM     SMH    MOLCAS    OPER   

              2       4        2.76       700     1000      520     4202   
                                         GEOM     BASIS   MCVARS     RHF  

 PROGRAMS   *        TOTAL       POP       RHF       INT
 CPU TIMES  *         1.03      0.00      0.05      0.41
 REAL TIME  *         2.07 SEC
 DISK USED  *       406.16 MB      
 SF USED    *         0.00 MB      
 GA USED    *         0.00 MB       (max)       0.00 MB       (current)
 **********************************************************************************************************************************


 PROGRAM * MULTI (Direct Multiconfiguration SCF)       Authors: P.J. Knowles, H.-J. Werner (1984)     S.T. Elbert (1988)


 Number of closed-shell orbitals:   1 (   1   0   0   0   0   0   0   0 )
 Number of active  orbitals:        3 (   0   1   1   0   1   0   0   0 )
 Number of external orbitals:      50 (  12   7   7   5   7   5   5   2 )

 State symmetry 1

 Number of electrons:     5    Spin symmetry=Doublet   Space symmetry=2
 Number of states:        1
 Number of CSFs:          1   (1 determinants, 3 intermediate states)

 State symmetry 2

 Number of electrons:     5    Spin symmetry=Doublet   Space symmetry=3
 Number of states:        1
 Number of CSFs:          1   (1 determinants, 3 intermediate states)

 State symmetry 3

 Number of electrons:     5    Spin symmetry=Doublet   Space symmetry=5
 Number of states:        1
 Number of CSFs:          1   (1 determinants, 3 intermediate states)

 Molecular orbitals read from record     4202.2  Type=RHF/CANONICAL (state 1.5)
 *** IN SYMMETRY 1 ORBITAL  1 SYMMETRY CONTAMINATION OF 0.977D-02 HAS BEEN REMOVED

 EXTRA SYMMETRY OF MOS IN SYMMETRY 1:   1 1 2 3 2 3 1 4 6 5   2 3 1
 *** IN SYMMETRY 2 ORBITAL  1 SYMMETRY CONTAMINATION OF 0.117D-01 HAS BEEN REMOVED
 EXTRA SYMMETRY OF MOS IN SYMMETRY 2:   1 1 2 3 1 2 3 1
 *** IN SYMMETRY 3 ORBITAL  1 SYMMETRY CONTAMINATION OF 0.117D-01 HAS BEEN REMOVED
 EXTRA SYMMETRY OF MOS IN SYMMETRY 3:   1 1 2 3 1 2 3 1
 EXTRA SYMMETRY OF MOS IN SYMMETRY 4:   1 1 2 3 1
 *** IN SYMMETRY 5 ORBITAL  1 SYMMETRY CONTAMINATION OF 0.301D-01 HAS BEEN REMOVED
 EXTRA SYMMETRY OF MOS IN SYMMETRY 5:   1 1 2 3 1 2 3 1
 EXTRA SYMMETRY OF MOS IN SYMMETRY 6:   1 1 2 3 1
 EXTRA SYMMETRY OF MOS IN SYMMETRY 7:   1 1 2 3 1

 Wavefunction dump at record             5202.2

 Convergence thresholds  0.10E-01 (gradient)  0.10E-05 (energy)  0.10E-02 (step length)

 Weight factors for state symmetry  1:    0.33333
 Weight factors for state symmetry  2:    0.33333
 Weight factors for state symmetry  3:    0.33333

 Number of orbital rotations:       33   (     0 Core/Active     12 Core/Virtual   0 Active/Active     21 Active/Virtual)
 Total number of variables:         36


 ITER. MIC  NCI  NEG     ENERGY(VAR)     ENERGY(PROJ)   ENERGY CHANGE     GRAD(0)  GRAD(ORB)   GRAD(CI)     STEP       TIME

   1   21   12    0     -11.21450701     -11.21512144   -0.00061443    0.02400361 0.00000000 0.00000000  0.27D-01      0.04
   2   12   12    0     -11.21512161     -11.21512161   -0.00000000    0.00006580 0.00000000 0.00000000  0.45D-04      0.06

 ** WVFN ****  CONVERGENCE REACHED, FINAL GRADIENT:  0.91D-09



 Results for state 1.2
 =====================

 !MCSCF STATE 1.2 Energy              -11.215121610821
 Nuclear energy                         0.00000000
 Kinetic energy                         3.54949561
 One electron energy                  -18.65727351
 Two electron energy                    7.44215190
 Virial ratio                           4.15963811

 !MCSCF STATE 1.2 Dipole moment         0.00000000     0.00000000     0.00000000
 Dipole moment /Debye                   0.00000000     0.00000000     0.00000000



 Results for state 1.3
 =====================

 !MCSCF STATE 1.3 Energy              -11.215121610821
 Nuclear energy                         0.00000000
 Kinetic energy                         3.54949561
 One electron energy                  -18.65727351
 Two electron energy                    7.44215190
 Virial ratio                           4.15963811

 !MCSCF STATE 1.3 Dipole moment         0.00000000     0.00000000     0.00000000
 Dipole moment /Debye                   0.00000000     0.00000000     0.00000000



 Results for state 1.5
 =====================

 !MCSCF STATE 1.5 Energy              -11.215121610822
 Nuclear energy                         0.00000000
 Kinetic energy                         3.54949561
 One electron energy                  -18.65727351
 Two electron energy                    7.44215190
 Virial ratio                           4.15963811

 !MCSCF STATE 1.5 Dipole moment         0.00000000     0.00000000     0.00000000
 Dipole moment /Debye                   0.00000000     0.00000000     0.00000000

 State-averaged charge density matrix saved on record  5202.2 (density set 1)


 NATURAL ORBITALS (state averaged)
 =================================

   Orb     Occ        Energy       Coefficients

                                   1 1s      1 1s      1 1s      1 1s      1 3d0     1 3d2+    1 3d0     1 3d2+    1 3d0     1 3d2+ 
                                   1 5g0     1 5g4+    1 5g2+ 

   1.1  2.00000    -0.879792     0.999769 -0.000658  0.001425 -0.000637  0.000000  0.000000  0.000000  0.000000  0.000000  0.000000
                                 0.000000  0.000000  0.000000

                                   1 2px     1 2px     1 2px     1 2px     1 4f1+    1 4f3+    1 4f1+    1 4f3+ 

   1.2  1.66667    -0.344593     0.999952 -0.000022  0.000071 -0.000007  0.000000  0.000000  0.000000  0.000000

                                   1 2py     1 2py     1 2py     1 2py     1 4f1-    1 4f3-    1 4f1-    1 4f3- 

   1.3  1.66667    -0.344593     0.999952 -0.000022  0.000071 -0.000007  0.000000  0.000000  0.000000  0.000000

                                   1 2pz     1 2pz     1 2pz     1 2pz     1 4f0     1 4f2+    1 4f0     1 4f2+ 

   1.5  1.66667    -0.344593     0.999952 -0.000022  0.000071 -0.000007  0.000000  0.000000  0.000000  0.000000
 

 EXTRA SYMMETRY OF MOS IN SYMMETRY 1:   1 1 3 2 2 3 1 6 4 5   3 2 1
 EXTRA SYMMETRY OF MOS IN SYMMETRY 2:   1 1 3 2 1 3 2 1
 EXTRA SYMMETRY OF MOS IN SYMMETRY 3:   1 1 3 2 1 3 2 1
 EXTRA SYMMETRY OF MOS IN SYMMETRY 5:   1 1 3 2 1 3 2 1
 EXTRA SYMMETRY OF MOS IN SYMMETRY 6:   1 1 3 2 1
 EXTRA SYMMETRY OF MOS IN SYMMETRY 7:   1 1 3 2 1

 Natural orbital dump (state averaged) at molpro section  5202.2    (Orbital set 2)


 CI vector for state symmetry 1
 ==============================

 a 2 2           1.0000000

 TOTAL ENERGIES                       -11.21512161

 CI vector for state symmetry 2
 ==============================

 2 a 2           1.0000000

 TOTAL ENERGIES                       -11.21512161

 CI vector for state symmetry 3
 ==============================

 2 2 a           1.0000000

 TOTAL ENERGIES                       -11.21512161



 **********************************************************************************************************************************
 DATASETS  * FILE   NREC   LENGTH (MB)   RECORD NAMES
              1      20       19.96       500      610      700      900      950      970     1000      129      960     1100   
                                          VAR    BASINP    GEOM    SYMINP    ZMAT    AOBASIS   BASIS     P2S    ABASIS      S 
                                         1400     1410     1420     1200     1210     1080     1600     1650     1700     1380   
                                           T        V       ECP      H0       H01     AOSYM     SMH    MOLCAS    OPER     JKOP   

              2       5        5.27       700     1000      520     4202     5202   
                                         GEOM     BASIS   MCVARS     RHF     MCSCF   

 PROGRAMS   *        TOTAL     MULTI       POP       RHF       INT
 CPU TIMES  *         1.12      0.08      0.00      0.05      0.41
 REAL TIME  *         2.82 SEC
 DISK USED  *       406.16 MB      
 SF USED    *         9.05 MB      
 GA USED    *         0.00 MB       (max)       0.00 MB       (current)
 **********************************************************************************************************************************


 PROGRAM * RHF-SCF (OPEN SHELL)       Authors: W. Meyer, H.-J. Werner


 NUMBER OF ELECTRONS:       4+    3-    SPACE SYMMETRY=5    SPIN SYMMETRY: Doublet 
 CONVERGENCE THRESHOLDS:    1.00E-05 (Density)    1.00E-07 (Energy)
 MAX. NUMBER OF ITERATIONS:        0
 INTERPOLATION TYPE:            DIIS
 INTERPOLATION STEPS:              2 (START)      1 (STEP)
 LEVEL SHIFTS:                 -0.60 (CLOSED) -0.30 (OPEN) 

 Number of closed-shell orbitals:    3 (   1   1   1   0   0   0   0   0 )
 Number of open-shell orbitals:      1 (   0   0   0   0   1   0   0   0 )


 Molecular orbitals read from record     5202.2  Type=MCSCF/NATURAL (state averaged)

 Molecular orbital dump at record        2101.2

 ITERATION    DDIFF          GRAD             ENERGY        2-EL.EN.            DIPOLE MOMENTS         DIIS   ORB.
    1      0.000D+00      0.000D+00       -11.21512161     14.884304    0.00000    0.00000    0.00000    0    start

 Final alpha occupancy:   1   1   1   0   1   0   0   0
 Final beta  occupancy:   1   1   1   0   0   0   0   0

 !RHF STATE 1.5 Energy                -11.215121610822
 Nuclear energy                         0.00000000
 One-electron energy                  -18.65727351
 Two-electron energy                    7.44215190
 Virial quotient                       -3.15963811
 !RHF STATE 1.5 Dipole moment           0.00000000     0.00000000     0.00000000
 Dipole moment /Debye                   0.00000000     0.00000000     0.00000000

 ELECTRON ORBITALS
 =================


   Orb  Occ    Energy  Couls-En    Coefficients

                                   1 1s      1 1s      1 1s      1 1s      1 3d0     1 3d2+    1 3d0     1 3d2+    1 3d0     1 3d2+ 
                                   1 5g0     1 5g4+    1 5g2+ 

   1.1   2    -0.8798   -3.9596  0.999769 -0.000658  0.001425 -0.000637  0.000000  0.000000  0.000000  0.000000  0.000000  0.000000
                                 0.000000  0.000000  0.000000

   2.1   0     0.2986   -1.2866 -0.288007  1.530502 -4.790022  3.803363  0.000000  0.000000  0.000000  0.000000  0.000000  0.000000
                                 0.000000  0.000000  0.000000

   3.1   0     0.3884   -1.3769  0.000000  0.000000  0.000000  0.000000  0.000000 -0.000677  0.000000 -0.135369  0.000000  1.090681
                                 0.000000  0.000000  0.000000

                                   1 2px     1 2px     1 2px     1 2px     1 4f1+    1 4f3+    1 4f1+    1 4f3+ 

   1.2   2    -0.3446   -2.8441  0.999952 -0.000022  0.000071 -0.000007  0.000000  0.000000  0.000000  0.000000

   2.2   0     0.3238   -1.0860 -0.391835  0.259290 -1.388277  1.808351  0.000000  0.000000  0.000000  0.000000

   3.2   0     0.8320   -0.6434  0.000000  0.000000  0.000000  0.000000  0.000000  0.033813  0.000000  0.978368

                                   1 2py     1 2py     1 2py     1 2py     1 4f1-    1 4f3-    1 4f1-    1 4f3- 

   1.3   2    -0.3446   -2.8441  0.999952 -0.000022  0.000071 -0.000007  0.000000  0.000000  0.000000  0.000000

   2.3   0     0.3238   -1.0860 -0.391835  0.259290 -1.388277  1.808351  0.000000  0.000000  0.000000  0.000000

   3.3   0     0.8320   -0.6434  0.000000  0.000000  0.000000  0.000000  0.000000  0.033813  0.000000  0.978368

                                   1 3d2-    1 3d2-    1 3d2-    1 5g2-    1 5g4- 

   1.4   0     0.3884   -1.3769 -0.000677 -0.135369  1.090681  0.000000  0.000000

   2.4   0     1.6350    0.6441 -0.387636  1.746739 -1.027966  0.000000  0.000000

                                   1 2pz     1 2pz     1 2pz     1 2pz     1 4f0     1 4f2+    1 4f0     1 4f2+ 

   1.5   +    -0.3446   -2.8441  0.999952 -0.000022  0.000071 -0.000007  0.000000  0.000000  0.000000  0.000000

   2.5   0     0.3238   -1.0860 -0.391835  0.259290 -1.388277  1.808351  0.000000  0.000000  0.000000  0.000000

   3.5   0     0.8320   -0.6434  0.000000  0.000000  0.000000  0.000000  0.000000  0.033813  0.000000  0.978368

                                   1 3d1+    1 3d1+    1 3d1+    1 5g1+    1 5g3+ 

   1.6   0     0.3884   -1.3769 -0.000677 -0.135369  1.090681  0.000000  0.000000

   2.6   0     1.6350    0.6441 -0.387636  1.746739 -1.027966  0.000000  0.000000

                                   1 3d1-    1 3d1-    1 3d1-    1 5g1-    1 5g3- 

   1.7   0     0.3884   -1.3769 -0.000677 -0.135369  1.090681  0.000000  0.000000

   2.7   0     1.6350    0.6441 -0.387636  1.746739 -1.027966  0.000000  0.000000

                                   1 4f2-    1 4f2- 

   1.8   0     0.8320   -0.6434  0.033813  0.978368

   2.8   0     1.9312    1.0668  1.286606 -0.836238

 HOMO      1.2    -0.344593 =      -9.3768eV
 LUMO      2.1     0.298557 =       8.1241eV
 LUMO-HOMO         0.643150 =      17.5010eV


 **********************************************************************************************************************************
 DATASETS  * FILE   NREC   LENGTH (MB)   RECORD NAMES
              1      20       19.96       500      610      700      900      950      970     1000      129      960     1100   
                                          VAR    BASINP    GEOM    SYMINP    ZMAT    AOBASIS   BASIS     P2S    ABASIS      S 
                                         1400     1410     1420     1200     1210     1080     1600     1650     1700     1380   
                                           T        V       ECP      H0       H01     AOSYM     SMH    MOLCAS    OPER     JKOP   

              2       6        7.78       700     1000      520     4202     5202     2101   
                                         GEOM     BASIS   MCVARS     RHF     MCSCF     RHF  

 PROGRAMS   *        TOTAL       RHF     MULTI       POP       RHF       INT
 CPU TIMES  *         1.14      0.01      0.08      0.00      0.05      0.41
 REAL TIME  *         2.89 SEC
 DISK USED  *       406.16 MB      
 SF USED    *         9.05 MB      
 GA USED    *         0.00 MB       (max)       0.00 MB       (current)
 **********************************************************************************************************************************
 SETTING SCF(1)         =       -11.21512161  AU                              


 PROGRAM * CCSD (Unrestricted open-shell coupled cluster)     Authors: C. Hampel, H.-J. Werner, 1991, M. Deegan, P.J. Knowles, 1992


 Convergence thresholds:  THRVAR = 1.00D-08  THRDEN = 1.00D-06

 CCSD(T)     terms to be evaluated (factor= 1.000)


 Number of closed-shell orbitals:   3 (   1   1   1   0   0   0   0   0 )
 Number of active  orbitals:        1 (   0   0   0   0   1   0   0   0 )
 Number of external orbitals:      50 (  12   7   7   5   7   5   5   2 )

 Memory could be reduced to 0.49 Mwords without degradation in triples

 Number of N-1 electron functions:               7
 Number of N-2 electron functions:              21
 Number of singly external CSFs:                60
 Number of doubly external CSFs:              5541
 Total number of CSFs:                        5601

 Molecular orbitals read from record     2101.2  Type=RHF/CANONICAL (state 1.5)

 Integral transformation finished. Total CPU:   0.01 sec, npass=  1  Memory used:   0.10 MW

 Starting RMP2 calculation

 ITER.      SQ.NORM     CORR.ENERGY   TOTAL ENERGY   ENERGY CHANGE        DEN1      VAR(S)    VAR(P)  DIIS     TIME
   1      1.06430810    -0.14657943   -11.36170104    -0.14657943    -0.00095261  0.36D-04  0.44D-03  1  1     0.02
   2      1.06548516    -0.14762990   -11.36275151    -0.00105047    -0.00000099  0.88D-07  0.39D-06  2  2     0.02
   3      1.06550689    -0.14764069   -11.36276230    -0.00001079    -0.00000000  0.56D-09  0.34D-09  3  3     0.02
   4      1.06550710    -0.14764075   -11.36276236    -0.00000006    -0.00000000  0.28D-11  0.93D-12  4  4     0.02

 Norm of t1 vector:      0.05871974      S-energy:    -0.00445222      T1 diagnostic:  0.00994268
 Norm of t2 vector:      0.24911662      P-energy:    -0.14318853
                                         Alpha-Beta:  -0.11441716
                                         Alpha-Alpha: -0.01944155
                                         Beta-Beta:   -0.00932981

 Spin contamination <S**2-Sz**2-Sz>     0.00303657
  Reference energy                    -11.215121610822
  RHF-RMP2 correlation energy          -0.147640747254
 !RHF-RMP2 energy                     -11.362762358076

 Starting UCCSD calculation

 ITER.      SQ.NORM     CORR.ENERGY   TOTAL ENERGY   ENERGY CHANGE        DEN1      VAR(S)    VAR(P)  DIIS     TIME
   1      1.07571196    -0.15790545   -11.37302706    -0.15790545    -0.00558891  0.39D-03  0.21D-02  1  1     0.03
   2      1.08414516    -0.16437384   -11.37949545    -0.00646839    -0.00015624  0.92D-05  0.64D-04  2  2     0.03
   3      1.08538174    -0.16489810   -11.38001971    -0.00052425    -0.00000660  0.24D-06  0.30D-05  3  3     0.03
   4      1.08561850    -0.16498118   -11.38010279    -0.00008308    -0.00000032  0.18D-07  0.15D-06  4  4     0.04
   5      1.08564193    -0.16498584   -11.38010745    -0.00000467    -0.00000003  0.22D-08  0.14D-07  5  5     0.04
   6      1.08564261    -0.16498563   -11.38010724     0.00000022    -0.00000000  0.12D-09  0.15D-08  6  6     0.05

 Norm of t1 vector:      0.07541258      S-energy:    -0.00541744      T1 diagnostic:  0.01469597
                                                                       D1 diagnostic:  0.03188762
 Norm of t2 vector:      0.28276413      P-energy:    -0.15956819
                                         Alpha-Beta:  -0.13145964
                                         Alpha-Alpha: -0.01900448
                                         Beta-Beta:   -0.00910406

 Doubles amplitudes (print threshold =  0.500E-01):

         I         J         SYM. A    SYM. B    A         B      T(IJ, AB) [Alpha-Beta]

         4         1         1         5         3         1     -0.05090121

 Spin contamination <S**2-Sz**2-Sz>     0.00184239

 Memory could be reduced to 0.50 Mwords without degradation in triples
 

 RESULTS
 =======

  Reference energy                    -11.215121610822
  UCCSD singles energy                 -0.005417435354
  UCCSD pair energy                    -0.159568190044
  UCCSD correlation energy             -0.164985625398
  Triples (T) contribution             -0.006016265943
  Total correlation energy             -0.171001891342
 
  RHF-UCCSD energy                    -11.380107236220
  RHF-UCCSD[T] energy                 -11.386154064588
  RHF-UCCSD-T energy                  -11.386108378674
 !RHF-UCCSD(T) energy                 -11.386123502163

 Program statistics:

 Available memory in ccsd:               511999732
 Min. memory needed in ccsd:                 27363
 Max. memory used in ccsd:                   32720
 Max. memory used in cckext:                 58927 ( 6 integral passes)
 Max. memory used in cckint:                100228 ( 1 integral passes)



 **********************************************************************************************************************************
 DATASETS  * FILE   NREC   LENGTH (MB)   RECORD NAMES
              1      20       19.96       500      610      700      900      950      970     1000      129      960     1100   
                                          VAR    BASINP    GEOM    SYMINP    ZMAT    AOBASIS   BASIS     P2S    ABASIS      S 
                                         1400     1410     1420     1200     1210     1080     1600     1650     1700     1380   
                                           T        V       ECP      H0       H01     AOSYM     SMH    MOLCAS    OPER     JKOP   

              2       6        7.78       700     1000      520     4202     5202     2101   
                                         GEOM     BASIS   MCVARS     RHF     MCSCF     RHF  

 PROGRAMS   *        TOTAL  UCCSD(T)       RHF     MULTI       POP       RHF       INT
 CPU TIMES  *         1.27      0.13      0.01      0.08      0.00      0.05      0.41
 REAL TIME  *         4.09 SEC
 DISK USED  *       491.55 MB      
 SF USED    *         9.05 MB      
 GA USED    *         0.00 MB       (max)       0.00 MB       (current)
 **********************************************************************************************************************************
 SETTING CCSD(1)        =       -11.38612350  AU                              
 Output type csv         
                                                                                                                                                                                                                                                                

       SCF,CCSD
   -11.21512161,   -11.38612350
                                                  

 UCCSD(T)/USERDEF energy=    -11.386123502163

        UCCSD(T)        MULTI           RHF-SCF 
    -11.38612350    -11.21512161    -11.21715116
 **********************************************************************************************************************************
 Molpro calculation terminated
 Variable memory released
