
 Primary working directories    : /global/cscratch1/sd/bkincaid
 Secondary working directories  : /global/cscratch1/sd/bkincaid
 Wavefunction directory         : /global/homes/b/bkincaid/wfu/
 Main file repository           : /global/cscratch1/sd/bkincaid/

 SHA1      : 19cd028119e0e09f93f0674bd8af7968d9b3eff6
 NAME      : 2015.1.36
 ARCHNAME  : linux/x86_64
 FC        : /opt/cray/pe/craype/2.5.14/bin/ftn
 BLASLIB   : -L/opt/intel/compilers_and_libraries_2018.1.163/linux/mkl/lib/intel64 -Wl,-_start-group -lmkl_intel_ilp64 -lmkl_intel_thread -lmkl_core -Wl,-_end-group -liomp5
 id        : lbl

 Nodes     nprocs
 nid01363    23
 Number of processes for MPI-2 version of Molpro:   nprocs(total)=   24   nprocs(compute)=   23   nprocs(helper)=    1

 Using customized tuning parameters: mindgm=7; mindgv=16; mindgc=1; mindgr=1; noblas=0; minvec=7
 default implementation of scratch files=sf  

 ***,Calculation for PdH groundstate
 memory,512,m
 gthresh,twoint=1.0E-12
 gthresh,throvl=1.0E-12
                                                                                 !symmetry,nosym
 
 set,dkroll=1,dkho=10,dkhp=4
 
 basis={
 
 Including file /global/u1/b/bkincaid/molpro/pd/molecules/PdH/tz/ae/1.079/c-Pd-aug-cc-pwCVTZ.basis
 
 Including file /global/u1/b/bkincaid/molpro/pd/molecules/PdH/tz/ae/1.079/c-H-aug-cc-pVTZ.basis
 }
 
 ne = 47
 
 geometry={
 2
 PdH
 Pd 0.0 0.0 0.0
 H 0.0 0.0 1.079
 }
 
 A1=12
 B1=5
 B2=5
 A2=2
 
 {rks,pbe0
 wf,nele=ne,spin=1,sym=1
 occ,A1,B1,B2,A2
 closed,A1-1,B1,B2,A2
 }
 {rhf
 wf,nelec=ne,spin=1,sym=1
 occ,A1,B1,B2,A2
 closed,A1-1,B1,B2,A2
 }
 
 
 basis={
 
 Including file /global/u1/b/bkincaid/molpro/pd/molecules/PdH/tz/ae/1.079/Pd-aug-cc-pwCVTZ.basis
 
 Including file /global/u1/b/bkincaid/molpro/pd/molecules/PdH/tz/ae/1.079/H-aug-cc-pVTZ.basis
 }
 
 {rhf
 wf,nelec=ne,spin=1,sym=1
 occ,A1,B1,B2,A2
 closed,A1-1,B1,B2,A2
 }
 
 E_Pd = -5044.366379
 E_H = -0.49982785
 
 scf=energy
 _CC_NORM_MAX=2.0
 {rccsd(t);maxit,100;core}
 ccsd=energy
 BE = ccsd - E_Pd - E_H
 
 table,scf,ccsd,BE
 save
 type,csv

 Variables initialized (889), CPU time= 0.02 sec
 Commands  initialized (702), CPU time= 0.01 sec, 572 directives.
 Default parameters read. Elapsed time= 0.19 sec

 Checking input...
 Passed
1


                                         ***  PROGRAM SYSTEM MOLPRO  ***
                                       Copyright, TTI GmbH Stuttgart, 2015
                                    Version 2015.1 linked Dec 29 2018 15:55:43


 **********************************************************************************************************************************
 LABEL *   Calculation for PdH groundstate                                               
  64 bit mpp version                                                                     DATE: 14-Sep-20          TIME: 12:08:36  
 **********************************************************************************************************************************

 SHA1:             19cd028119e0e09f93f0674bd8af7968d9b3eff6
 **********************************************************************************************************************************

 THRESHOLDS:

 ZERO    =  1.00D-12  ONEINT  =  1.00D-12  TWOINT  =  1.00D-12  PREFAC  =  1.00D-14  LOCALI  =  1.00D-09  EORDER  =  1.00D-04
 ENERGY  =  0.00D+00  ETEST   =  0.00D+00  EDENS   =  0.00D+00  THRDEDEF=  1.00D-06  GRADIENT=  1.00D-02  STEP    =  1.00D-03
 ORBITAL =  1.00D-05  CIVEC   =  1.00D-05  COEFF   =  1.00D-04  PRINTCI =  5.00D-02  PUNCHCI =  9.90D+01  OPTGRAD =  3.00D-04
 OPTENERG=  1.00D-06  OPTSTEP =  3.00D-04  THRGRAD =  1.00D-10  COMPRESS=  1.00D-11  VARMIN  =  1.00D-07  VARMAX  =  1.00D-03
 THRDOUB =  0.00D+00  THRDIV  =  1.00D-05  THRRED  =  1.00D-07  THRPSP  =  1.00D+00  THRDC   =  1.00D-10  THRCS   =  1.00D-10
 THRNRM  =  1.00D-08  THREQ   =  0.00D+00  THRDE   =  1.00D+00  THRREF  =  1.00D-05  SPARFAC =  1.00D+00  THRDLP  =  1.00D-07
 THRDIA  =  1.00D-10  THRDLS  =  1.00D-07  THRGPS  =  0.00D+00  THRKEX  =  0.00D+00  THRDIS  =  2.00D-01  THRVAR  =  1.00D-10
 THRLOC  =  1.00D-06  THRGAP  =  1.00D-06  THRLOCT = -1.00D+00  THRGAPT = -1.00D+00  THRORB  =  1.00D-06  THRMLTP =  0.00D+00
 THRCPQCI=  1.00D-10  KEXTA   =  0.00D+00  THRCOARS=  0.00D+00  SYMTOL  =  1.00D-06  GRADTOL =  1.00D-06  THROVL  =  1.00D-08
 THRORTH =  1.00D-08  GRID    =  1.00D-06  GRIDMAX =  1.00D-03  DTMAX   =  0.00D+00  THROCCDE=  1.00D-01  THROCCDE=  1.00D-01



 THRESHOLDS:

 ZERO    =  1.00D-12  ONEINT  =  1.00D-12  TWOINT  =  1.00D-12  PREFAC  =  1.00D-14  LOCALI  =  1.00D-09  EORDER  =  1.00D-04
 ENERGY  =  0.00D+00  ETEST   =  0.00D+00  EDENS   =  0.00D+00  THRDEDEF=  1.00D-06  GRADIENT=  1.00D-02  STEP    =  1.00D-03
 ORBITAL =  1.00D-05  CIVEC   =  1.00D-05  COEFF   =  1.00D-04  PRINTCI =  5.00D-02  PUNCHCI =  9.90D+01  OPTGRAD =  3.00D-04
 OPTENERG=  1.00D-06  OPTSTEP =  3.00D-04  THRGRAD =  1.00D-10  COMPRESS=  1.00D-11  VARMIN  =  1.00D-07  VARMAX  =  1.00D-03
 THRDOUB =  0.00D+00  THRDIV  =  1.00D-05  THRRED  =  1.00D-07  THRPSP  =  1.00D+00  THRDC   =  1.00D-10  THRCS   =  1.00D-10
 THRNRM  =  1.00D-08  THREQ   =  0.00D+00  THRDE   =  1.00D+00  THRREF  =  1.00D-05  SPARFAC =  1.00D+00  THRDLP  =  1.00D-07
 THRDIA  =  1.00D-10  THRDLS  =  1.00D-07  THRGPS  =  0.00D+00  THRKEX  =  0.00D+00  THRDIS  =  2.00D-01  THRVAR  =  1.00D-10
 THRLOC  =  1.00D-06  THRGAP  =  1.00D-06  THRLOCT = -1.00D+00  THRGAPT = -1.00D+00  THRORB  =  1.00D-06  THRMLTP =  0.00D+00
 THRCPQCI=  1.00D-10  KEXTA   =  0.00D+00  THRCOARS=  0.00D+00  SYMTOL  =  1.00D-06  GRADTOL =  1.00D-06  THROVL  =  1.00D-12
 THRORTH =  1.00D-08  GRID    =  1.00D-06  GRIDMAX =  1.00D-03  DTMAX   =  0.00D+00  THROCCDE=  1.00D-01  THROCCDE=  1.00D-01


 SETTING DKROLL         =         1.00000000                                  
 SETTING DKHO           =        10.00000000                                  
 SETTING DKHP           =         4.00000000                                  

 Variable memory set to  512000000 words,  buffer space   230000 words

 SETTING BASIS          =    USERDEF
 SETTING NE             =        47.00000000                                  

Geometry recognized as XYZ

 SETTING A1             =        12.00000000                                  
 SETTING B1             =         5.00000000                                  
 SETTING B2             =         5.00000000                                  
 SETTING A2             =         2.00000000                                  


 Recomputing integrals since basis changed


 Using spherical harmonics



 PROGRAM * SEWARD (Integral evaluation for generally contracted gaussian basis sets)     Author: Roland Lindh, 1990

 Geometry written to block  1 of record 700


 Point group  C2v 



 ATOMIC COORDINATES

 NR  ATOM    CHARGE       X              Y              Z

   1  PD     46.00    0.000000000    0.000000000    0.000000000
   2  H       1.00    0.000000000    0.000000000    2.039014488

 Bond lengths in Bohr (Angstrom)

 1-2  2.039014488
     ( 1.079000000)

 NUCLEAR CHARGE:                   47
 NUMBER OF PRIMITIVE AOS:         315
 NUMBER OF SYMMETRY AOS:          266
 NUMBER OF CONTRACTIONS:          159   (  65A1  +  37B1  +  37B2  +  20A2  )
 NUMBER OF CORE ORBITALS:          18   (   9A1  +   4B1  +   4B2  +   1A2  )
 NUMBER OF VALENCE ORBITALS:        7   (   4A1  +   1B1  +   1B2  +   1A2  )


 NUCLEAR REPULSION ENERGY   22.55991817

 One-electron integrals computed with SEWARD

 10nd-order Douglas-Kroll-Hess method activated. McWeeny DKH parametrization is used.

 Computing Douglas-Kroll / X2C integrals

 AO integral compression algorithm  1   Integral accuracy      1.0D-12

     99.877 MB (compressed) written to integral file ( 55.3%)

     Node minimum: 1.311 MB, node maximum: 7.340 MB


 NUMBER OF SORTED TWO-ELECTRON INTEGRALS:     906300.     BUFFER LENGTH:  32768
 NUMBER OF SEGMENTS:   1  SEGMENT LENGTH:     906300      RECORD LENGTH: 524288

 Memory used in sort:       1.46 MW

 SORT1 READ    22613812. AND WROTE      510312. INTEGRALS IN      2 RECORDS. CPU TIME:     6.82 SEC, REAL TIME:    14.74 SEC
 SORT2 READ    11897196. AND WROTE    20925119. INTEGRALS IN    644 RECORDS. CPU TIME:     0.22 SEC, REAL TIME:     0.24 SEC

 Node minimum:      897627.  Node maximum:      932430. integrals

 OPERATOR DM      FOR CENTER  0  COORDINATES:    0.000000    0.000000    0.000000

 EXTRA SYMMETRY OF AOS IN SYMMETRY 1:   1 1 1 1 1 1 1 1 1 1   1 1 1 1 1 1 1 1 1 1   1 1 2 1 2 1 2 1 2 1   2 1 2 1 2 1 2 1 2 1
                                        2 1 2 1 2 1 3 2 1 3   2 1 3 2 1 1 1 1 1 1   1 1 2 1 2
 EXTRA SYMMETRY OF AOS IN SYMMETRY 2:   1 1 1 1 1 1 1 1 1 1   1 1 1 1 1 1 1 1 1 2   1 2 1 2 1 2 1 2 1 2   1 2 1 1 1 1 1
 EXTRA SYMMETRY OF AOS IN SYMMETRY 3:   1 1 1 1 1 1 1 1 1 1   1 1 1 1 1 1 1 1 1 2   1 2 1 2 1 2 1 2 1 2   1 2 1 1 1 1 1
 EXTRA SYMMETRY OF AOS IN SYMMETRY 4:   1 1 1 1 1 1 1 1 1 1   1 1 1 2 1 2 1 2 1 1

 Eigenvalues of metric

         1 0.183E-04 0.100E-03 0.113E-03 0.482E-03 0.592E-03 0.135E-02 0.157E-02 0.231E-02
         2 0.635E-03 0.135E-02 0.156E-02 0.459E-02 0.203E-01 0.207E-01 0.510E-01 0.762E-01
         3 0.635E-03 0.135E-02 0.156E-02 0.459E-02 0.203E-01 0.207E-01 0.510E-01 0.762E-01
         4 0.157E-02 0.214E-01 0.642E-01 0.964E-01 0.121E+00 0.148E+00 0.166E+00 0.385E+00


 **********************************************************************************************************************************
 DATASETS  * FILE   NREC   LENGTH (MB)   RECORD NAMES
              1      22       20.70       500      610      700      900      950      970     1000      129      960     1700   
                                          VAR    BASINP    GEOM    SYMINP    ZMAT    AOBASIS   BASIS     P2S    ABASIS    OPER   
                                         1101     1401     1411     1412     1650     1100     1400     1410     1200     1210   
                                          SR      EKINR    POTR     PVPR    MOLCAS      S      EKIN      POT      H0       H01  
                                         1080     1600   
                                         AOSYM     SMH  

 PROGRAMS   *        TOTAL       INT
 CPU TIMES  *        16.42     15.35
 REAL TIME  *        28.89 SEC
 DISK USED  *       269.40 MB      
 GA USED    *         0.00 MB       (max)       0.00 MB       (current)
 **********************************************************************************************************************************

 Density functional group PBE0=PBEX+PBEC
 Functional: PBEX(Automatically generated (new) PBEX)                          Gradient terms: 1
 Functional: PBEC(Automatically generated (new) PBEC)                          Gradient terms: 1
 Use grid at  1800.2
 

 Exact exchange will be calculated, factor:  0.2500

 Functional: PBEX                      Factor:  0.7500
 Functional: PBEC                      Factor:  1.0000
 
 Generated new metagrid on record  1800.2 with target accuracy 1.0D-06 and 4229 points in CPU time    0.1
 Computed new grid on record 1800.1 in CPU time    0.1
  133744 words reserved for DFT integration

 PROGRAM * RKS-SCF (Restricted open shell Kohn-Sham)     Authors: W. Meyer, H.-J. Werner, P.J. Knowles, 1993

 NUMBER OF ELECTRONS:      24+   23-    SPACE SYMMETRY=1    SPIN SYMMETRY: Doublet 
 CONVERGENCE THRESHOLDS:    1.00E-05 (Density)    1.00E-06 (Energy)
 MAX. NUMBER OF ITERATIONS:       60
 INTERPOLATION TYPE:            DIIS
 INTERPOLATION STEPS:              2 (START)      1 (STEP)
 LEVEL SHIFTS:                 -0.60 (CLOSED) -0.30 (OPEN) 

 Number of closed-shell orbitals:   23 (  11   5   5   2 )
 Number of open-shell orbitals:      1 (   1   0   0   0 )


 Use fine grid record 1800.2 for energy threshold  1.0D-06
 Orbital guess generated from atomic densities. Full valence occupancy:   13   5   5   2

 Molecular orbital dump at record        2100.2

 ITERATION    DDIFF          GRAD             ENERGY        2-EL.EN.            DIPOLE MOMENTS         DIIS   ORB.
    1      0.000D+00      0.000D+00     -5021.45709240   3523.520405    0.00000    0.00000   -2.99333    0    start
    2      0.000D+00      0.866D-01     -5035.38525315   4453.037666    0.00000    0.00000    0.63406    1    diag,B
    3      0.111D+02      0.176D+00     -5041.31283795   4316.445971    0.00000    0.00000    0.25094    2    diag,B
    4      0.320D-01      0.952D-01     -5044.38614020   4206.618982    0.00000    0.00000   -0.18476    3    diag,B
    5      0.251D-01      0.444D-01     -5045.32721547   4136.392104    0.00000    0.00000   -0.51337    4    diag,B
    6      0.164D-01      0.159D-01     -5045.51540028   4092.574441    0.00000    0.00000   -0.70411    5    diag,B
    7      0.124D-01      0.156D-02     -5045.52269840   4088.505502    0.00000    0.00000   -0.67303    6    fixocc
    8      0.516D-02      0.125D-02     -5045.52489911   4088.743596    0.00000    0.00000   -0.60814    7    diag,B
    9      0.243D-02      0.551D-03     -5045.52537977   4089.283872    0.00000    0.00000   -0.56520    8    diag,B
   10      0.114D-02      0.169D-03     -5045.52550954   4089.499336    0.00000    0.00000   -0.53371    9    orth
   11      0.411D-03      0.662D-04     -5045.52556802   4089.530270    0.00000    0.00000   -0.50770    9    diag,B
   12      0.454D-03      0.337D-04     -5045.52557676   4089.484350    0.00000    0.00000   -0.49858    9    diag,B
   13      0.200D-03      0.149D-04     -5045.52557878   4089.450310    0.00000    0.00000   -0.49369    9    diag,B
   14      0.116D-03      0.325D-05     -5045.52557889   4089.448973    0.00000    0.00000   -0.49277    9    diag,B
   15      0.523D-04      0.117D-05     -5045.52557890   4089.449443    0.00000    0.00000   -0.49261    9    diag,B
   16      0.192D-04      0.377D-06     -5045.52557890   4089.449354    0.00000    0.00000   -0.49260    9    diag,B
   17      0.112D-04      0.149D-06     -5045.52557890   4089.449339    0.00000    0.00000   -0.49260    9    diag,B
   18      0.985D-06      0.518D-07     -5045.52557890   4089.449391    0.00000    0.00000   -0.49260    0    orth

 Final alpha occupancy:  12   5   5   2
 Final beta  occupancy:  11   5   5   2

 !RKS STATE 1.1 Energy              -5045.525578898008
 Nuclear energy                        22.55991817
 One-electron energy                -7003.07518473
 Two-electron energy                 2044.72469548
 Density functional                  -109.73500782     PBEX=-143.05888397 PBEC=  -2.44084484
 Virial quotient                       -0.88612102
 !RKS STATE 1.1 Dipole moment           0.00000000     0.00000000    -0.49260401
 Dipole moment /Debye                   0.00000000     0.00000000    -1.25199250

 Orbital energies:

         1.1          2.1          3.1          4.1          5.1          6.1          7.1          8.1          9.1         10.1
   -889.922644  -130.797530  -117.265843   -23.994510   -19.520183   -12.371958   -12.355360    -3.421942    -2.163959    -0.464598

        11.1         12.1         13.1         14.1
     -0.265518    -0.207788    -0.035243     0.010644

         1.2          2.2          3.2          4.2          5.2          6.2          7.2
   -117.258899   -19.500799   -12.367615    -2.103462    -0.301216    -0.013005     0.038244

         1.3          2.3          3.3          4.3          5.3          6.3          7.3
   -117.258899   -19.500799   -12.367615    -2.103462    -0.301216    -0.013005     0.038244

         1.4          2.4          3.4          4.4
    -12.355360    -0.265518     0.067940     0.260516

 HOMO     12.1    -0.207788 =      -5.6542eV
 LUMO     13.1    -0.035243 =      -0.9590eV
 LUMO-HOMO         0.172544 =       4.6952eV


 **********************************************************************************************************************************
 DATASETS  * FILE   NREC   LENGTH (MB)   RECORD NAMES
              1      23       20.70       500      610      700      900      950      970     1000      129      960     1700   
                                          VAR    BASINP    GEOM    SYMINP    ZMAT    AOBASIS   BASIS     P2S    ABASIS    OPER   
                                         1101     1401     1411     1412     1650     1100     1400     1410     1200     1210   
                                          SR      EKINR    POTR     PVPR    MOLCAS      S      EKIN      POT      H0       H01  
                                         1080     1600     1800   
                                         AOSYM     SMH     GRID   

              2       5        3.01       700     1000      520     1800     2100   
                                         GEOM     BASIS   MCVARS    GRID      RKS  

 PROGRAMS   *        TOTAL       RKS       INT
 CPU TIMES  *        17.39      0.96     15.35
 REAL TIME  *        30.50 SEC
 DISK USED  *       841.25 MB      
 SF USED    *         0.03 MB      
 GA USED    *         0.20 MB       (max)       0.20 MB       (current)
 **********************************************************************************************************************************


 PROGRAM * RHF-SCF (OPEN SHELL)       Authors: W. Meyer, H.-J. Werner


 NUMBER OF ELECTRONS:      24+   23-    SPACE SYMMETRY=1    SPIN SYMMETRY: Doublet 
 CONVERGENCE THRESHOLDS:    1.00E-05 (Density)    1.00E-07 (Energy)
 MAX. NUMBER OF ITERATIONS:       60
 INTERPOLATION TYPE:            DIIS
 INTERPOLATION STEPS:              2 (START)      1 (STEP)
 LEVEL SHIFTS:                 -0.60 (CLOSED) -0.30 (OPEN) 

 Number of closed-shell orbitals:   23 (  11   5   5   2 )
 Number of open-shell orbitals:      1 (   1   0   0   0 )


 Molecular orbitals read from record     2100.2  Type=RKS/CANONICAL (state 1.1)

 Molecular orbital dump at record        2101.2

 ITERATION    DDIFF          GRAD             ENERGY        2-EL.EN.            DIPOLE MOMENTS         DIIS   ORB.
    1      0.000D+00      0.000D+00     -5043.24132351   3874.547886    0.00000    0.00000   -0.49260    0    start
    2      0.000D+00      0.131D-01     -5043.25616516   3874.954631    0.00000    0.00000   -0.54202    1    diag,B
    3      0.854D-02      0.117D-02     -5043.25742663   3875.466823    0.00000    0.00000   -0.57695    2    diag,B
    4      0.116D-02      0.385D-03     -5043.25786865   3875.319809    0.00000    0.00000   -0.61069    3    diag,B
    5      0.614D-03      0.185D-03     -5043.25803770   3875.521389    0.00000    0.00000   -0.63436    4    diag,B
    6      0.457D-03      0.101D-03     -5043.25808725   3875.406513    0.00000    0.00000   -0.64989    5    diag,B
    7      0.243D-03      0.452D-04     -5043.25810612   3875.407090    0.00000    0.00000   -0.66189    6    diag,B
    8      0.176D-03      0.182D-04     -5043.25811037   3875.407084    0.00000    0.00000   -0.66698    7    orth
    9      0.868D-04      0.112D-04     -5043.25811274   3875.407017    0.00000    0.00000   -0.67180    8    diag,B
   10      0.913D-04      0.592D-05     -5043.25811346   3875.412956    0.00000    0.00000   -0.67453    9    diag,B
   11      0.254D-04      0.338D-05     -5043.25811371   3875.417832    0.00000    0.00000   -0.67628    9    diag,B
   12      0.213D-04      0.174D-05     -5043.25811377   3875.420339    0.00000    0.00000   -0.67728    9    diag,B
   13      0.132D-04      0.772D-06     -5043.25811378   3875.421594    0.00000    0.00000   -0.67765    9    diag,B
   14      0.815D-05      0.288D-06     -5043.25811378   3875.421599    0.00000    0.00000   -0.67769    0    orth

 Final alpha occupancy:  12   5   5   2
 Final beta  occupancy:  11   5   5   2

 !RHF STATE 1.1 Energy              -5043.258113776253
 Nuclear energy                        22.55991817
 One-electron energy                -7003.52883145
 Two-electron energy                 1937.71079950
 Virial quotient                       -0.88549997
 !RHF STATE 1.1 Dipole moment           0.00000000     0.00000000    -0.67768596
 Dipole moment /Debye                   0.00000000     0.00000000    -1.72239308

 Orbital energies:

         1.1          2.1          3.1          4.1          5.1          6.1          7.1          8.1          9.1         10.1
   -899.535778  -134.493842  -120.388099   -25.649439   -20.895763   -13.310029   -13.302156    -3.968430    -2.562315    -0.601454

        11.1         12.1         13.1         14.1
     -0.416273    -0.264782     0.015558     0.025710

         1.2          2.2          3.2          4.2          5.2          6.2          7.2
   -120.382424   -20.876404   -13.315274    -2.509202    -0.456305     0.022903     0.075491

         1.3          2.3          3.3          4.3          5.3          6.3          7.3
   -120.382424   -20.876404   -13.315274    -2.509202    -0.456305     0.022903     0.075491

         1.4          2.4          3.4          4.4
    -13.302156    -0.416273     0.099717     0.335403

 HOMO     12.1    -0.264782 =      -7.2051eV
 LUMO     13.1     0.015558 =       0.4234eV
 LUMO-HOMO         0.280340 =       7.6284eV


 **********************************************************************************************************************************
 DATASETS  * FILE   NREC   LENGTH (MB)   RECORD NAMES
              1      23       20.70       500      610      700      900      950      970     1000      129      960     1700   
                                          VAR    BASINP    GEOM    SYMINP    ZMAT    AOBASIS   BASIS     P2S    ABASIS    OPER   
                                         1101     1401     1411     1412     1650     1100     1400     1410     1200     1210   
                                          SR      EKINR    POTR     PVPR    MOLCAS      S      EKIN      POT      H0       H01  
                                         1080     1600     1800   
                                         AOSYM     SMH     GRID   

              2       6        5.80       700     1000      520     1800     2100     2101   
                                         GEOM     BASIS   MCVARS    GRID      RKS      RHF  

 PROGRAMS   *        TOTAL       RHF       RKS       INT
 CPU TIMES  *        18.09      0.70      0.96     15.35
 REAL TIME  *        31.43 SEC
 DISK USED  *       905.50 MB      
 SF USED    *         0.03 MB      
 GA USED    *         0.20 MB       (max)       0.20 MB       (current)
 **********************************************************************************************************************************
 SETTING BASIS          =    USERDEF


 Recomputing integrals since basis changed


 Using spherical harmonics



 PROGRAM * SEWARD (Integral evaluation for generally contracted gaussian basis sets)     Author: Roland Lindh, 1990

 Geometry written to block  1 of record 700


 Point group  C2v 



 ATOMIC COORDINATES

 NR  ATOM    CHARGE       X              Y              Z

   1  PD     46.00    0.000000000    0.000000000    0.000000000
   2  H       1.00    0.000000000    0.000000000    2.039014488

 Bond lengths in Bohr (Angstrom)

 1-2  2.039014488
     ( 1.079000000)

 NUCLEAR CHARGE:                   47
 NUMBER OF PRIMITIVE AOS:         312
 NUMBER OF SYMMETRY AOS:          263
 NUMBER OF CONTRACTIONS:          263   ( 116A1  +  59B1  +  59B2  +  29A2  )
 NUMBER OF CORE ORBITALS:          18   (   9A1  +   4B1  +   4B2  +   1A2  )
 NUMBER OF VALENCE ORBITALS:        7   (   4A1  +   1B1  +   1B2  +   1A2  )


 NUCLEAR REPULSION ENERGY   22.55991817

 One-electron integrals computed with SEWARD

 10nd-order Douglas-Kroll-Hess method activated. McWeeny DKH parametrization is used.

 Computing Douglas-Kroll / X2C integrals

 AO integral compression algorithm  1   Integral accuracy      1.0D-12

     522.977 MB (compressed) written to integral file ( 38.1%)

     Node minimum: 7.078 MB, node maximum: 54.264 MB


 NUMBER OF SORTED TWO-ELECTRON INTEGRALS:    6738189.     BUFFER LENGTH:  32768
 NUMBER OF SEGMENTS:   1  SEGMENT LENGTH:    6738189      RECORD LENGTH: 524288

 Memory used in sort:       7.30 MW

 SORT1 READ   171363336. AND WROTE     2822741. INTEGRALS IN      9 RECORDS. CPU TIME:     9.79 SEC, REAL TIME:    10.25 SEC
 SORT2 READ    66511724. AND WROTE   156329493. INTEGRALS IN   1610 RECORDS. CPU TIME:     0.57 SEC, REAL TIME:     0.73 SEC

 Node minimum:     6738189.  Node maximum:     6815662. integrals

 OPERATOR DM      FOR CENTER  0  COORDINATES:    0.000000    0.000000    0.000000

 EXTRA SYMMETRY OF AOS IN SYMMETRY 1:   1 1 1 1 1 1 1 1 1 1   1 1 1 1 1 1 1 1 1 1   1 1 1 1 1 1 1 1 1 1   1 1 1 1 1 1 1 1 1 1
                                        1 1 1 1 1 1 1 1 1 1   1 1 1 2 1 2 1 2 1 2   1 2 1 2 1 2 1 2 1 2   1 2 1 2 1 2 1 2 1 2
                                        1 2 1 2 1 2 1 2 1 2   1 2 1 2 1 3 2 1 3 2   1 3 2 1 1 1 1 1 1 1   1 1 1 2 1 2
 EXTRA SYMMETRY OF AOS IN SYMMETRY 2:   1 1 1 1 1 1 1 1 1 1   1 1 1 1 1 1 1 1 1 1   1 1 1 1 1 1 1 1 1 1   1 1 1 1 1 1 1 1 1 1
                                        1 2 1 2 1 2 1 2 1 2   1 2 1 2 1 1 1 1 1
 EXTRA SYMMETRY OF AOS IN SYMMETRY 3:   1 1 1 1 1 1 1 1 1 1   1 1 1 1 1 1 1 1 1 1   1 1 1 1 1 1 1 1 1 1   1 1 1 1 1 1 1 1 1 1
                                        1 2 1 2 1 2 1 2 1 2   1 2 1 2 1 1 1 1 1
 EXTRA SYMMETRY OF AOS IN SYMMETRY 4:   1 1 1 1 1 1 1 1 1 1   1 1 1 1 1 1 1 1 1 1   1 1 2 1 2 1 2 1 1

 Eigenvalues of metric

         1 0.851E-06 0.177E-05 0.876E-05 0.951E-05 0.219E-04 0.257E-04 0.108E-03 0.156E-03
         2 0.980E-06 0.921E-05 0.290E-03 0.471E-03 0.162E-02 0.288E-02 0.397E-02 0.441E-02
         3 0.980E-06 0.921E-05 0.290E-03 0.471E-03 0.162E-02 0.288E-02 0.397E-02 0.441E-02
         4 0.951E-05 0.307E-03 0.302E-02 0.107E-01 0.282E-01 0.498E-01 0.706E-01 0.102E+00


 **********************************************************************************************************************************
 DATASETS  * FILE   NREC   LENGTH (MB)   RECORD NAMES
              1      22       21.38       500      610      700      900      950      970     1001      129      960     1700   
                                          VAR    BASINP    GEOM    SYMINP    ZMAT    AOBASIS   BASIS     P2S    ABASIS    OPER   
                                         1101     1401     1411     1412     1650     1100     1400     1410     1200     1210   
                                          SR      EKINR    POTR     PVPR    MOLCAS      S      EKIN      POT      H0       H01  
                                         1080     1600   
                                         AOSYM     SMH  

              2       7        5.94       700     1000      520     1800     2100     2101     1001   
                                         GEOM     BASIS   MCVARS    GRID      RKS      RHF     BASIS   

 PROGRAMS   *        TOTAL       INT       RHF       RKS       INT
 CPU TIMES  *        48.35     30.12      0.70      0.96     15.35
 REAL TIME  *        64.55 SEC
 DISK USED  *         2.00 GB      
 SF USED    *         0.03 MB      
 GA USED    *         0.20 MB       (max)       0.00 MB       (current)
 **********************************************************************************************************************************


 PROGRAM * RHF-SCF (OPEN SHELL)       Authors: W. Meyer, H.-J. Werner


 NUMBER OF ELECTRONS:      24+   23-    SPACE SYMMETRY=1    SPIN SYMMETRY: Doublet 
 CONVERGENCE THRESHOLDS:    1.00E-05 (Density)    1.00E-07 (Energy)
 MAX. NUMBER OF ITERATIONS:       60
 INTERPOLATION TYPE:            DIIS
 INTERPOLATION STEPS:              2 (START)      1 (STEP)
 LEVEL SHIFTS:                 -0.60 (CLOSED) -0.30 (OPEN) 

 Number of closed-shell orbitals:   23 (  11   5   5   2 )
 Number of open-shell orbitals:      1 (   1   0   0   0 )


 Molecular orbitals read from record     2101.2  Type=RHF/CANONICAL (state 1.1)
 
 Present basis size:     116  59  59  29
 Previous basis size:     65  37  37  20
 Previous occupation:     12   5   5   2
 Previous closed-shells:  11   5   5   2
 Previous core-orbitals:   9   4   4   1
 Present occupation:      12   5   5   2
 Present closed-shells:   11   5   5   2
 Present core-orbitals:    9   4   4   1
 Wavefunction symmetry:    1   Doublet 

 Orbital overlap <old|new>:  < 1.1| 1.1> = 1.000000   < 2.1| 2.1> = 1.000000   < 3.1| 3.1> = 1.000000   < 4.1| 4.1> = 1.000000
                             < 5.1| 5.1> = 1.000000   < 6.1| 6.1> = 1.000000   < 7.1| 7.1> = 1.000000   < 8.1| 8.1> = 1.000000
                             < 9.1| 9.1> = 1.000000   < 1.2| 1.2> = 1.000000   < 2.2| 2.2> = 1.000000   < 3.2| 3.2> = 1.000000
                             < 4.2| 4.2> = 1.000000   < 1.3| 1.3> = 1.000000   < 2.3| 2.3> = 1.000000   < 3.3| 3.3> = 1.000000
                             < 4.3| 4.3> = 1.000000   < 1.4| 1.4> = 1.000000   <10.1|10.1> = 1.000000   <11.1|11.1> = 1.000000
                             < 5.2| 5.2> = 1.000000   < 5.3| 5.3> = 1.000000   < 2.4| 2.4> = 1.000000   <12.1|12.1> = 1.000000

 Molecular orbital dump at record        2102.2

 ITERATION    DDIFF          GRAD             ENERGY        2-EL.EN.            DIPOLE MOMENTS         DIIS   ORB.
    1      0.000D+00      0.000D+00     -5043.25811290   3875.421598    0.00000    0.00000   -0.67769    0    start
    2      0.000D+00      0.670D-01     -5043.25868942   3875.466264    0.00000    0.00000   -0.67777    1    diag,B
    3      0.696D-02      0.108D-03     -5043.25869097   3875.457919    0.00000    0.00000   -0.67779    2    diag,B
    4      0.123D-02      0.935D-05     -5043.25869110   3875.462425    0.00000    0.00000   -0.67784    3    diag,B
    5      0.423D-03      0.292D-05     -5043.25869113   3875.460066    0.00000    0.00000   -0.67788    4    diag,B
    6      0.188D-03      0.111D-05     -5043.25869113   3875.461622    0.00000    0.00000   -0.67789    5    diag,B
    7      0.753D-04      0.353D-06     -5043.25869113   3875.461178    0.00000    0.00000   -0.67790    6    diag,B
    8      0.260D-04      0.978D-07     -5043.25869113   3875.461374    0.00000    0.00000   -0.67790    7    orth
    9      0.473D-05      0.370D-07     -5043.25869113   3875.461346    0.00000    0.00000   -0.67791    0    orth

 Final alpha occupancy:  12   5   5   2
 Final beta  occupancy:  11   5   5   2

 !RHF STATE 1.1 Energy              -5043.258691129595
 Nuclear energy                        22.55991817
 One-electron energy                -7003.54928213
 Two-electron energy                 1937.73067283
 Virial quotient                       -0.88507753
 !RHF STATE 1.1 Dipole moment           0.00000000     0.00000000    -0.67790978
 Dipole moment /Debye                   0.00000000     0.00000000    -1.72296194

 Orbital energies:

         1.1          2.1          3.1          4.1          5.1          6.1          7.1          8.1          9.1         10.1
   -899.529307  -134.493483  -120.387173   -25.649434   -20.895638   -13.310042   -13.302213    -3.968436    -2.562310    -0.601477

        11.1         12.1         13.1         14.1
     -0.416280    -0.264791     0.015543     0.025334

         1.2          2.2          3.2          4.2          5.2          6.2          7.2
   -120.381533   -20.876309   -13.315296    -2.509190    -0.456311     0.022893     0.075401

         1.3          2.3          3.3          4.3          5.3          6.3          7.3
   -120.381533   -20.876309   -13.315296    -2.509190    -0.456311     0.022893     0.075401

         1.4          2.4          3.4          4.4
    -13.302213    -0.416280     0.098912     0.327335

 HOMO     12.1    -0.264791 =      -7.2053eV
 LUMO     13.1     0.015543 =       0.4229eV
 LUMO-HOMO         0.280334 =       7.6283eV


 **********************************************************************************************************************************
 DATASETS  * FILE   NREC   LENGTH (MB)   RECORD NAMES
              1      22       21.38       500      610      700      900      950      970     1001      129      960     1700   
                                          VAR    BASINP    GEOM    SYMINP    ZMAT    AOBASIS   BASIS     P2S    ABASIS    OPER   
                                         1101     1401     1411     1412     1650     1100     1400     1410     1200     1210   
                                          SR      EKINR    POTR     PVPR    MOLCAS      S      EKIN      POT      H0       H01  
                                         1080     1600   
                                         AOSYM     SMH  

              2       8        9.03       700     1000      520     1800     2100     2101     1001     2102   
                                         GEOM     BASIS   MCVARS    GRID      RKS      RHF     BASIS     RHF  

 PROGRAMS   *        TOTAL       RHF       INT       RHF       RKS       INT
 CPU TIMES  *        49.59      1.24     30.12      0.70      0.96     15.35
 REAL TIME  *        66.08 SEC
 DISK USED  *         2.13 GB      
 SF USED    *         0.09 MB      
 GA USED    *         0.20 MB       (max)       0.00 MB       (current)
 **********************************************************************************************************************************
 SETTING E_PD           =     -5044.36637900                                  
 SETTING E_H            =        -0.49982785                                  
 SETTING SCF            =     -5043.25869113  AU                              
 SETTING _CC_NORM_MAX   =         2.00000000                                  


 PROGRAM * CCSD (Restricted open-shell coupled cluster)     Authors: C. Hampel, H.-J. Werner, 1991, M. Deegan, P.J. Knowles, 1992


 Convergence thresholds:  THRVAR = 1.00D-08  THRDEN = 1.00D-06

 CCSD(T)     terms to be evaluated (factor= 1.000)


 Number of closed-shell orbitals:  23 (  11   5   5   2 )
 Number of active  orbitals:        1 (   1   0   0   0 )
 Number of external orbitals:     239 ( 104  54  54  27 )

 Memory could be reduced to 156.26 Mwords without degradation in triples

 Number of N-1 electron functions:              47
 Number of N-2 electron functions:            1081
 Number of singly external CSFs:              3603
 Number of doubly external CSFs:          12114663
 Total number of CSFs:                    12118266

 Molecular orbitals read from record     2102.2  Type=RHF/CANONICAL (state 1.1)

 Integral transformation finished. Total CPU:   8.30 sec, npass=  1  Memory used:  16.31 MW

 Starting RMP2 calculation

 Wavefunction is spin-projected

 ITER.      SQ.NORM     CORR.ENERGY   TOTAL ENERGY   ENERGY CHANGE        DEN1      VAR(S)    VAR(P)  DIIS     TIME
   1      1.16124150    -1.62552339 -5044.88421452    -1.62552339    -0.00128989  0.60D-05  0.47D-03  1  1    20.78
   2      1.16232506    -1.62687580 -5044.88556693    -0.00135241    -0.00000266  0.82D-07  0.16D-05  2  2    32.54
   3      1.16237779    -1.62691084 -5044.88560197    -0.00003504    -0.00000001  0.19D-08  0.61D-08  3  3    44.56
   4      1.16237918    -1.62691108 -5044.88560221    -0.00000024    -0.00000000  0.71D-10  0.24D-10  4  4    55.19

 Norm of t1 vector:      0.02191061      S-energy:    -0.00084426      T1 diagnostic:  0.00009789
 Norm of t2 vector:      0.40236687      P-energy:    -1.62606682
                                         Alpha-Beta:  -1.09263204
                                         Alpha-Alpha: -0.27676366
                                         Beta-Beta:   -0.25667111

 Spin contamination <S**2-Sz**2-Sz>     0.00000000
  Reference energy                  -5043.258691129606
  RHF-RMP2 correlation energy          -1.626911076861
 !RHF-RMP2 energy                   -5044.885602206467
 (NB above energy spin projected)

 Starting RCCSD calculation

 ITER.      SQ.NORM     CORR.ENERGY   TOTAL ENERGY   ENERGY CHANGE        DEN1      VAR(S)    VAR(P)  DIIS     TIME
   1      1.12672280    -1.50829227 -5044.76698340    -1.50829227    -0.03089857  0.33D-02  0.43D-02  0  0    82.80
   2      1.13941292    -1.53713253 -5044.79582366    -0.02884026    -0.00205224  0.27D-03  0.53D-03  1  1   115.22
   3      1.14042164    -1.53377582 -5044.79246695     0.00335670    -0.00024300  0.20D-03  0.35D-04  2  2   142.72
   4      1.14292765    -1.53473451 -5044.79342564    -0.00095869    -0.00005814  0.57D-04  0.87D-05  3  3   176.26
   5      1.14508335    -1.53528854 -5044.79397967    -0.00055403    -0.00000992  0.12D-04  0.10D-05  4  4   225.11
   6      1.14594292    -1.53534402 -5044.79403515    -0.00005548    -0.00000201  0.29D-05  0.17D-06  5  5   255.69
   7      1.14630782    -1.53536447 -5044.79405560    -0.00002045    -0.00000053  0.75D-06  0.45D-07  6  6   288.55
   8      1.14643637    -1.53536766 -5044.79405879    -0.00000319    -0.00000010  0.11D-06  0.15D-07  6  1   325.88
   9      1.14649171    -1.53537050 -5044.79406163    -0.00000284    -0.00000001  0.82D-08  0.25D-08  6  2   364.55
  10      1.14650262    -1.53537259 -5044.79406372    -0.00000209    -0.00000000  0.16D-08  0.30D-09  6  4   387.73
  11      1.14650224    -1.53537178 -5044.79406291     0.00000081    -0.00000000  0.22D-09  0.57D-10  6  3   412.56

 Norm of t1 vector:      0.10209326      S-energy:    -0.00088048      T1 diagnostic:  0.01023610
                                                                       D1 diagnostic:  0.05343873
 Norm of t2 vector:      0.36888915      P-energy:    -1.53449130
                                         Alpha-Beta:  -1.05856684
                                         Alpha-Alpha: -0.24664109
                                         Beta-Beta:   -0.22928336

 Spin contamination <S**2-Sz**2-Sz>     0.00000000

 Memory could be reduced to 172.83 Mwords without degradation in triples
 

  Correlated core orbitals:             1.1       2.1       3.1       4.1       5.1       6.1       7.1       8.1       9.1       1.2
                                        2.2       3.2       4.2       1.3       2.3       3.3       4.3       1.4
  Orbital energies:                  -899.5300 -134.4952 -120.3888  -25.6515  -20.8988  -13.3159  -13.3024   -3.9784   -2.5776 -120.3827
                                      -20.8767  -13.3164   -2.5151 -120.3827  -20.8767  -13.3164   -2.5151  -13.3024
 
  RCCSD core-core energy               -0.837522530194
  RCCSD core-valence energy            -0.318512387862
  RCCSD valence correlation energy     -0.379336860461
 

 RESULTS
 =======

  Reference energy                  -5043.258691129606
  RCCSD singles energy                 -0.000880479995
  RCCSD pair energy                    -1.534491298522
  RCCSD correlation energy             -1.535371778517
  Triples (T) contribution             -0.034266785220
  Total correlation energy             -1.569638563737
 
  RHF-RCCSD energy                  -5044.794062908123
  RHF-RCCSD[T] energy               -5044.829451197587
  RHF-RCCSD-T energy                -5044.828076749101
 !RHF-RCCSD(T) energy               -5044.828329693343

 Program statistics:

 Available memory in ccsd:               511995052
 Min. memory needed in ccsd:              33536188
 Max. memory used in ccsd:                49128406
 Max. memory used in cckext:              40408815 (11 integral passes)
 Max. memory used in cckint:              16314950 ( 1 integral passes)



 **********************************************************************************************************************************
 DATASETS  * FILE   NREC   LENGTH (MB)   RECORD NAMES
              1      22       21.38       500      610      700      900      950      970     1001      129      960     1700   
                                          VAR    BASINP    GEOM    SYMINP    ZMAT    AOBASIS   BASIS     P2S    ABASIS    OPER   
                                         1101     1401     1411     1412     1650     1100     1400     1410     1200     1210   
                                          SR      EKINR    POTR     PVPR    MOLCAS      S      EKIN      POT      H0       H01  
                                         1080     1600   
                                         AOSYM     SMH  

              2       8        9.03       700     1000      520     1800     2100     2101     1001     2102   
                                         GEOM     BASIS   MCVARS    GRID      RKS      RHF     BASIS     RHF  

 PROGRAMS   *        TOTAL  RCCSD(T)       RHF       INT       RHF       RKS       INT
 CPU TIMES  *       734.79    685.03      1.24     30.12      0.70      0.96     15.35
 REAL TIME  *      1284.45 SEC
 DISK USED  *        37.50 GB      
 SF USED    *         3.36 GB      
 GA USED    *         0.20 MB       (max)       0.00 MB       (current)
 **********************************************************************************************************************************
 SETTING CCSD           =     -5044.82832969  AU                              
 SETTING BE             =         0.03787716  AU                              
 Output type csv         
                                                                                                                                                                                                                                                                

         SCF,CCSD,BE
   -5043.258691,   -5044.828330,   0.03787716
                                                  

 RCCSD(T)/USERDEF energy=  -5044.828329693343

        RCCSD(T)        RHF-SCF         RHF-SCF         RKS-SCF 
  -5044.82832969  -5043.25869113  -5043.25811378  -5045.52557890
 **********************************************************************************************************************************
 Molpro calculation terminated
 Variable memory released
