<?xml version="1.0"?>
<molpro xmlns="http://www.molpro.net/schema/molpro-output"
  xmlns:xsd="http://www.w3.org/1999/XMLSchema"
  xmlns:cml="http://www.xml-cml.org/schema"
  xmlns:stm="http://www.xml-cml.org/schema"
  xmlns:xhtml="http://www.w3.org/1999/xhtml">
 <!--

 Nodes     nprocs
 nid02104    23
 Number of processes for MPI-2 version of Molpro:   nprocs(total)=   24   nprocs(compute)=   23   nprocs(helper)=    1

 Using customized tuning parameters: mindgm=7; mindgv=16; mindgc=1; mindgr=1; noblas=0; minvec=7
 default implementation of scratch files=sf

 --><job>
  <!--

 Variables initialized (889), CPU time= 0.02 sec
 Commands  initialized (702), CPU time= 0.01 sec, 572 directives.
 Default parameters read. Elapsed time= 0.22 sec

 Checking input...
 Passed
1


                                         ***  PROGRAM SYSTEM MOLPRO  ***
                                       Copyright, TTI GmbH Stuttgart, 2015
                                    Version 2015.1 linked Dec 29 2018 15:55:43


 **********************************************************************************************************************************
 LABEL *   Calculation for PdO groundstate
  64 bit mpp version                                                                     DATE: 29-Mar-21          TIME: 21:42:18
 **********************************************************************************************************************************

 SHA1:             19cd028119e0e09f93f0674bd8af7968d9b3eff6
 **********************************************************************************************************************************
  -->
  <!--

 THRESHOLDS:

 ZERO    =  1.00D-12  ONEINT  =  1.00D-12  TWOINT  =  1.00D-12  PREFAC  =  1.00D-14  LOCALI  =  1.00D-09  EORDER  =  1.00D-04
 ENERGY  =  0.00D+00  ETEST   =  0.00D+00  EDENS   =  0.00D+00  THRDEDEF=  1.00D-06  GRADIENT=  1.00D-02  STEP    =  1.00D-03
 ORBITAL =  1.00D-05  CIVEC   =  1.00D-05  COEFF   =  1.00D-04  PRINTCI =  5.00D-02  PUNCHCI =  9.90D+01  OPTGRAD =  3.00D-04
 OPTENERG=  1.00D-06  OPTSTEP =  3.00D-04  THRGRAD =  1.00D-10  COMPRESS=  1.00D-11  VARMIN  =  1.00D-07  VARMAX  =  1.00D-03
 THRDOUB =  0.00D+00  THRDIV  =  1.00D-05  THRRED  =  1.00D-07  THRPSP  =  1.00D+00  THRDC   =  1.00D-10  THRCS   =  1.00D-10
 THRNRM  =  1.00D-08  THREQ   =  0.00D+00  THRDE   =  1.00D+00  THRREF  =  1.00D-05  SPARFAC =  1.00D+00  THRDLP  =  1.00D-07
 THRDIA  =  1.00D-10  THRDLS  =  1.00D-07  THRGPS  =  0.00D+00  THRKEX  =  0.00D+00  THRDIS  =  2.00D-01  THRVAR  =  1.00D-10
 THRLOC  =  1.00D-06  THRGAP  =  1.00D-06  THRLOCT = -1.00D+00  THRGAPT = -1.00D+00  THRORB  =  1.00D-06  THRMLTP =  0.00D+00
 THRCPQCI=  1.00D-10  KEXTA   =  0.00D+00  THRCOARS=  0.00D+00  SYMTOL  =  1.00D-06  GRADTOL =  1.00D-06  THROVL  =  1.00D-08
 THRORTH =  1.00D-08  GRID    =  1.00D-06  GRIDMAX =  1.00D-03  DTMAX   =  0.00D+00  THROCCDE=  1.00D-01  THROCCDE=  1.00D-01



 THRESHOLDS:

 ZERO    =  1.00D-12  ONEINT  =  1.00D-12  TWOINT  =  1.00D-12  PREFAC  =  1.00D-14  LOCALI  =  1.00D-09  EORDER  =  1.00D-04
 ENERGY  =  0.00D+00  ETEST   =  0.00D+00  EDENS   =  0.00D+00  THRDEDEF=  1.00D-06  GRADIENT=  1.00D-02  STEP    =  1.00D-03
 ORBITAL =  1.00D-05  CIVEC   =  1.00D-05  COEFF   =  1.00D-04  PRINTCI =  5.00D-02  PUNCHCI =  9.90D+01  OPTGRAD =  3.00D-04
 OPTENERG=  1.00D-06  OPTSTEP =  3.00D-04  THRGRAD =  1.00D-10  COMPRESS=  1.00D-11  VARMIN  =  1.00D-07  VARMAX  =  1.00D-03
 THRDOUB =  0.00D+00  THRDIV  =  1.00D-05  THRRED  =  1.00D-07  THRPSP  =  1.00D+00  THRDC   =  1.00D-10  THRCS   =  1.00D-10
 THRNRM  =  1.00D-08  THREQ   =  0.00D+00  THRDE   =  1.00D+00  THRREF  =  1.00D-05  SPARFAC =  1.00D+00  THRDLP  =  1.00D-07
 THRDIA  =  1.00D-10  THRDLS  =  1.00D-07  THRGPS  =  0.00D+00  THRKEX  =  0.00D+00  THRDIS  =  2.00D-01  THRVAR  =  1.00D-10
 THRLOC  =  1.00D-06  THRGAP  =  1.00D-06  THRLOCT = -1.00D+00  THRGAPT = -1.00D+00  THRORB  =  1.00D-06  THRMLTP =  0.00D+00
 THRCPQCI=  1.00D-10  KEXTA   =  0.00D+00  THRCOARS=  0.00D+00  SYMTOL  =  1.00D-06  GRADTOL =  1.00D-06  THROVL  =  1.00D-12
 THRORTH =  1.00D-08  GRID    =  1.00D-06  GRIDMAX =  1.00D-03  DTMAX   =  0.00D+00  THROCCDE=  1.00D-01  THROCCDE=  1.00D-01


 SETTING DKROLL         =         1.00000000
 SETTING DKHO           =        10.00000000
 SETTING DKHP           =         4.00000000

 Variable memory set to  512000000 words,  buffer space   230000 words

 SETTING BASIS          =    USERDEF
 SETTING OE             =       -75.09181489
 SETTING PDE            =     -5044.36637900
 SETTING NE             =        54.00000000

Geometry recognized as XYZ

 SETTING A1             =        14.00000000
 SETTING B1             =         6.00000000
 SETTING B2             =         6.00000000
 SETTING A2             =         2.00000000
  --><jobstep command="RKS-SCF" commandset="SCFPRO">
   <!--


 Recomputing integrals since basis changed


 Using spherical harmonics



 PROGRAM * SEWARD (Integral evaluation for generally contracted gaussian basis sets)     Author: Roland Lindh, 1990

 Geometry written to block  1 of record 700


 Point group  C2v


   --><cml:molecule>
    <cml:symmetry pointGroup="C2v"/>
    <cml:atomArray>
     <cml:atom id="a1" elementType="Pd" x3="0.0" y3="0.0" z3="0.0"/>
     <cml:atom id="a2" elementType="O" x3="0.0" y3="0.0" z3="1.635"/>
    </cml:atomArray>
    <cml:bondArray>
     <cml:bond atomRefs2="a1 a2"/>
    </cml:bondArray>
   </cml:molecule><!--

 ATOMIC COORDINATES

 NR  ATOM    CHARGE       X              Y              Z

   1  PD     46.00    0.000000000    0.000000000    0.000000000
   2  O       8.00    0.000000000    0.000000000    3.089702214

 Bond lengths in Bohr (Angstrom)

 1-2  3.089702214
     ( 1.635000000)

 NUCLEAR CHARGE:                   54
 NUMBER OF PRIMITIVE AOS:         355
 NUMBER OF SYMMETRY AOS:          299
 NUMBER OF CONTRACTIONS:          182   (  73A1  +  43B1  +  43B2  +  23A2  )
 NUMBER OF CORE ORBITALS:          19   (  10A1  +   4B1  +   4B2  +   1A2  )
 NUMBER OF VALENCE ORBITALS:       10   (   5A1  +   2B1  +   2B2  +   1A2  )


 NUCLEAR REPULSION ENERGY  119.10532943

 One-electron integrals computed with SEWARD

 10nd-order Douglas-Kroll-Hess method activated. McWeeny DKH parametrization is used.

 Computing Douglas-Kroll / X2C integrals

 AO integral compression algorithm  1   Integral accuracy      1.0D-12

     165.675 MB (compressed) written to integral file ( 49.9%)

     Node minimum: 2.359 MB, node maximum: 12.321 MB


 NUMBER OF SORTED TWO-ELECTRON INTEGRALS:    1549775.     BUFFER LENGTH:  32768
 NUMBER OF SEGMENTS:   1  SEGMENT LENGTH:    1549775      RECORD LENGTH: 524288

 Memory used in sort:       2.11 MW

 SORT1 READ    41520926. AND WROTE     1013978. INTEGRALS IN      3 RECORDS. CPU TIME:     0.84 SEC, REAL TIME:     0.89 SEC
 SORT2 READ    23511430. AND WROTE    35715180. INTEGRALS IN    437 RECORDS. CPU TIME:     0.07 SEC, REAL TIME:     0.21 SEC

 Node minimum:     1548720.  Node maximum:     1570662. integrals

 OPERATOR DM      FOR CENTER  0  COORDINATES:    0.000000    0.000000    0.000000

 EXTRA SYMMETRY OF AOS IN SYMMETRY 1:   1 1 1 1 1 1 1 1 1 1   1 1 1 1 1 1 1 1 1 1   1 1 2 1 2 1 2 1 2 1   2 1 2 1 2 1 2 1 2 1
                                        2 1 2 1 2 1 3 2 1 3   2 1 3 2 1 1 1 1 1 1   1 1 1 1 2 1 2 1 2 1   2 1 2
 EXTRA SYMMETRY OF AOS IN SYMMETRY 2:   1 1 1 1 1 1 1 1 1 1   1 1 1 1 1 1 1 1 1 2   1 2 1 2 1 2 1 2 1 2   1 2 1 1 1 1 1 1 1 1
                                        2 1 2
 EXTRA SYMMETRY OF AOS IN SYMMETRY 3:   1 1 1 1 1 1 1 1 1 1   1 1 1 1 1 1 1 1 1 2   1 2 1 2 1 2 1 2 1 2   1 2 1 1 1 1 1 1 1 1
                                        2 1 2
 EXTRA SYMMETRY OF AOS IN SYMMETRY 4:   1 1 1 1 1 1 1 1 1 1   1 1 1 2 1 2 1 2 1 1   1 1 1

 Eigenvalues of metric

         1 0.885E-04 0.164E-03 0.259E-03 0.592E-03 0.153E-02 0.157E-02 0.330E-02 0.440E-02
         2 0.628E-03 0.154E-02 0.172E-02 0.668E-02 0.206E-01 0.319E-01 0.410E-01 0.489E-01
         3 0.628E-03 0.154E-02 0.172E-02 0.668E-02 0.206E-01 0.319E-01 0.410E-01 0.489E-01
         4 0.157E-02 0.223E-01 0.830E-01 0.958E-01 0.117E+00 0.148E+00 0.179E+00 0.297E+00


 **********************************************************************************************************************************
 DATASETS  * FILE   NREC   LENGTH (MB)   RECORD NAMES
              1      22       20.91       500      610      700      900      950      970     1000      129      960     1700
                                          VAR    BASINP    GEOM    SYMINP    ZMAT    AOBASIS   BASIS     P2S    ABASIS    OPER
                                         1101     1401     1411     1412     1650     1100     1400     1410     1200     1210
                                          SR      EKINR    POTR     PVPR    MOLCAS      S      EKIN      POT      H0       H01
                                         1080     1600
                                         AOSYM     SMH

 PROGRAMS   *        TOTAL       INT
 CPU TIMES  *         7.45      7.10
 REAL TIME  *        10.54 SEC
 DISK USED  *       434.66 MB
 GA USED    *         0.00 MB       (max)       0.00 MB       (current)
 **********************************************************************************************************************************

 Density functional group PBE0=PBEX+PBEC
 Functional: PBEX(Automatically generated (new) PBEX)                          Gradient terms: 1
 Functional: PBEC(Automatically generated (new) PBEC)                          Gradient terms: 1
 Use grid at  1800.2


 Exact exchange will be calculated, factor:  0.2500

 Functional: PBEX                      Factor:  0.7500
 Functional: PBEC                      Factor:  1.0000

 Generated new metagrid on record  1800.2 with target accuracy 1.0D-06 and 5149 points in CPU time    0.1
 Computed new grid on record 1800.1 in CPU time    0.1
  152282 words reserved for DFT integration

 PROGRAM * RKS-SCF (Restricted open shell Kohn-Sham)     Authors: W. Meyer, H.-J. Werner, P.J. Knowles, 1993

 NUMBER OF ELECTRONS:      28+   26-    SPACE SYMMETRY=2    SPIN SYMMETRY: Triplet
 CONVERGENCE THRESHOLDS:    1.00E-05 (Density)    1.08E-06 (Energy)
 MAX. NUMBER OF ITERATIONS:       60
 INTERPOLATION TYPE:            DIIS
 INTERPOLATION STEPS:              2 (START)      1 (STEP)
 LEVEL SHIFTS:                 -0.60 (CLOSED) -0.30 (OPEN)

 Number of closed-shell orbitals:   26 (  13   5   6   2 )
 Number of open-shell orbitals:      2 (   1   1   0   0 )


 Use fine grid record 1800.2 for energy threshold  1.0D-06
 Orbital guess generated from atomic densities. Full valence occupancy:   15   6   6   2

 Molecular orbital dump at record        2100.2

 ITERATION    DDIFF          GRAD             ENERGY        2-EL.EN.            DIPOLE MOMENTS         DIIS   ORB.
    1      0.000D+00      0.000D+00     -5100.48844609   3811.995623    0.00000    0.00000   -8.77237    0    start
    2      0.000D+00      0.797D-01     -5096.71706730   4820.684423    0.00000    0.00000   14.09083    1    diag,B
    3      0.788D+00      0.190D+00     -5114.46718040   4610.514066    0.00000    0.00000    3.29746    2    diag,B
    4      0.491D-01      0.953D-01     -5117.28584169   4523.513965    0.00000    0.00000    2.98578    3    diag,B
    5      0.163D-01      0.613D-01     -5119.47866053   4444.865972    0.00000    0.00000   -0.38869    4    diag,B
    6      0.203D-01      0.302D-01     -5120.08699865   4383.058762    0.00000    0.00000   -0.97028    5    diag,B
    7      0.135D-01      0.944D-02     -5120.19285268   4352.268598    0.00000    0.00000   -1.55844    6    fixocc
    8      0.730D-02      0.117D-02     -5120.19966964   4347.760831    0.00000    0.00000   -1.62303    7    diag,B
    9      0.283D-02      0.853D-03     -5120.20212218   4347.318578    0.00000    0.00000   -1.55592    8    diag,B
   10      0.147D-02      0.497D-03     -5120.20332985   4347.505325    0.00000    0.00000   -1.48671    9    orth
   11      0.941D-03      0.178D-03     -5120.20370255   4347.342315    0.00000    0.00000   -1.46717    9    diag,B
   12      0.505D-03      0.991D-04     -5120.20390049   4347.168615    0.00000    0.00000   -1.43955    9    diag,B
   13      0.500D-03      0.392D-04     -5120.20394236   4347.090830    0.00000    0.00000   -1.42916    9    diag,B
   14      0.230D-03      0.201D-04     -5120.20395092   4347.060464    0.00000    0.00000   -1.42533    9    diag,B
   15      0.101D-03      0.109D-04     -5120.20395324   4347.058565    0.00000    0.00000   -1.42356    9    diag,B
   16      0.540D-04      0.506D-05     -5120.20395378   4347.052296    0.00000    0.00000   -1.42248    9    diag,B
   17      0.328D-04      0.202D-05     -5120.20395384   4347.051409    0.00000    0.00000   -1.42236    9    diag,B
   18      0.129D-04      0.837D-06     -5120.20395385   4347.051221    0.00000    0.00000   -1.42227    9    diag,B
   19      0.341D-05      0.380D-06     -5120.20395385   4347.051438    0.00000    0.00000   -1.42230    0    orth

 Final alpha occupancy:  14   6   6   2
 Final beta  occupancy:  13   5   6   2

 !RKS STATE 1.2 Energy              -5120.203953847167
   --><property name="Energy" method="RKS" principal="true" stateSymmetry="2" stateNumber="1"
     value="-5120.20395384717"/><!--
 Nuclear energy                       119.10532943
 One-electron energy                -7297.05022577
 Two-electron energy                 2173.52571875
 Density functional                  -115.78477627     PBEX=-150.80908818 PBEC=  -2.67796013
 Virial quotient                       -0.88768279
 !RKS STATE 1.2 Dipole moment           0.00000000     0.00000000    -1.42230001
 Dipole moment /Debye                   0.00000000     0.00000000    -3.61488927
   --><property name="Dipole moment" method="RKS" principal="true" stateSymmetry="2"
     stateNumber="1" value="0.0 0.0 -1.42230001466108"/><!--

 Orbital energies:

         1.1          2.1          3.1          4.1          5.1          6.1          7.1          8.1          9.1         10.1
   -889.991286  -130.869530  -117.337947   -24.064350   -19.588783   -19.235320   -12.441138   -12.426316    -3.480152    -2.204552

        11.1         12.1         13.1         14.1         15.1         16.1
     -0.943893    -0.430566    -0.318657    -0.245926    -0.083643     0.015904

         1.2          2.2          3.2          4.2          5.2          6.2          7.2          8.2
   -117.332146   -19.575293   -12.439509    -2.168704    -0.408068    -0.284445    -0.006814     0.040316

         1.3          2.3          3.3          4.3          5.3          6.3          7.3          8.3
   -117.328945   -19.567624   -12.434747    -2.159285    -0.413866    -0.237358    -0.003414     0.042049

         1.4          2.4          3.4          4.4
    -12.426856    -0.318696     0.068481     0.250977

 HOMO      6.3    -0.237358 =      -6.4588eV
 LUMO     15.1    -0.083643 =      -2.2760eV
 LUMO-HOMO         0.153714 =       4.1828eV


 **********************************************************************************************************************************
 DATASETS  * FILE   NREC   LENGTH (MB)   RECORD NAMES
              1      23       20.91       500      610      700      900      950      970     1000      129      960     1700
                                          VAR    BASINP    GEOM    SYMINP    ZMAT    AOBASIS   BASIS     P2S    ABASIS    OPER
                                         1101     1401     1411     1412     1650     1100     1400     1410     1200     1210
                                          SR      EKINR    POTR     PVPR    MOLCAS      S      EKIN      POT      H0       H01
                                         1080     1600     1800
                                         AOSYM     SMH     GRID

              2       5        3.08       700     1000      520     1800     2100
                                         GEOM     BASIS   MCVARS    GRID      RKS

 PROGRAMS   *        TOTAL       RKS       INT
 CPU TIMES  *         8.35      0.89      7.10
 REAL TIME  *        11.54 SEC
 DISK USED  *         1.02 GB
 SF USED    *         0.04 MB
 GA USED    *         0.23 MB       (max)       0.23 MB       (current)
 **********************************************************************************************************************************
   -->
   <time start="21:42:20" end="21:42:29" cpu="8.35" system="2.19" real="11.54"/>
   <storage units="megabyte" memory="4097.84" sf="0.04" df="585.66" eaf="434.66" ga="0.23"/>
  </jobstep><!--
  --><jobstep command="RHF-SCF" commandset="SCFPRO">
   <!--


 PROGRAM * RHF-SCF (OPEN SHELL)       Authors: W. Meyer, H.-J. Werner


 NUMBER OF ELECTRONS:      28+   26-    SPACE SYMMETRY=2    SPIN SYMMETRY: Triplet
 CONVERGENCE THRESHOLDS:    1.00E-05 (Density)    1.08E-07 (Energy)
 MAX. NUMBER OF ITERATIONS:       60
 INTERPOLATION TYPE:            DIIS
 INTERPOLATION STEPS:              2 (START)      1 (STEP)
 LEVEL SHIFTS:                 -0.60 (CLOSED) -0.30 (OPEN)

 Number of closed-shell orbitals:   26 (  13   5   6   2 )
 Number of open-shell orbitals:      2 (   1   1   0   0 )


 Molecular orbitals read from record     2100.2  Type=RKS/CANONICAL (state 1.2)

 Molecular orbital dump at record        2101.2

 ITERATION    DDIFF          GRAD             ENERGY        2-EL.EN.            DIPOLE MOMENTS         DIIS   ORB.
    1      0.000D+00      0.000D+00     -5117.62891353   4120.631966    0.00000    0.00000   -1.42230    0    start
    2      0.000D+00      0.117D-01     -5117.65107928   4120.799570    0.00000    0.00000   -1.57718    1    diag,B
    3      0.759D-02      0.126D-02     -5117.65567775   4122.121902    0.00000    0.00000   -1.63338    2    diag,B
    4      0.124D-02      0.678D-03     -5117.65924627   4122.216918    0.00000    0.00000   -1.66536    3    diag,B
    5      0.948D-03      0.531D-03     -5117.66261979   4123.039733    0.00000    0.00000   -1.66677    4    diag,B
    6      0.970D-03      0.510D-03     -5117.66553652   4123.210835    0.00000    0.00000   -1.66990    5    diag,B
    7      0.896D-03      0.437D-03     -5117.67157017   4123.645434    0.00000    0.00000   -1.67244    6    diag,B
    8      0.268D-02      0.241D-03     -5117.67118410   4124.190391    0.00000    0.00000   -1.63342    7    orth
    9      0.598D-03      0.308D-03     -5117.67214439   4124.004925    0.00000    0.00000   -1.64707    8    diag,B
   10      0.102D-02      0.625D-04     -5117.67218391   4123.934444    0.00000    0.00000   -1.65154    9    diag,B
   11      0.216D-03      0.446D-04     -5117.67219409   4123.967488    0.00000    0.00000   -1.65145    9    diag,B
   12      0.970D-04      0.197D-04     -5117.67220016   4123.944663    0.00000    0.00000   -1.65379    9    diag,B
   13      0.846D-04      0.125D-04     -5117.67220212   4123.949521    0.00000    0.00000   -1.65388    9    diag,B
   14      0.322D-04      0.737D-05     -5117.67220336   4123.952956    0.00000    0.00000   -1.65398    9    diag,B
   15      0.246D-04      0.613D-05     -5117.67220426   4123.949567    0.00000    0.00000   -1.65454    9    diag,B
   16      0.259D-04      0.434D-05     -5117.67220490   4123.955225    0.00000    0.00000   -1.65448    9    diag,B
   17      0.222D-04      0.257D-05     -5117.67220516   4123.957411    0.00000    0.00000   -1.65452    9    diag,B
   18      0.152D-04      0.158D-05     -5117.67220525   4123.958415    0.00000    0.00000   -1.65440    9    orth
   19      0.116D-04      0.839D-06     -5117.67220527   4123.958565    0.00000    0.00000   -1.65432    9    diag,B
   20      0.384D-05      0.515D-06     -5117.67220527   4123.958451    0.00000    0.00000   -1.65431    0    orth

 Final alpha occupancy:  14   6   6   2
 Final beta  occupancy:  13   5   6   2

 !RHF STATE 1.2 Energy              -5117.672205267174
   --><property name="Energy" method="RHF" principal="true" stateSymmetry="2" stateNumber="1"
     value="-5117.67220526717"/><!--
 Nuclear energy                       119.10532943
 One-electron energy                -7298.75676043
 Two-electron energy                 2061.97922573
 Virial quotient                       -0.88696539
 !RHF STATE 1.2 Dipole moment           0.00000000     0.00000000    -1.65430908
 Dipole moment /Debye                   0.00000000     0.00000000    -4.20455887
   --><property name="Dipole moment" method="RHF" principal="true" stateSymmetry="2"
     stateNumber="1" value="0.0 0.0 -1.65430907827483"/><!--

 Orbital energies:

         1.1          2.1          3.1          4.1          5.1          6.1          7.1          8.1          9.1         10.1
   -899.576027  -134.537412  -120.430616   -25.692180   -20.937168   -20.554506   -13.348250   -13.345138    -4.000313    -2.570126

        11.1         12.1         13.1         14.1         15.1         16.1
     -1.211912    -0.548881    -0.451539    -0.344094     0.000956     0.034020

         1.2          2.2          3.2          4.2          5.2          6.2          7.2          8.2
   -120.426644   -20.921348   -13.357487    -2.545778    -0.515219    -0.510032     0.023826     0.081048

         1.3          2.3          3.3          4.3          5.3          6.3          7.3          8.3
   -120.426036   -20.919403   -13.358209    -2.544967    -0.579054    -0.374725     0.024916     0.083279

         1.4          2.4          3.4          4.4
    -13.347410    -0.451715     0.097229     0.326806

 HOMO     14.1    -0.344094 =      -9.3633eV
 LUMO     15.1     0.000956 =       0.0260eV
 LUMO-HOMO         0.345050 =       9.3893eV


 **********************************************************************************************************************************
 DATASETS  * FILE   NREC   LENGTH (MB)   RECORD NAMES
              1      23       20.91       500      610      700      900      950      970     1000      129      960     1700
                                          VAR    BASINP    GEOM    SYMINP    ZMAT    AOBASIS   BASIS     P2S    ABASIS    OPER
                                         1101     1401     1411     1412     1650     1100     1400     1410     1200     1210
                                          SR      EKINR    POTR     PVPR    MOLCAS      S      EKIN      POT      H0       H01
                                         1080     1600     1800
                                         AOSYM     SMH     GRID

              2       6        5.96       700     1000      520     1800     2100     2101
                                         GEOM     BASIS   MCVARS    GRID      RKS      RHF

 PROGRAMS   *        TOTAL       RHF       RKS       INT
 CPU TIMES  *         8.75      0.40      0.89      7.10
 REAL TIME  *        12.05 SEC
 DISK USED  *         1.09 GB
 SF USED    *         0.04 MB
 GA USED    *         0.23 MB       (max)       0.23 MB       (current)
 **********************************************************************************************************************************
   -->
   <time start="21:42:29" end="21:42:30" cpu="0.4" system="0.08" real="0.51"/>
   <storage units="megabyte" memory="4097.84" sf="0.04" df="651.96" eaf="434.66" ga="0.23"/>
  </jobstep><!--
 SETTING BASIS          =    USERDEF
  --><jobstep command="RHF-SCF" commandset="SCFPRO">
   <!--


 Recomputing integrals since basis changed


 Using spherical harmonics



 PROGRAM * SEWARD (Integral evaluation for generally contracted gaussian basis sets)     Author: Roland Lindh, 1990

 Geometry written to block  1 of record 700


 Point group  C2v



 ATOMIC COORDINATES

 NR  ATOM    CHARGE       X              Y              Z

   1  PD     46.00    0.000000000    0.000000000    0.000000000
   2  O       8.00    0.000000000    0.000000000    3.089702214

 Bond lengths in Bohr (Angstrom)

 1-2  3.089702214
     ( 1.635000000)

 NUCLEAR CHARGE:                   54
 NUMBER OF PRIMITIVE AOS:         642
 NUMBER OF SYMMETRY AOS:          471
 NUMBER OF CONTRACTIONS:          471   ( 186A1  + 112B1  + 112B2  +  61A2  )
 NUMBER OF CORE ORBITALS:          19   (  10A1  +   4B1  +   4B2  +   1A2  )
 NUMBER OF VALENCE ORBITALS:       10   (   5A1  +   2B1  +   2B2  +   1A2  )


 NUCLEAR REPULSION ENERGY  119.10532943

 One-electron integrals computed with SEWARD

 10nd-order Douglas-Kroll-Hess method activated. McWeeny DKH parametrization is used.

 Computing Douglas-Kroll / X2C integrals

 AO integral compression algorithm  1   Integral accuracy      1.0D-12

     3741.843 MB (compressed) written to integral file ( 26.6%)

     Node minimum: 122.159 MB, node maximum: 235.143 MB


 NUMBER OF SORTED TWO-ELECTRON INTEGRALS:   68264235.     BUFFER LENGTH:  32768
 NUMBER OF SEGMENTS:   3  SEGMENT LENGTH:   31977807      RECORD LENGTH: 524288

 Memory used in sort:      32.53 MW

 SORT1 READ  1760380706. AND WROTE    29417610. INTEGRALS IN     85 RECORDS. CPU TIME:    44.41 SEC, REAL TIME:    53.99 SEC
 SORT2 READ   673066109. AND WROTE  1570932477. INTEGRALS IN  12489 RECORDS. CPU TIME:     3.85 SEC, REAL TIME:     6.18 SEC

 Node minimum:    68250355.  Node maximum:    68491598. integrals

 OPERATOR DM      FOR CENTER  0  COORDINATES:    0.000000    0.000000    0.000000

 EXTRA SYMMETRY OF AOS IN SYMMETRY 1:   1 1 1 1 1 1 1 1 1 1   1 1 1 1 1 1 1 1 1 1   1 1 1 1 1 1 1 1 1 1   1 1 1 1 1 1 1 1 1 1
                                        1 1 1 1 1 1 1 1 1 1   1 1 1 2 1 2 1 2 1 2   1 2 1 2 1 2 1 2 1 2   1 2 1 2 1 2 1 2 1 2
                                        1 2 1 2 1 2 1 2 1 2   1 2 1 2 1 2 1 3 2 1   3 2 1 3 2 1 3 2 2 3   1 2 3 1 2 3 1 4 3 2
                                        1 4 3 2 1 1 1 1 1 1   1 1 1 1 1 1 1 1 1 1   1 1 1 1 1 1 1 1 1 1   1 1 1 1 2 1 2 1 2 1
                                        2 1 2 1 2 1 2 1 2 1   2 1 3 2 1 3 2 1 3 2   2 3 1 2 3 1
 EXTRA SYMMETRY OF AOS IN SYMMETRY 2:   1 1 1 1 1 1 1 1 1 1   1 1 1 1 1 1 1 1 1 1   1 1 1 1 1 1 1 1 1 1   1 1 1 1 1 1 1 1 1 1
                                        1 2 1 2 1 2 1 2 1 2   1 2 1 2 1 2 1 2 1 2   3 1 2 3 1 2 3 3 2 1   3 2 1 1 1 1 1 1 1 1
                                        1 1 1 1 1 1 1 1 1 1   1 1 1 2 1 2 1 2 1 2   1 2 1 2 1 2 1 2 3 1   2 3
 EXTRA SYMMETRY OF AOS IN SYMMETRY 3:   1 1 1 1 1 1 1 1 1 1   1 1 1 1 1 1 1 1 1 1   1 1 1 1 1 1 1 1 1 1   1 1 1 1 1 1 1 1 1 1
                                        1 2 1 2 1 2 1 2 1 2   1 2 1 2 1 2 1 2 1 2   3 1 2 3 1 2 3 3 2 1   3 2 1 1 1 1 1 1 1 1
                                        1 1 1 1 1 1 1 1 1 1   1 1 1 2 1 2 1 2 1 2   1 2 1 2 1 2 1 2 3 1   2 3
 EXTRA SYMMETRY OF AOS IN SYMMETRY 4:   1 1 1 1 1 1 1 1 1 1   1 1 1 1 1 1 1 1 1 1   1 1 1 2 1 2 1 2 1 2   2 1 2 1 2 1 1 3 2 1
                                        3 2 1 1 1 1 1 1 1 1   1 1 2 1 2 1 2 2 1 2   1

 Eigenvalues of metric

         1 0.245E-07 0.814E-07 0.510E-06 0.799E-06 0.805E-06 0.163E-05 0.502E-05 0.682E-05
         2 0.283E-07 0.741E-06 0.952E-06 0.860E-05 0.163E-04 0.569E-04 0.208E-03 0.305E-03
         3 0.283E-07 0.741E-06 0.952E-06 0.860E-05 0.163E-04 0.569E-04 0.208E-03 0.305E-03
         4 0.944E-05 0.302E-03 0.299E-02 0.543E-02 0.105E-01 0.212E-01 0.262E-01 0.327E-01


 **********************************************************************************************************************************
 DATASETS  * FILE   NREC   LENGTH (MB)   RECORD NAMES
              1      22       24.20       500      610      700      900      950      970     1001      129      960     1700
                                          VAR    BASINP    GEOM    SYMINP    ZMAT    AOBASIS   BASIS     P2S    ABASIS    OPER
                                         1101     1401     1411     1412     1650     1100     1400     1410     1200     1210
                                          SR      EKINR    POTR     PVPR    MOLCAS      S      EKIN      POT      H0       H01
                                         1080     1600
                                         AOSYM     SMH

              2       7        6.16       700     1000      520     1800     2100     2101     1001
                                         GEOM     BASIS   MCVARS    GRID      RKS      RHF     BASIS

 PROGRAMS   *        TOTAL       INT       RHF       RKS       INT
 CPU TIMES  *       117.51    104.51      0.40      0.89      7.10
 REAL TIME  *       133.43 SEC
 DISK USED  *        12.46 GB
 SF USED    *         0.04 MB
 GA USED    *         0.23 MB       (max)       0.00 MB       (current)
 **********************************************************************************************************************************


 PROGRAM * RHF-SCF (OPEN SHELL)       Authors: W. Meyer, H.-J. Werner


 NUMBER OF ELECTRONS:      28+   26-    SPACE SYMMETRY=2    SPIN SYMMETRY: Triplet
 CONVERGENCE THRESHOLDS:    1.00E-05 (Density)    1.08E-07 (Energy)
 MAX. NUMBER OF ITERATIONS:       60
 INTERPOLATION TYPE:            DIIS
 INTERPOLATION STEPS:              2 (START)      1 (STEP)
 LEVEL SHIFTS:                 -0.60 (CLOSED) -0.30 (OPEN)

 Number of closed-shell orbitals:   26 (  13   5   6   2 )
 Number of open-shell orbitals:      2 (   1   1   0   0 )


 Molecular orbitals read from record     2101.2  Type=RHF/CANONICAL (state 1.2)

 Present basis size:     186 112 112  61
 Previous basis size:     73  43  43  23
 Previous occupation:     14   6   6   2
 Previous closed-shells:  13   5   6   2
 Previous core-orbitals:  10   4   4   1
 Present occupation:      14   6   6   2
 Present closed-shells:   13   5   6   2
 Present core-orbitals:   10   4   4   1
 Wavefunction symmetry:    2   Triplet

 Orbital overlap <old|new>:  < 1.1| 1.1> = 1.000000   < 2.1| 2.1> = 1.000000   < 3.1| 3.1> = 1.000000   < 4.1| 4.1> = 1.000000
                             < 5.1| 5.1> = 1.000000   < 6.1| 6.1> = 0.999164   < 7.1| 7.1> = 1.000000   < 8.1| 8.1> = 1.000000
                             < 9.1| 9.1> = 1.000000   <10.1|10.1> = 1.000000   < 1.2| 1.2> = 1.000000   < 2.2| 2.2> = 1.000000
                             < 3.2| 3.2> = 1.000000   < 4.2| 4.2> = 1.000000   < 1.3| 1.3> = 1.000000   < 2.3| 2.3> = 1.000000
                             < 3.3| 3.3> = 1.000000   < 4.3| 4.3> = 1.000000   < 1.4| 1.4> = 1.000000   <11.1|11.1> = 0.999957
                             <12.1|12.1> = 0.999995   <13.1|13.1> = 1.000000   < 5.2| 5.2> = 0.999999   < 5.3| 5.3> = 0.999997
                             < 6.3| 6.3> = 0.999998   < 2.4| 2.4> = 1.000000   <14.1|14.1> = 0.999999   < 6.2| 6.2> = 0.999996

 Molecular orbital dump at record        2102.2

 ITERATION    DDIFF          GRAD             ENERGY        2-EL.EN.            DIPOLE MOMENTS         DIIS   ORB.
    1      0.000D+00      0.000D+00     -5115.62663048   4123.896736    0.00000    0.00000   -1.65428    0    start
    2      0.000D+00      0.550D-01     -5115.71543713   4123.364560    0.00000    0.00000   -1.65520    1    diag,B
    3      0.121D+02      0.884D-03     -5115.71607518   4123.258908    0.00000    0.00000   -1.68561    2    diag,B
    4      0.499D+00      0.175D-03     -5115.71617233   4123.491215    0.00000    0.00000   -1.68154    3    diag,B
    5      0.334D-01      0.696D-04     -5115.71619466   4123.326716    0.00000    0.00000   -1.68871    4    diag,B
    6      0.510D-02      0.383D-04     -5115.71620241   4123.407156    0.00000    0.00000   -1.69060    5    diag,B
    7      0.348D-02      0.128D-04     -5115.71620432   4123.405859    0.00000    0.00000   -1.69188    6    diag,B
    8      0.204D-02      0.624D-05     -5115.71620540   4123.411587    0.00000    0.00000   -1.69350    7    orth
    9      0.160D-02      0.358D-05     -5115.71620594   4123.416972    0.00000    0.00000   -1.69458    8    diag,B
   10      0.464D-03      0.214D-05     -5115.71620620   4123.422261    0.00000    0.00000   -1.69533    9    diag,B
   11      0.510D-03      0.142D-05     -5115.71620634   4123.425517    0.00000    0.00000   -1.69579    9    diag,B
   12      0.517D-03      0.841D-06     -5115.71620642   4123.429233    0.00000    0.00000   -1.69608    9    diag,B
   13      0.252D-03      0.485D-06     -5115.71620643   4123.430518    0.00000    0.00000   -1.69624    9    diag,B
   14      0.236D-03      0.279D-06     -5115.71620643   4123.431500    0.00000    0.00000   -1.69631    9    diag,B
   15      0.184D-03      0.163D-06     -5115.71620643   4123.432038    0.00000    0.00000   -1.69637    9    diag,B
   16      0.162D-03      0.732D-07     -5115.71620644   4123.432175    0.00000    0.00000   -1.69639    9    diag,B
   17      0.163D-03      0.376D-07     -5115.71620643   4123.432263    0.00000    0.00000   -1.69640    9    diag,B
   18      0.561D-04      0.249D-07     -5115.71620644   4123.432277    0.00000    0.00000   -1.69640    9    orth
   19      0.599D-04      0.198D-07     -5115.71620644   4123.432302    0.00000    0.00000   -1.69641    9    diag,B
   20      0.528D-04      0.167D-07     -5115.71620643   4123.432303    0.00000    0.00000   -1.69641    9    diag,B
   21      0.450D-04      0.142D-07     -5115.71620644   4123.432306    0.00000    0.00000   -1.69641    9    diag,B
   22      0.295D-04      0.142D-07     -5115.71620642   4123.432308    0.00000    0.00000   -1.69641    9    diag,B
   23      0.288D-04      0.198D-07     -5115.71620644   4123.432311    0.00000    0.00000   -1.69641    9    diag,B
   24      0.493D-04      0.178D-07     -5115.71620643   4123.432305    0.00000    0.00000   -1.69641    9    diag,B
   25      0.949D-05      0.110D-07     -5115.71620643   4123.432307    0.00000    0.00000   -1.69641    0    orth

 Final alpha occupancy:  14   6   6   2
 Final beta  occupancy:  13   5   6   2

 !RHF STATE 1.2 Energy              -5115.716206426750
   --><property name="Energy" method="RHF" principal="true" stateSymmetry="2" stateNumber="1"
     value="-5115.71620642675"/><!--
 Nuclear energy                       119.10532943
 One-electron energy                -7296.53768915
 Two-electron energy                 2061.71615329
 Virial quotient                       -0.88726183
 !RHF STATE 1.2 Dipole moment           0.00000000     0.00000000    -1.69640708
 Dipole moment /Debye                   0.00000000     0.00000000    -4.31155431
   --><property name="Dipole moment" method="RHF" principal="true" stateSymmetry="2"
     stateNumber="1" value="0.0 0.0 -1.69640708077666"/><!--

 Orbital energies:

         1.1          2.1          3.1          4.1          5.1          6.1          7.1          8.1          9.1         10.1
   -899.570753  -134.538312  -120.430893   -25.693494   -20.938269   -19.723953   -13.349648   -13.346407    -4.001539    -2.570906

        11.1         12.1         13.1         14.1         15.1         16.1
     -1.164406    -0.552150    -0.452782    -0.347244     0.000349     0.031437

         1.2          2.2          3.2          4.2          5.2          6.2          7.2          8.2
   -120.427018   -20.922614   -13.358737    -2.547025    -0.516671    -0.515590     0.023312     0.079990

         1.3          2.3          3.3          4.3          5.3          6.3          7.3          8.3
   -120.426427   -20.920695   -13.359500    -2.546250    -0.582499    -0.378476     0.024333     0.081936

         1.4          2.4          3.4          4.4
    -13.348892    -0.452956     0.096193     0.317945

 HOMO     14.1    -0.347244 =      -9.4490eV
 LUMO     15.1     0.000349 =       0.0095eV
 LUMO-HOMO         0.347593 =       9.4585eV


 **********************************************************************************************************************************
 DATASETS  * FILE   NREC   LENGTH (MB)   RECORD NAMES
              1      22       24.20       500      610      700      900      950      970     1001      129      960     1700
                                          VAR    BASINP    GEOM    SYMINP    ZMAT    AOBASIS   BASIS     P2S    ABASIS    OPER
                                         1101     1401     1411     1412     1650     1100     1400     1410     1200     1210
                                          SR      EKINR    POTR     PVPR    MOLCAS      S      EKIN      POT      H0       H01
                                         1080     1600
                                         AOSYM     SMH

              2       8       10.45       700     1000      520     1800     2100     2101     1001     2102
                                         GEOM     BASIS   MCVARS    GRID      RKS      RHF     BASIS     RHF

 PROGRAMS   *        TOTAL       RHF       INT       RHF       RKS       INT
 CPU TIMES  *       129.01     11.49    104.51      0.40      0.89      7.10
 REAL TIME  *       145.95 SEC
 DISK USED  *        12.82 GB
 SF USED    *         0.26 MB
 GA USED    *         0.23 MB       (max)       0.00 MB       (current)
 **********************************************************************************************************************************
   -->
   <time start="21:42:30" end="21:44:43" cpu="120.26" system="11.44" real="133.9"/>
   <storage units="megabyte" memory="4097.84" sf="0.26" df="1011.05" eaf="11809.87"
     ga="0.0"/>
  </jobstep><!--
 SETTING SCF            =     -5115.71620643  AU
 SETTING _CC_NORM_MAX   =         2.00000000
  --><jobstep command="RCCSD(T)" commandset="CCSD">
   <!--


 PROGRAM * CCSD (Restricted open-shell coupled cluster)     Authors: C. Hampel, H.-J. Werner, 1991, M. Deegan, P.J. Knowles, 1992


 Convergence thresholds:  THRVAR = 1.00D-08  THRDEN = 1.08D-06

 CCSD(T)     terms to be evaluated (factor= 1.000)


 Number of closed-shell orbitals:  26 (  13   5   6   2 )
 Number of active  orbitals:        2 (   1   1   0   0 )
 Number of external orbitals:     443 ( 172 106 106  59 )

 For full I/O caching in triples, increase memory by 456.44 Mwords to 968.72 Mwords.

 Number of N-1 electron functions:              54
 Number of N-2 electron functions:            1431
 Number of singly external CSFs:              7356
 Number of doubly external CSFs:          54592887
 Total number of CSFs:                    54600243

 Molecular orbitals read from record     2102.2  Type=RHF/CANONICAL (state 1.2)

 Integral transformation finished. Total CPU:  69.06 sec, npass=  1  Memory used: 103.89 MW

 Starting RMP2 calculation

 Wavefunction is spin-projected

 ITER.      SQ.NORM     CORR.ENERGY   TOTAL ENERGY   ENERGY CHANGE        DEN1      VAR(S)    VAR(P)  DIIS     TIME
   1      1.21548552    -2.06550955 -5117.78171598    -2.06550955    -0.00184375  0.29D-04  0.66D-03  1  1   111.07
   2      1.21716901    -2.06746529 -5117.78367173    -0.00195574    -0.00000894  0.92D-06  0.46D-05  2  2   143.44
   3      1.21728464    -2.06753681 -5117.78374324    -0.00007152    -0.00000009  0.32D-07  0.39D-07  3  3   190.53
   4      1.21728999    -2.06753821 -5117.78374464    -0.00000140    -0.00000000  0.72D-09  0.56D-09  4  4   231.03
   5      1.21729003    -2.06753810 -5117.78374454     0.00000011    -0.00000000  0.16D-10  0.71D-11  5  5   297.46

 Norm of t1 vector:      0.04534015      S-energy:    -0.00521680      T1 diagnostic:  0.00057670
 Norm of t2 vector:      0.46393351      P-energy:    -2.06232131
                                         Alpha-Beta:  -1.40919112
                                         Alpha-Alpha: -0.34557282
                                         Beta-Beta:   -0.30755736

 Spin contamination <S**2-Sz**2-Sz>     0.00000000
  Reference energy                  -5115.716206430812
   --><property name="energy" method="Reference" stateSymmetry="1" stateNumber="1"
     value="-5115.71620643081"/><!--
  RHF-RMP2 correlation energy          -2.067538104291
   --><property name="energy" method="RHF-RMP2 correlation" stateSymmetry="1" stateNumber="1"
     value="-2.06753810429101"/><!--
 !RHF-RMP2 energy                   -5117.783744535103
   --><property name="energy" method="RHF-RMP2" principal="true" stateSymmetry="2"
     stateNumber="1" value="-5117.7837445351"/><!--
 (NB above energy spin projected)

 Starting RCCSD calculation

 ITER.      SQ.NORM     CORR.ENERGY   TOTAL ENERGY   ENERGY CHANGE        DEN1      VAR(S)    VAR(P)  DIIS     TIME
   1      1.18116027    -1.93015220 -5117.64635863    -1.93015220    -0.04602701  0.13D-01  0.59D-02  0  0   481.31
   2      1.20759891    -1.97269206 -5117.68889849    -0.04253987    -0.01172020  0.59D-03  0.21D-02  0  0   672.25
   3      1.23054370    -1.96632437 -5117.68253080     0.00636769    -0.31781584  0.22D-02  0.95D-02  0  0   855.49
   4      1.90945789    -1.97777469 -5117.69398112    -0.01145032   -20.92700712  0.55D-03  0.66D+00  0  0  1026.84
   5     49.50165892    -1.96953110 -5117.68573753     0.00824359 -1511.98720270  0.31D-02  0.47D+02  0  0  1198.43
   6   3777.90754228    -2.28727812 -5118.00348455    -0.31774701***************  0.87D-01  0.37D+04  0  0  1375.06

 UNREASONABLE NORM:********** CALCULATION WILL BE STOPPED

 The threshold can be changed using option CC_NORM_MAX (see manual). The current value is CC_NORM_MAX=2.00

 Norm of t1 vector:      0.34794967      S-energy:    -0.00546597      T1 diagnostic:  0.03304894
                                                                       D1 diagnostic:  0.12375834
 Norm of t2 vector:     61.45556503      P-energy:    -2.28181214
                                         Alpha-Beta:  -1.66475515
                                         Alpha-Alpha: -0.32884280
                                         Beta-Beta:   -0.28821420

 Singles amplitudes (print threshold =  0.500E-01):

         I         SYM. A    A   T(IA) [Beta-Beta]

        12         1         1     -0.09982448
        19         2         1      0.16502699

 Doubles amplitudes (print threshold =  0.500E-01):

         I         J         SYM. A    SYM. B    A         B      T(IJ, AB) [Alpha-Alpha]

        12        11         1         1        80       125      0.05006296
        12        11         1         1        82        92     -0.06303054
        12        11         1         1        82       121      0.05961090
        12        11         1         1        91       125      0.05917418
        12        11         1         1        92        82      0.06303054
        12        11         1         1        92        95     -0.05750438
        12        11         1         1        92       112      0.05227037
        12        11         1         1        95        92      0.05750438
        12        11         1         1        95       121     -0.06105935
        12        11         1         1       112        92     -0.05227037
        12        11         1         1       112       125      0.07353309
        12        11         1         1       112       131      0.05022675
        12        11         1         1       121        82     -0.05961090
        12        11         1         1       121        95      0.06105935
        12        11         1         1       125        80     -0.05006296
        12        11         1         1       125        91     -0.05917418
        12        11         1         1       125       112     -0.07353309
        12        11         1         1       131       112     -0.05022675
        12        11         2         2        54        86     -0.06251584
        12        11         2         2        62        72     -0.05757125
        12        11         2         2        62        86     -0.08094898
        12        11         2         2        72        62      0.05757125
        12        11         2         2        72        78     -0.05664305
        12        11         2         2        78        72      0.05664305
        12        11         2         2        78        86      0.08573483
        12        11         2         2        78        89      0.05541755
        12        11         2         2        85        86     -0.07244503
        12        11         2         2        86        54      0.06251584
        12        11         2         2        86        62      0.08094898
        12        11         2         2        86        78     -0.08573483
        12        11         2         2        86        85      0.07244503
        12        11         2         2        89        78     -0.05541755
        12        11         3         3        53        85     -0.06224314
        12        11         3         3        61        71      0.05755362
        12        11         3         3        61        85     -0.08086785
        12        11         3         3        71        61     -0.05755362
        12        11         3         3        71        77     -0.05611538
        12        11         3         3        77        71      0.05611538
        12        11         3         3        77        85     -0.08486458
        12        11         3         3        77        88     -0.05487642
        12        11         3         3        84        85      0.07247252
        12        11         3         3        84        88      0.05003251
        12        11         3         3        85        53      0.06224314
        12        11         3         3        85        61      0.08086785
        12        11         3         3        85        77      0.08486458
        12        11         3         3        85        84     -0.07247252
        12        11         3         3        88        77      0.05487642
        12        11         3         3        88        84     -0.05003251
        19        11         1         2        83        62      0.05241987
        19        11         1         2       107        62     -0.05458709
        19        11         1         2       107        78      0.05394497
        19        11         1         2       125        54     -0.07378429
        19        11         1         2       125        62     -0.09753118
        19        11         1         2       125        78      0.10225224
        19        11         1         2       125        85     -0.08531692
        19        11         1         2       131        62     -0.06131391
        19        11         1         2       131        78      0.06774028
        19        11         1         2       131        85     -0.06028415
        19        11         2         1        54       125      0.07378429
        19        11         2         1        62        83     -0.05241987
        19        11         2         1        62       107      0.05458709
        19        11         2         1        62       125      0.09753118
        19        11         2         1        62       131      0.06131391
        19        11         2         1        78       107     -0.05394497
        19        11         2         1        78       125     -0.10225224
        19        11         2         1        78       131     -0.06774028
        19        11         2         1        85       125      0.08531692
        19        11         2         1        85       131      0.06028415
        20         6         1         2       125        54     -0.05381995
        20         6         1         2       125        62     -0.07262031
        20         6         1         2       125        78      0.07845872
        20         6         1         2       125        85     -0.06811070
        20         6         1         2       131        62     -0.05119960
        20         6         1         2       131        78      0.05716558
        20         6         1         2       131        85     -0.05173187
        20         6         2         1        54       125      0.05381995
        20         6         2         1        62       125      0.07262031
        20         6         2         1        62       131      0.05119960
        20         6         2         1        78       125     -0.07845872
        20         6         2         1        78       131     -0.05716558
        20         6         2         1        85       125      0.06811070
        20         6         2         1        85       131      0.05173187
        20        11         1         2        58        54     -0.05079063
        20        11         1         2        58        62     -0.05370153
        20        11         1         2        60        59      0.05483507
        20        11         1         2        60        74      0.06473504
        20        11         1         2        60        84     -0.05397687
        20        11         1         2        62        39      0.05419972
        20        11         1         2        62        54      0.07495219
        20        11         1         2        62        62      0.08589115
        20        11         1         2        62        78     -0.07588351
        20        11         1         2        62        85      0.05305129
        20        11         1         2        69        39      0.05655546
        20        11         1         2        69        54      0.07637439
        20        11         1         2        69        62      0.08633578
        20        11         1         2        69        78     -0.07704454
        20        11         1         2        69        85      0.05452015
        20        11         1         2        71        62     -0.05649640
        20        11         1         2        71        78      0.05248929
        20        11         1         2        79        62     -0.05198187
        20        11         1         2        80        59      0.05171507
        20        11         1         2        80        74      0.06734566
        20        11         1         2        80        84     -0.06142143
        20        11         1         2        83        22     -0.06123016
        20        11         1         2        83        32      0.07717868
        20        11         1         2        83        38      0.05656689
        20        11         1         2        83        39      0.10177642
        20        11         1         2        83        54      0.13624456
        20        11         1         2        83        62      0.15281367
        20        11         1         2        83        78     -0.13792353
        20        11         1         2        83        85      0.09952705
        20        11         1         2        88        54     -0.05290998
        20        11         1         2        88        62     -0.05928039
        20        11         1         2        88        78      0.05223176
        20        11         1         2        90        62     -0.05317440
        20        11         1         2        91        74      0.06878346
        20        11         1         2        91        84     -0.06836582
        20        11         1         2        92        86     -0.05067998
        20        11         1         2        97        62      0.05571824
        20        11         1         2        97        78     -0.05310355
        20        11         1         2       104        54     -0.06310541
        20        11         1         2       104        62     -0.07598919
        20        11         1         2       104        78      0.07277007
        20        11         1         2       104        85     -0.05531210
        20        11         1         2       105        32      0.05741002
        20        11         1         2       105        39      0.08506978
        20        11         1         2       105        54      0.12426608
        20        11         1         2       105        62      0.15442148
        20        11         1         2       105        78     -0.15075670
        20        11         1         2       105        85      0.11706524
        20        11         1         2       105        87      0.06014031
        20        11         1         2       107        22      0.05745078
        20        11         1         2       107        32     -0.07524030
        20        11         1         2       107        38     -0.06323724
        20        11         1         2       107        39     -0.11055973
        20        11         1         2       107        54     -0.16547208
        20        11         1         2       107        62     -0.20699185
        20        11         1         2       107        78      0.20440932
        20        11         1         2       107        85     -0.15883138
        20        11         1         2       107        87     -0.08375095
        20        11         1         2       109        22      0.05738488
        20        11         1         2       109        32     -0.07189434
        20        11         1         2       109        38     -0.05747982
        20        11         1         2       109        39     -0.09949606
        20        11         1         2       109        54     -0.14315949
        20        11         1         2       109        62     -0.17240289
        20        11         1         2       109        78      0.16532414
        20        11         1         2       109        85     -0.12618231
        20        11         1         2       109        87     -0.06609673
        20        11         1         2       111        62     -0.05418409
        20        11         1         2       111        78      0.05339884
        20        11         1         2       112        59      0.05050981
        20        11         1         2       112        74      0.07454777
        20        11         1         2       112        84     -0.07359751
        20        11         1         2       112        88     -0.05070525
        20        11         1         2       119        86      0.05189310
        20        11         1         2       125        16     -0.05054776
        20        11         1         2       125        22      0.08871465
        20        11         1         2       125        32     -0.11690439
        20        11         1         2       125        34      0.06688115
        20        11         1         2       125        38     -0.09909272
        20        11         1         2       125        39     -0.17785110
        20        11         1         2       125        54     -0.27603080
        20        11         1         2       125        56     -0.05919166
        20        11         1         2       125        62     -0.36354638
        20        11         1         2       125        78      0.38044232
        20        11         1         2       125        85     -0.31710894
        20        11         1         2       125        87     -0.18012914
        20        11         1         2       125        90     -0.07744438
        20        11         1         2       131        32     -0.06592160
        20        11         1         2       131        38     -0.05740828
        20        11         1         2       131        39     -0.10313495
        20        11         1         2       131        54     -0.16578431
        20        11         1         2       131        62     -0.22791934
        20        11         1         2       131        78      0.25139733
        20        11         1         2       131        85     -0.22352456
        20        11         1         2       131        87     -0.13855936
        20        11         1         2       131        90     -0.06585834
        20        11         1         2       137        54      0.06335262
        20        11         1         2       137        62      0.08945765
        20        11         1         2       137        78     -0.10231711
        20        11         1         2       137        85      0.09564561
        20        11         1         2       137        87      0.06413016
        20        11         2         1        16       125      0.05054776
        20        11         2         1        22        83      0.06123016
        20        11         2         1        22       107     -0.05745078
        20        11         2         1        22       109     -0.05738488
        20        11         2         1        22       125     -0.08871465
        20        11         2         1        32        83     -0.07717868
        20        11         2         1        32       105     -0.05741002
        20        11         2         1        32       107      0.07524030
        20        11         2         1        32       109      0.07189434
        20        11         2         1        32       125      0.11690439
        20        11         2         1        32       131      0.06592160
        20        11         2         1        34       125     -0.06688115
        20        11         2         1        38        83     -0.05656689
        20        11         2         1        38       107      0.06323724
        20        11         2         1        38       109      0.05747982
        20        11         2         1        38       125      0.09909272
        20        11         2         1        38       131      0.05740828
        20        11         2         1        39        62     -0.05419972
        20        11         2         1        39        69     -0.05655546
        20        11         2         1        39        83     -0.10177642
        20        11         2         1        39       105     -0.08506978
        20        11         2         1        39       107      0.11055973
        20        11         2         1        39       109      0.09949606
        20        11         2         1        39       125      0.17785110
        20        11         2         1        39       131      0.10313495
        20        11         2         1        54        58      0.05079063
        20        11         2         1        54        62     -0.07495219
        20        11         2         1        54        69     -0.07637439
        20        11         2         1        54        83     -0.13624456
        20        11         2         1        54        88      0.05290998
        20        11         2         1        54       104      0.06310541
        20        11         2         1        54       105     -0.12426608
        20        11         2         1        54       107      0.16547208
        20        11         2         1        54       109      0.14315949
        20        11         2         1        54       125      0.27603080
        20        11         2         1        54       131      0.16578431
        20        11         2         1        54       137     -0.06335262
        20        11         2         1        56       125      0.05919166
        20        11         2         1        59        60     -0.05483507
        20        11         2         1        59        80     -0.05171507
        20        11         2         1        59       112     -0.05050981
        20        11         2         1        62        58      0.05370153
        20        11         2         1        62        62     -0.08589115
        20        11         2         1        62        69     -0.08633578
        20        11         2         1        62        71      0.05649640
        20        11         2         1        62        79      0.05198187
        20        11         2         1        62        83     -0.15281367
        20        11         2         1        62        88      0.05928039
        20        11         2         1        62        90      0.05317440
        20        11         2         1        62        97     -0.05571824
        20        11         2         1        62       104      0.07598919
        20        11         2         1        62       105     -0.15442148
        20        11         2         1        62       107      0.20699185
        20        11         2         1        62       109      0.17240289
        20        11         2         1        62       111      0.05418409
        20        11         2         1        62       125      0.36354638
        20        11         2         1        62       131      0.22791934
        20        11         2         1        62       137     -0.08945765
        20        11         2         1        74        60     -0.06473504
        20        11         2         1        74        80     -0.06734566
        20        11         2         1        74        91     -0.06878346
        20        11         2         1        74       112     -0.07454777
        20        11         2         1        78        62      0.07588351
        20        11         2         1        78        69      0.07704454
        20        11         2         1        78        71     -0.05248929
        20        11         2         1        78        83      0.13792353
        20        11         2         1        78        88     -0.05223176
        20        11         2         1        78        97      0.05310355
        20        11         2         1        78       104     -0.07277007
        20        11         2         1        78       105      0.15075670
        20        11         2         1        78       107     -0.20440932
        20        11         2         1        78       109     -0.16532414
        20        11         2         1        78       111     -0.05339884
        20        11         2         1        78       125     -0.38044232
        20        11         2         1        78       131     -0.25139733
        20        11         2         1        78       137      0.10231711
        20        11         2         1        84        60      0.05397687
        20        11         2         1        84        80      0.06142143
        20        11         2         1        84        91      0.06836582
        20        11         2         1        84       112      0.07359751
        20        11         2         1        85        62     -0.05305129
        20        11         2         1        85        69     -0.05452015
        20        11         2         1        85        83     -0.09952705
        20        11         2         1        85       104      0.05531210
        20        11         2         1        85       105     -0.11706524
        20        11         2         1        85       107      0.15883138
        20        11         2         1        85       109      0.12618231
        20        11         2         1        85       125      0.31710894
        20        11         2         1        85       131      0.22352456
        20        11         2         1        85       137     -0.09564561
        20        11         2         1        86        92      0.05067998
        20        11         2         1        86       119     -0.05189310
        20        11         2         1        87       105     -0.06014031
        20        11         2         1        87       107      0.08375095
        20        11         2         1        87       109      0.06609673
        20        11         2         1        87       125      0.18012914
        20        11         2         1        87       131      0.13855936
        20        11         2         1        87       137     -0.06413016
        20        11         2         1        88       112      0.05070525
        20        11         2         1        90       125      0.07744438
        20        11         2         1        90       131      0.06585834
        20        12         1         2        83        62     -0.05316623
        20        12         1         2       107        62      0.05984990
        20        12         1         2       107        78     -0.05881908
        20        12         1         2       125        39      0.05126334
        20        12         1         2       125        54      0.07970371
        20        12         1         2       125        62      0.10509707
        20        12         1         2       125        78     -0.10991349
        20        12         1         2       125        85      0.09147515
        20        12         1         2       125        87      0.05183810
        20        12         1         2       131        62      0.06565066
        20        12         1         2       131        78     -0.07242340
        20        12         1         2       131        85      0.06435818
        20        12         2         1        39       125     -0.05126334
        20        12         2         1        54       125     -0.07970371
        20        12         2         1        62        83      0.05316623
        20        12         2         1        62       107     -0.05984990
        20        12         2         1        62       125     -0.10509707
        20        12         2         1        62       131     -0.06565066
        20        12         2         1        78       107      0.05881908
        20        12         2         1        78       125      0.10991349
        20        12         2         1        78       131      0.07242340
        20        12         2         1        85       125     -0.09147515
        20        12         2         1        85       131     -0.06435818
        20        12         2         1        87       125     -0.05183810
        25         6         1         3       125        77      0.05280297
        25         6         3         1        77       125     -0.05280297
        25        11         1         3        62        53     -0.05417295
        25        11         1         3        62        61     -0.06223586
        25        11         1         3        62        77     -0.05461663
        25        11         1         3        69        53     -0.05676243
        25        11         1         3        69        61     -0.06450344
        25        11         1         3        69        77     -0.05724833
        25        11         1         3        83        31      0.05520351
        25        11         1         3        83        38     -0.07720154
        25        11         1         3        83        53     -0.10024763
        25        11         1         3        83        61     -0.11332150
        25        11         1         3        83        77     -0.10163872
        25        11         1         3        83        84      0.07419979
        25        11         1         3       104        61      0.05409719
        25        11         1         3       104        77      0.05141903
        25        11         1         3       105        38     -0.05866144
        25        11         1         3       105        53     -0.08342824
        25        11         1         3       105        61     -0.10441136
        25        11         1         3       105        77     -0.10117229
        25        11         1         3       105        84      0.07926793
        25        11         1         3       107        31     -0.05003672
        25        11         1         3       107        38      0.07751837
        25        11         1         3       107        53      0.11252435
        25        11         1         3       107        61      0.14127567
        25        11         1         3       107        77      0.13832678
        25        11         1         3       107        84     -0.10867177
        25        11         1         3       107        86     -0.05729546
        25        11         1         3       109        38      0.07019784
        25        11         1         3       109        53      0.09789723
        25        11         1         3       109        61      0.11834631
        25        11         1         3       109        77      0.11257259
        25        11         1         3       109        84     -0.08689158
        25        11         1         3       112        73      0.05159051
        25        11         1         3       112        83     -0.05104963
        25        11         1         3       125        21     -0.06132734
        25        11         1         3       125        31     -0.07803719
        25        11         1         3       125        33      0.05031902
        25        11         1         3       125        37     -0.05997714
        25        11         1         3       125        38      0.12556792
        25        11         1         3       125        53      0.18901871
        25        11         1         3       125        61      0.25000484
        25        11         1         3       125        77      0.25941252
        25        11         1         3       125        84     -0.21839933
        25        11         1         3       125        86     -0.12403759
        25        11         1         3       125        89     -0.05340457
        25        11         1         3       131        38      0.07295521
        25        11         1         3       131        53      0.11373446
        25        11         1         3       131        61      0.15700483
        25        11         1         3       131        77      0.17168668
        25        11         1         3       131        84     -0.15416050
        25        11         1         3       131        86     -0.09552321
        25        11         1         3       137        61     -0.06166149
        25        11         1         3       137        77     -0.06991491
        25        11         1         3       137        84      0.06599666
        25        11         3         1        21       125      0.06132734
        25        11         3         1        31        83     -0.05520351
        25        11         3         1        31       107      0.05003672
        25        11         3         1        31       125      0.07803719
        25        11         3         1        33       125     -0.05031902
        25        11         3         1        37       125      0.05997714
        25        11         3         1        38        83      0.07720154
        25        11         3         1        38       105      0.05866144
        25        11         3         1        38       107     -0.07751837
        25        11         3         1        38       109     -0.07019784
        25        11         3         1        38       125     -0.12556792
        25        11         3         1        38       131     -0.07295521
        25        11         3         1        53        62      0.05417295
        25        11         3         1        53        69      0.05676243
        25        11         3         1        53        83      0.10024763
        25        11         3         1        53       105      0.08342824
        25        11         3         1        53       107     -0.11252435
        25        11         3         1        53       109     -0.09789723
        25        11         3         1        53       125     -0.18901871
        25        11         3         1        53       131     -0.11373446
        25        11         3         1        61        62      0.06223586
        25        11         3         1        61        69      0.06450344
        25        11         3         1        61        83      0.11332150
        25        11         3         1        61       104     -0.05409719
        25        11         3         1        61       105      0.10441136
        25        11         3         1        61       107     -0.14127567
        25        11         3         1        61       109     -0.11834631
        25        11         3         1        61       125     -0.25000484
        25        11         3         1        61       131     -0.15700483
        25        11         3         1        61       137      0.06166149
        25        11         3         1        73       112     -0.05159051
        25        11         3         1        77        62      0.05461663
        25        11         3         1        77        69      0.05724833
        25        11         3         1        77        83      0.10163872
        25        11         3         1        77       104     -0.05141903
        25        11         3         1        77       105      0.10117229
        25        11         3         1        77       107     -0.13832678
        25        11         3         1        77       109     -0.11257259
        25        11         3         1        77       125     -0.25941252
        25        11         3         1        77       131     -0.17168668
        25        11         3         1        77       137      0.06991491
        25        11         3         1        83       112      0.05104963
        25        11         3         1        84        83     -0.07419979
        25        11         3         1        84       105     -0.07926793
        25        11         3         1        84       107      0.10867177
        25        11         3         1        84       109      0.08689158
        25        11         3         1        84       125      0.21839933
        25        11         3         1        84       131      0.15416050
        25        11         3         1        84       137     -0.06599666
        25        11         3         1        86       107      0.05729546
        25        11         3         1        86       125      0.12403759
        25        11         3         1        86       131      0.09552321
        25        11         3         1        89       125      0.05340457
        25        12         1         3       125        61     -0.06177469
        25        12         1         3       125        77     -0.06381014
        25        12         1         3       125        84      0.05351692
        25        12         3         1        61       125      0.06177469
        25        12         3         1        77       125      0.06381014
        25        12         3         1        84       125     -0.05351692
        26         6         1         3       125        61      0.05241750
        26         6         1         3       125        77      0.05610281
        26         6         3         1        61       125     -0.05241750
        26         6         3         1        77       125     -0.05610281
        26        11         1         3        62        53     -0.05339386
        26        11         1         3        62        61     -0.06123657
        26        11         1         3        62        77     -0.05347237
        26        11         1         3        69        53     -0.05339601
        26        11         1         3        69        61     -0.06042813
        26        11         1         3        69        77     -0.05329480
        26        11         1         3        83        31      0.05326018
        26        11         1         3        83        38     -0.07401846
        26        11         1         3        83        53     -0.09564567
        26        11         1         3        83        61     -0.10739724
        26        11         1         3        83        77     -0.09586784
        26        11         1         3        83        84      0.06970938
        26        11         1         3        91        73      0.05020205
        26        11         1         3       104        61      0.05428259
        26        11         1         3       104        77      0.05146043
        26        11         1         3       105        38     -0.06446816
        26        11         1         3       105        53     -0.09096333
        26        11         1         3       105        61     -0.11315909
        26        11         1         3       105        77     -0.10934031
        26        11         1         3       105        84      0.08552632
        26        11         1         3       107        31     -0.05338913
        26        11         1         3       107        38      0.08273927
        26        11         1         3       107        53      0.11993319
        26        11         1         3       107        61      0.15036641
        26        11         1         3       107        77      0.14702015
        26        11         1         3       107        84     -0.11532070
        26        11         1         3       107        86     -0.06071047
        26        11         1         3       109        31     -0.05094476
        26        11         1         3       109        38      0.07450528
        26        11         1         3       109        53      0.10385311
        26        11         1         3       109        61      0.12541430
        26        11         1         3       109        77      0.11908781
        26        11         1         3       109        84     -0.09174827
        26        11         1         3       112        73      0.05438931
        26        11         1         3       112        83     -0.05400632
        26        11         1         3       125        21     -0.06504112
        26        11         1         3       125        31     -0.08281473
        26        11         1         3       125        33      0.05336766
        26        11         1         3       125        37     -0.06361021
        26        11         1         3       125        38      0.13294234
        26        11         1         3       125        53      0.19975167
        26        11         1         3       125        61      0.26371655
        26        11         1         3       125        77      0.27330840
        26        11         1         3       125        84     -0.22987320
        26        11         1         3       125        86     -0.13043380
        26        11         1         3       125        89     -0.05610544
        26        11         1         3       131        38      0.07697367
        26        11         1         3       131        53      0.11980617
        26        11         1         3       131        61      0.16515070
        26        11         1         3       131        77      0.18044813
        26        11         1         3       131        84     -0.16193388
        26        11         1         3       131        86     -0.10029113
        26        11         1         3       137        61     -0.06478168
        26        11         1         3       137        77     -0.07340554
        26        11         1         3       137        84      0.06926627
        26        11         3         1        21       125      0.06504112
        26        11         3         1        31        83     -0.05326018
        26        11         3         1        31       107      0.05338913
        26        11         3         1        31       109      0.05094476
        26        11         3         1        31       125      0.08281473
        26        11         3         1        33       125     -0.05336766
        26        11         3         1        37       125      0.06361021
        26        11         3         1        38        83      0.07401846
        26        11         3         1        38       105      0.06446816
        26        11         3         1        38       107     -0.08273927
        26        11         3         1        38       109     -0.07450528
        26        11         3         1        38       125     -0.13294234
        26        11         3         1        38       131     -0.07697367
        26        11         3         1        53        62      0.05339386
[...]
        25        20         3         2        54        72     -0.05363412
        25        20         3         2        54        86     -0.06647367
        25        20         3         2        55        27      0.05083437
        25        20         3         2        55        45      0.05282839
        25        20         3         2        55        49      0.09250655
        25        20         3         2        55        51      0.13157952
        25        20         3         2        55        52      0.05130223
        25        20         3         2        55        62     -0.05104942
        25        20         3         2        55        71     -0.07160319
        25        20         3         2        55        72     -0.23355906
        25        20         3         2        55        73     -0.14786171
        25        20         3         2        55        86     -0.28928380
        25        20         3         2        55        89     -0.16631642
        25        20         3         2        55        92     -0.06131643
        25        20         3         2        57        16      0.06160359
        25        20         3         2        57        22     -0.09491602
        25        20         3         2        57        32      0.11701492
        25        20         3         2        57        34     -0.05159281
        25        20         3         2        57        38      0.08447572
        25        20         3         2        57        39      0.14732196
        25        20         3         2        57        51     -0.05807207
        25        20         3         2        57        52     -0.05130202
        25        20         3         2        57        54      0.19762503
        25        20         3         2        57        62      0.22340009
        25        20         3         2        57        72      0.11372816
        25        20         3         2        57        73      0.07474648
        25        20         3         2        57        78     -0.20069999
        25        20         3         2        57        85      0.14407857
        25        20         3         2        57        86      0.14502726
        25        20         3         2        57        87      0.06936202
        25        20         3         2        57        89      0.08418094
        25        20         3         2        58        22     -0.07128399
        25        20         3         2        58        32      0.06210248
        25        20         3         2        58        62     -0.09407193
        25        20         3         2        58        78      0.11105710
        25        20         3         2        58        85     -0.08773553
        25        20         3         2        59        22     -0.05954966
        25        20         3         2        59        32      0.07275054
        25        20         3         2        59        38      0.05298872
        25        20         3         2        59        39      0.09937064
        25        20         3         2        59        54      0.13368826
        25        20         3         2        59        62      0.15324426
        25        20         3         2        59        78     -0.13932252
        25        20         3         2        59        85      0.10120111
        25        20         3         2        60        54     -0.05221755
        25        20         3         2        60        62     -0.05450160
        25        20         3         2        60        72     -0.06672060
        25        20         3         2        60        86     -0.08683996
        25        20         3         2        60        89     -0.05132190
        25        20         3         2        61         5      0.06504658
        25        20         3         2        61         8      0.06843580
        25        20         3         2        61        11     -0.14520034
        25        20         3         2        61        12      0.05275999
        25        20         3         2        61        13     -0.05952301
        25        20         3         2        61        15     -0.07135241
        25        20         3         2        61        16      0.21445191
        25        20         3         2        61        21      0.05799923
        25        20         3         2        61        22     -0.31232577
        25        20         3         2        61        23      0.11859530
        25        20         3         2        61        25      0.16714270
        25        20         3         2        61        27     -0.24354864
        25        20         3         2        61        28     -0.08223786
        25        20         3         2        61        32      0.41981886
        25        20         3         2        61        34     -0.09509875
        25        20         3         2        61        36     -0.12299839
        25        20         3         2        61        38      0.30947657
        25        20         3         2        61        39      0.51341656
        25        20         3         2        61        43     -0.07850082
        25        20         3         2        61        45     -0.22580798
        25        20         3         2        61        49     -0.42250088
        25        20         3         2        61        51     -0.61591015
        25        20         3         2        61        52     -0.32257298
        25        20         3         2        61        53      0.13738765
        25        20         3         2        61        54      0.73855815
        25        20         3         2        61        57     -0.06417330
        25        20         3         2        61        58     -0.20901529
        25        20         3         2        61        59      0.09435452
        25        20         3         2        61        60     -0.16075417
        25        20         3         2        61        61     -0.05343256
        25        20         3         2        61        62      0.89715261
        25        20         3         2        61        64      0.07081628
        25        20         3         2        61        67     -0.08278587
        25        20         3         2        61        71      0.36645086
        25        20         3         2        61        72      1.18822999
        25        20         3         2        61        73      0.76523351
        25        20         3         2        61        74      0.22359429
        25        20         3         2        61        77     -0.08380250
        25        20         3         2        61        78     -0.85972544
        25        20         3         2        61        79      0.09719653
        25        20         3         2        61        80      0.06675514
        25        20         3         2        61        82      0.06617047
        25        20         3         2        61        85      0.65459202
        25        20         3         2        61        86      1.57200870
        25        20         3         2        61        87      0.32189770
        25        20         3         2        61        88     -0.07608164
        25        20         3         2        61        89      0.93648480
        25        20         3         2        61        90      0.12463466
        25        20         3         2        61        92      0.35276193
        25        20         3         2        61        94      0.10514697
        25        20         3         2        63        39     -0.05342105
        25        20         3         2        63        54     -0.06632701
        25        20         3         2        63        62     -0.07159616
        25        20         3         2        63        78      0.06439008
        25        20         3         2        66        39      0.05609444
        25        20         3         2        66        54      0.07378169
        25        20         3         2        66        62      0.08383742
        25        20         3         2        66        78     -0.07766255
        25        20         3         2        66        85      0.05845014
        25        20         3         2        66        86      0.05116374
        25        20         3         2        70        11      0.05573967
        25        20         3         2        70        16     -0.09746400
        25        20         3         2        70        22      0.16178454
        25        20         3         2        70        32     -0.19333276
        25        20         3         2        70        34      0.11006336
        25        20         3         2        70        38     -0.13734556
        25        20         3         2        70        39     -0.25184453
        25        20         3         2        70        52      0.05047793
        25        20         3         2        70        54     -0.32838250
        25        20         3         2        70        56     -0.06744252
        25        20         3         2        70        62     -0.37138217
        25        20         3         2        70        78      0.34303034
        25        20         3         2        70        85     -0.25760627
        25        20         3         2        70        87     -0.13162675
        25        20         3         2        70        90     -0.05173854
        25        20         3         2        71         5     -0.07296392
        25        20         3         2        71         7      0.07565026
        25        20         3         2        71         8     -0.08744702
        25        20         3         2        71        11      0.17623642
        25        20         3         2        71        12     -0.12061293
        25        20         3         2        71        15      0.05122659
        25        20         3         2        71        16     -0.30851114
        25        20         3         2        71        17     -0.10233714
        25        20         3         2        71        19     -0.06334307
        25        20         3         2        71        21     -0.05339687
        25        20         3         2        71        22      0.51399558
        25        20         3         2        71        23     -0.05796883
        25        20         3         2        71        30     -0.11603389
        25        20         3         2        71        32     -0.61625806
        25        20         3         2        71        34      0.35199415
        25        20         3         2        71        36      0.07619813
        25        20         3         2        71        38     -0.44083365
        25        20         3         2        71        39     -0.80493104
        25        20         3         2        71        40      0.13604040
        25        20         3         2        71        43      0.08629470
        25        20         3         2        71        52      0.16046760
        25        20         3         2        71        53     -0.06982508
        25        20         3         2        71        54     -1.05344246
        25        20         3         2        71        56     -0.21756059
        25        20         3         2        71        58      0.10497275
        25        20         3         2        71        61      0.06497671
        25        20         3         2        71        62     -1.19280531
        25        20         3         2        71        78      1.10159238
        25        20         3         2        71        79     -0.12764864
        25        20         3         2        71        85     -0.82674960
        25        20         3         2        71        86     -0.05168555
        25        20         3         2        71        87     -0.42335169
        25        20         3         2        71        90     -0.16662408
        25        20         3         2        72         8     -0.05542103
        25        20         3         2        72        11      0.11070188
        25        20         3         2        72        12     -0.07569806
        25        20         3         2        72        16     -0.19332358
        25        20         3         2        72        17     -0.06326339
        25        20         3         2        72        22      0.32155543
        25        20         3         2        72        30     -0.07211690
        25        20         3         2        72        32     -0.38715556
        25        20         3         2        72        34      0.21934491
        25        20         3         2        72        38     -0.27817540
        25        20         3         2        72        39     -0.50803958
        25        20         3         2        72        40      0.08426873
        25        20         3         2        72        43      0.05487922
        25        20         3         2        72        52      0.10449085
        25        20         3         2        72        54     -0.66954150
        25        20         3         2        72        56     -0.13673253
        25        20         3         2        72        58      0.06861504
        25        20         3         2        72        62     -0.76340320
        25        20         3         2        72        78      0.70923085
        25        20         3         2        72        79     -0.08216460
        25        20         3         2        72        85     -0.53497509
        25        20         3         2        72        86     -0.05475568
        25        20         3         2        72        87     -0.27510860
        25        20         3         2        72        90     -0.10873385
        25        20         3         2        73        39     -0.06395621
        25        20         3         2        73        54     -0.14370622
        25        20         3         2        73        62     -0.22406786
        25        20         3         2        73        78      0.24046661
        25        20         3         2        73        85     -0.19208683
        25        20         3         2        73        87     -0.09958954
        25        20         3         2        76        54     -0.06349524
        25        20         3         2        76        62     -0.07843997
        25        20         3         2        76        78      0.07582194
        25        20         3         2        76        85     -0.05798369
        25        20         3         2        77         8      0.05013347
        25        20         3         2        77        11     -0.10849902
        25        20         3         2        77        15     -0.05713416
        25        20         3         2        77        16      0.16191334
        25        20         3         2        77        22     -0.24079316
        25        20         3         2        77        23      0.08862234
        25        20         3         2        77        25      0.12525295
        25        20         3         2        77        27     -0.19703207
        25        20         3         2        77        28     -0.06891496
        25        20         3         2        77        32      0.33753443
        25        20         3         2        77        34     -0.07415990
        25        20         3         2        77        36     -0.09962834
        25        20         3         2        77        38      0.25594904
        25        20         3         2        77        39      0.43853607
        25        20         3         2        77        43     -0.06765359
        25        20         3         2        77        45     -0.18660073
        25        20         3         2        77        49     -0.35194544
        25        20         3         2        77        51     -0.52319623
        25        20         3         2        77        52     -0.27739454
        25        20         3         2        77        53      0.11844436
        25        20         3         2        77        54      0.66253401
        25        20         3         2        77        57     -0.05685356
        25        20         3         2        77        58     -0.18576285
        25        20         3         2        77        59      0.11005198
        25        20         3         2        77        60     -0.14502336
        25        20         3         2        77        62      0.85060345
        25        20         3         2        77        64      0.06310011
        25        20         3         2        77        67     -0.07598481
        25        20         3         2        77        71      0.33556750
        25        20         3         2        77        72      1.08762811
        25        20         3         2        77        73      0.70462332
        25        20         3         2        77        74      0.23757137
        25        20         3         2        77        77     -0.08045724
        25        20         3         2        77        78     -0.86172242
        25        20         3         2        77        79      0.09764317
        25        20         3         2        77        80      0.06505387
        25        20         3         2        77        82      0.06254880
        25        20         3         2        77        85      0.69186818
        25        20         3         2        77        86      1.55082900
        25        20         3         2        77        87      0.35636404
        25        20         3         2        77        88     -0.09544057
        25        20         3         2        77        89      0.97254468
        25        20         3         2        77        90      0.14376283
        25        20         3         2        77        92      0.37912452
        25        20         3         2        77        94      0.11518718
        25        20         3         2        78        32     -0.05805792
        25        20         3         2        78        39     -0.07532087
        25        20         3         2        78        49      0.06111545
        25        20         3         2        78        51      0.09085324
        25        20         3         2        78        54     -0.11386733
        25        20         3         2        78        62     -0.14625045
        25        20         3         2        78        71     -0.05830529
        25        20         3         2        78        72     -0.18903229
        25        20         3         2        78        73     -0.12244514
        25        20         3         2        78        78      0.14819014
        25        20         3         2        78        85     -0.11909098
        25        20         3         2        78        86     -0.26977605
        25        20         3         2        78        87     -0.06136684
        25        20         3         2        78        89     -0.16930521
        25        20         3         2        78        92     -0.06603430
        25        20         3         2        79        54     -0.05930016
        25        20         3         2        79        62     -0.07427584
        25        20         3         2        79        78      0.07338402
        25        20         3         2        79        85     -0.05760589
        25        20         3         2        81        54     -0.05693094
        25        20         3         2        81        62     -0.06718089
        25        20         3         2        81        78      0.06420309
        25        20         3         2        83        32     -0.05242782
