
 Primary working directories    : /global/cscratch1/sd/bkincaid
 Secondary working directories  : /global/cscratch1/sd/bkincaid
 Wavefunction directory         : /global/homes/b/bkincaid/wfu/
 Main file repository           : /global/cscratch1/sd/bkincaid/

 SHA1      : 19cd028119e0e09f93f0674bd8af7968d9b3eff6
 NAME      : 2015.1.36
 ARCHNAME  : linux/x86_64
 FC        : /opt/cray/pe/craype/2.5.14/bin/ftn
 BLASLIB   : -L/opt/intel/compilers_and_libraries_2018.1.163/linux/mkl/lib/intel64 -Wl,-_start-group -lmkl_intel_ilp64 -lmkl_intel_thread -lmkl_core -Wl,-_end-group -liomp5
 id        : lbl

 Nodes     nprocs
 nid01470    23
 Number of processes for MPI-2 version of Molpro:   nprocs(total)=   24   nprocs(compute)=   23   nprocs(helper)=    1

 Using customized tuning parameters: mindgm=7; mindgv=16; mindgc=1; mindgr=1; noblas=0; minvec=7
 default implementation of scratch files=sf  

 ***,Calculation for PdO groundstate
 memory,512,m
 gthresh,twoint=1.0E-12
 gthresh,throvl=1.0E-12
                                                                                 !symmetry,nosym
 
 set,dkroll=1,dkho=10,dkhp=4
 
 basis={
 Including file /global/u1/b/bkincaid/molpro/pd/molecules/PdO/tz/ae/1.635/c-Pd-aug-cc-pwCVTZ.basis
 Including file /global/u1/b/bkincaid/molpro/pd/molecules/PdO/tz/ae/1.635/c-O-aug-cc-CVTZ.basis
 }
 
 OE=-75.09181489
 PdE=-5044.366379
 
 ne = 54
 geometry={
         2
         PdO
         Pd 0.0 0.0 0.0
         O 0.0 0.0 1.635
 }
 
 A1=14
 B1=6
 B2=6
 A2=2
 
 {rks,pbe0
 wf,nele=ne,spin=2,sym=2
 occ,A1,B1,B2,A2
 closed,A1-1,B1-1,B2,A2
 }
 
 {rhf
 wf,nelec=ne,spin=2,sym=2
 occ,A1,B1,B2,A2
 closed,A1-1,B1-1,B2,A2
 }
 
 basis={
 Including file /global/u1/b/bkincaid/molpro/pd/molecules/PdO/tz/ae/1.635/Pd-aug-cc-pwCVTZ.basis
 Including file /global/u1/b/bkincaid/molpro/pd/molecules/PdO/tz/ae/1.635/O-aug-cc-CVTZ.basis
 }
 
 {rhf
 wf,nelec=ne,spin=2,sym=2
 occ,A1,B1,B2,A2
 closed,A1-1,B1-1,B2,A2
 }
 
 scf=energy
 
 _CC_NORM_MAX=2.0
 {rccsd(t);maxit,100;core}
 ccsd=energy
 
 BE = ccsd - PdE - OE
 
 table,scf,ccsd,BE
 save
 type,csv

 Variables initialized (889), CPU time= 0.01 sec
 Commands  initialized (702), CPU time= 0.01 sec, 572 directives.
 Default parameters read. Elapsed time= 0.23 sec

 Checking input...
 Passed
1


                                         ***  PROGRAM SYSTEM MOLPRO  ***
                                       Copyright, TTI GmbH Stuttgart, 2015
                                    Version 2015.1 linked Dec 29 2018 15:55:43


 **********************************************************************************************************************************
 LABEL *   Calculation for PdO groundstate                                               
  64 bit mpp version                                                                     DATE: 03-Sep-20          TIME: 19:36:12  
 **********************************************************************************************************************************

 SHA1:             19cd028119e0e09f93f0674bd8af7968d9b3eff6
 **********************************************************************************************************************************

 THRESHOLDS:

 ZERO    =  1.00D-12  ONEINT  =  1.00D-12  TWOINT  =  1.00D-12  PREFAC  =  1.00D-14  LOCALI  =  1.00D-09  EORDER  =  1.00D-04
 ENERGY  =  0.00D+00  ETEST   =  0.00D+00  EDENS   =  0.00D+00  THRDEDEF=  1.00D-06  GRADIENT=  1.00D-02  STEP    =  1.00D-03
 ORBITAL =  1.00D-05  CIVEC   =  1.00D-05  COEFF   =  1.00D-04  PRINTCI =  5.00D-02  PUNCHCI =  9.90D+01  OPTGRAD =  3.00D-04
 OPTENERG=  1.00D-06  OPTSTEP =  3.00D-04  THRGRAD =  1.00D-10  COMPRESS=  1.00D-11  VARMIN  =  1.00D-07  VARMAX  =  1.00D-03
 THRDOUB =  0.00D+00  THRDIV  =  1.00D-05  THRRED  =  1.00D-07  THRPSP  =  1.00D+00  THRDC   =  1.00D-10  THRCS   =  1.00D-10
 THRNRM  =  1.00D-08  THREQ   =  0.00D+00  THRDE   =  1.00D+00  THRREF  =  1.00D-05  SPARFAC =  1.00D+00  THRDLP  =  1.00D-07
 THRDIA  =  1.00D-10  THRDLS  =  1.00D-07  THRGPS  =  0.00D+00  THRKEX  =  0.00D+00  THRDIS  =  2.00D-01  THRVAR  =  1.00D-10
 THRLOC  =  1.00D-06  THRGAP  =  1.00D-06  THRLOCT = -1.00D+00  THRGAPT = -1.00D+00  THRORB  =  1.00D-06  THRMLTP =  0.00D+00
 THRCPQCI=  1.00D-10  KEXTA   =  0.00D+00  THRCOARS=  0.00D+00  SYMTOL  =  1.00D-06  GRADTOL =  1.00D-06  THROVL  =  1.00D-08
 THRORTH =  1.00D-08  GRID    =  1.00D-06  GRIDMAX =  1.00D-03  DTMAX   =  0.00D+00  THROCCDE=  1.00D-01  THROCCDE=  1.00D-01



 THRESHOLDS:

 ZERO    =  1.00D-12  ONEINT  =  1.00D-12  TWOINT  =  1.00D-12  PREFAC  =  1.00D-14  LOCALI  =  1.00D-09  EORDER  =  1.00D-04
 ENERGY  =  0.00D+00  ETEST   =  0.00D+00  EDENS   =  0.00D+00  THRDEDEF=  1.00D-06  GRADIENT=  1.00D-02  STEP    =  1.00D-03
 ORBITAL =  1.00D-05  CIVEC   =  1.00D-05  COEFF   =  1.00D-04  PRINTCI =  5.00D-02  PUNCHCI =  9.90D+01  OPTGRAD =  3.00D-04
 OPTENERG=  1.00D-06  OPTSTEP =  3.00D-04  THRGRAD =  1.00D-10  COMPRESS=  1.00D-11  VARMIN  =  1.00D-07  VARMAX  =  1.00D-03
 THRDOUB =  0.00D+00  THRDIV  =  1.00D-05  THRRED  =  1.00D-07  THRPSP  =  1.00D+00  THRDC   =  1.00D-10  THRCS   =  1.00D-10
 THRNRM  =  1.00D-08  THREQ   =  0.00D+00  THRDE   =  1.00D+00  THRREF  =  1.00D-05  SPARFAC =  1.00D+00  THRDLP  =  1.00D-07
 THRDIA  =  1.00D-10  THRDLS  =  1.00D-07  THRGPS  =  0.00D+00  THRKEX  =  0.00D+00  THRDIS  =  2.00D-01  THRVAR  =  1.00D-10
 THRLOC  =  1.00D-06  THRGAP  =  1.00D-06  THRLOCT = -1.00D+00  THRGAPT = -1.00D+00  THRORB  =  1.00D-06  THRMLTP =  0.00D+00
 THRCPQCI=  1.00D-10  KEXTA   =  0.00D+00  THRCOARS=  0.00D+00  SYMTOL  =  1.00D-06  GRADTOL =  1.00D-06  THROVL  =  1.00D-12
 THRORTH =  1.00D-08  GRID    =  1.00D-06  GRIDMAX =  1.00D-03  DTMAX   =  0.00D+00  THROCCDE=  1.00D-01  THROCCDE=  1.00D-01


 SETTING DKROLL         =         1.00000000                                  
 SETTING DKHO           =        10.00000000                                  
 SETTING DKHP           =         4.00000000                                  

 Variable memory set to  512000000 words,  buffer space   230000 words

 SETTING BASIS          =    USERDEF
 SETTING OE             =       -75.09181489                                  
 SETTING PDE            =     -5044.36637900                                  
 SETTING NE             =        54.00000000                                  

Geometry recognized as XYZ

 SETTING A1             =        14.00000000                                  
 SETTING B1             =         6.00000000                                  
 SETTING B2             =         6.00000000                                  
 SETTING A2             =         2.00000000                                  


 Recomputing integrals since basis changed


 Using spherical harmonics



 PROGRAM * SEWARD (Integral evaluation for generally contracted gaussian basis sets)     Author: Roland Lindh, 1990

 Geometry written to block  1 of record 700


 Point group  C2v 



 ATOMIC COORDINATES

 NR  ATOM    CHARGE       X              Y              Z

   1  PD     46.00    0.000000000    0.000000000    0.000000000
   2  O       8.00    0.000000000    0.000000000    3.089702214

 Bond lengths in Bohr (Angstrom)

 1-2  3.089702214
     ( 1.635000000)

 NUCLEAR CHARGE:                   54
 NUMBER OF PRIMITIVE AOS:         355
 NUMBER OF SYMMETRY AOS:          299
 NUMBER OF CONTRACTIONS:          182   (  73A1  +  43B1  +  43B2  +  23A2  )
 NUMBER OF CORE ORBITALS:          19   (  10A1  +   4B1  +   4B2  +   1A2  )
 NUMBER OF VALENCE ORBITALS:       10   (   5A1  +   2B1  +   2B2  +   1A2  )


 NUCLEAR REPULSION ENERGY  119.10532943

 One-electron integrals computed with SEWARD

 10nd-order Douglas-Kroll-Hess method activated. McWeeny DKH parametrization is used.

 Computing Douglas-Kroll / X2C integrals

 AO integral compression algorithm  1   Integral accuracy      1.0D-12

     165.937 MB (compressed) written to integral file ( 49.9%)

     Node minimum: 2.359 MB, node maximum: 11.272 MB


 NUMBER OF SORTED TWO-ELECTRON INTEGRALS:    1551252.     BUFFER LENGTH:  32768
 NUMBER OF SEGMENTS:   1  SEGMENT LENGTH:    1551252      RECORD LENGTH: 524288

 Memory used in sort:       2.11 MW

 SORT1 READ    41520926. AND WROTE     1011596. INTEGRALS IN      3 RECORDS. CPU TIME:     0.96 SEC, REAL TIME:     0.98 SEC
 SORT2 READ    23511430. AND WROTE    35715180. INTEGRALS IN    506 RECORDS. CPU TIME:     0.14 SEC, REAL TIME:     0.19 SEC

 Node minimum:     1548720.  Node maximum:     1570662. integrals

 OPERATOR DM      FOR CENTER  0  COORDINATES:    0.000000    0.000000    0.000000

 EXTRA SYMMETRY OF AOS IN SYMMETRY 1:   1 1 1 1 1 1 1 1 1 1   1 1 1 1 1 1 1 1 1 1   1 1 2 1 2 1 2 1 2 1   2 1 2 1 2 1 2 1 2 1
                                        2 1 2 1 2 1 3 2 1 3   2 1 3 2 1 1 1 1 1 1   1 1 1 1 2 1 2 1 2 1   2 1 2
 EXTRA SYMMETRY OF AOS IN SYMMETRY 2:   1 1 1 1 1 1 1 1 1 1   1 1 1 1 1 1 1 1 1 2   1 2 1 2 1 2 1 2 1 2   1 2 1 1 1 1 1 1 1 1
                                        2 1 2
 EXTRA SYMMETRY OF AOS IN SYMMETRY 3:   1 1 1 1 1 1 1 1 1 1   1 1 1 1 1 1 1 1 1 2   1 2 1 2 1 2 1 2 1 2   1 2 1 1 1 1 1 1 1 1
                                        2 1 2
 EXTRA SYMMETRY OF AOS IN SYMMETRY 4:   1 1 1 1 1 1 1 1 1 1   1 1 1 2 1 2 1 2 1 1   1 1 1

 Eigenvalues of metric

         1 0.885E-04 0.164E-03 0.259E-03 0.592E-03 0.153E-02 0.157E-02 0.330E-02 0.440E-02
         2 0.628E-03 0.154E-02 0.172E-02 0.668E-02 0.206E-01 0.319E-01 0.410E-01 0.489E-01
         3 0.628E-03 0.154E-02 0.172E-02 0.668E-02 0.206E-01 0.319E-01 0.410E-01 0.489E-01
         4 0.157E-02 0.223E-01 0.830E-01 0.958E-01 0.117E+00 0.148E+00 0.179E+00 0.297E+00


 **********************************************************************************************************************************
 DATASETS  * FILE   NREC   LENGTH (MB)   RECORD NAMES
              1      22       20.91       500      610      700      900      950      970     1000      129      960     1700   
                                          VAR    BASINP    GEOM    SYMINP    ZMAT    AOBASIS   BASIS     P2S    ABASIS    OPER   
                                         1101     1401     1411     1412     1650     1100     1400     1410     1200     1210   
                                          SR      EKINR    POTR     PVPR    MOLCAS      S      EKIN      POT      H0       H01  
                                         1080     1600   
                                         AOSYM     SMH  

 PROGRAMS   *        TOTAL       INT
 CPU TIMES  *         8.51      8.08
 REAL TIME  *         9.88 SEC
 DISK USED  *       435.32 MB      
 GA USED    *         0.00 MB       (max)       0.00 MB       (current)
 **********************************************************************************************************************************

 Density functional group PBE0=PBEX+PBEC
 Functional: PBEX(Automatically generated (new) PBEX)                          Gradient terms: 1
 Functional: PBEC(Automatically generated (new) PBEC)                          Gradient terms: 1
 Use grid at  1800.2
 

 Exact exchange will be calculated, factor:  0.2500

 Functional: PBEX                      Factor:  0.7500
 Functional: PBEC                      Factor:  1.0000
 
 Generated new metagrid on record  1800.2 with target accuracy 1.0D-06 and 5149 points in CPU time    0.0
 Computed new grid on record 1800.1 in CPU time    0.1
  152282 words reserved for DFT integration

 PROGRAM * RKS-SCF (Restricted open shell Kohn-Sham)     Authors: W. Meyer, H.-J. Werner, P.J. Knowles, 1993

 NUMBER OF ELECTRONS:      28+   26-    SPACE SYMMETRY=2    SPIN SYMMETRY: Triplet 
 CONVERGENCE THRESHOLDS:    1.00E-05 (Density)    1.08E-06 (Energy)
 MAX. NUMBER OF ITERATIONS:       60
 INTERPOLATION TYPE:            DIIS
 INTERPOLATION STEPS:              2 (START)      1 (STEP)
 LEVEL SHIFTS:                 -0.60 (CLOSED) -0.30 (OPEN) 

 Number of closed-shell orbitals:   26 (  13   5   6   2 )
 Number of open-shell orbitals:      2 (   1   1   0   0 )


 Use fine grid record 1800.2 for energy threshold  1.0D-06
 Orbital guess generated from atomic densities. Full valence occupancy:   15   6   6   2

 Molecular orbital dump at record        2100.2

 ITERATION    DDIFF          GRAD             ENERGY        2-EL.EN.            DIPOLE MOMENTS         DIIS   ORB.
    1      0.000D+00      0.000D+00     -5100.48844609   3811.995623    0.00000    0.00000   -8.77237    0    start
    2      0.000D+00      0.797D-01     -5096.71706730   4820.684423    0.00000    0.00000   14.09083    1    diag,B
    3      0.788D+00      0.190D+00     -5114.46718040   4610.514066    0.00000    0.00000    3.29746    2    diag,B
    4      0.491D-01      0.953D-01     -5117.28584169   4523.513965    0.00000    0.00000    2.98578    3    diag,B
    5      0.163D-01      0.613D-01     -5119.47866053   4444.865972    0.00000    0.00000   -0.38869    4    diag,B
    6      0.203D-01      0.302D-01     -5120.08699865   4383.058762    0.00000    0.00000   -0.97028    5    diag,B
    7      0.135D-01      0.944D-02     -5120.19285268   4352.268598    0.00000    0.00000   -1.55844    6    fixocc
    8      0.730D-02      0.117D-02     -5120.19966964   4347.760831    0.00000    0.00000   -1.62303    7    diag,B
    9      0.283D-02      0.853D-03     -5120.20212218   4347.318578    0.00000    0.00000   -1.55592    8    diag,B
   10      0.147D-02      0.497D-03     -5120.20332985   4347.505325    0.00000    0.00000   -1.48671    9    orth
   11      0.941D-03      0.178D-03     -5120.20370255   4347.342315    0.00000    0.00000   -1.46717    9    diag,B
   12      0.505D-03      0.991D-04     -5120.20390049   4347.168615    0.00000    0.00000   -1.43955    9    diag,B
   13      0.500D-03      0.392D-04     -5120.20394236   4347.090830    0.00000    0.00000   -1.42916    9    diag,B
   14      0.230D-03      0.201D-04     -5120.20395092   4347.060464    0.00000    0.00000   -1.42533    9    diag,B
   15      0.101D-03      0.109D-04     -5120.20395324   4347.058565    0.00000    0.00000   -1.42356    9    diag,B
   16      0.540D-04      0.506D-05     -5120.20395378   4347.052296    0.00000    0.00000   -1.42248    9    diag,B
   17      0.328D-04      0.202D-05     -5120.20395384   4347.051409    0.00000    0.00000   -1.42236    9    diag,B
   18      0.129D-04      0.837D-06     -5120.20395385   4347.051221    0.00000    0.00000   -1.42227    9    diag,B
   19      0.341D-05      0.380D-06     -5120.20395385   4347.051438    0.00000    0.00000   -1.42230    0    orth

 Final alpha occupancy:  14   6   6   2
 Final beta  occupancy:  13   5   6   2

 !RKS STATE 1.2 Energy              -5120.203953847173
 Nuclear energy                       119.10532943
 One-electron energy                -7297.05022577
 Two-electron energy                 2173.52571875
 Density functional                  -115.78477627     PBEX=-150.80908818 PBEC=  -2.67796013
 Virial quotient                       -0.88768279
 !RKS STATE 1.2 Dipole moment           0.00000000     0.00000000    -1.42230001
 Dipole moment /Debye                   0.00000000     0.00000000    -3.61488927

 Orbital energies:

         1.1          2.1          3.1          4.1          5.1          6.1          7.1          8.1          9.1         10.1
   -889.991286  -130.869530  -117.337947   -24.064350   -19.588783   -19.235320   -12.441138   -12.426316    -3.480152    -2.204552

        11.1         12.1         13.1         14.1         15.1         16.1
     -0.943893    -0.430566    -0.318657    -0.245926    -0.083643     0.015904

         1.2          2.2          3.2          4.2          5.2          6.2          7.2          8.2
   -117.332146   -19.575293   -12.439509    -2.168704    -0.408068    -0.284445    -0.006814     0.040316

         1.3          2.3          3.3          4.3          5.3          6.3          7.3          8.3
   -117.328945   -19.567624   -12.434747    -2.159285    -0.413866    -0.237358    -0.003414     0.042049

         1.4          2.4          3.4          4.4
    -12.426856    -0.318696     0.068481     0.250977

 HOMO      6.3    -0.237358 =      -6.4588eV
 LUMO     15.1    -0.083643 =      -2.2760eV
 LUMO-HOMO         0.153714 =       4.1828eV


 **********************************************************************************************************************************
 DATASETS  * FILE   NREC   LENGTH (MB)   RECORD NAMES
              1      23       20.91       500      610      700      900      950      970     1000      129      960     1700   
                                          VAR    BASINP    GEOM    SYMINP    ZMAT    AOBASIS   BASIS     P2S    ABASIS    OPER   
                                         1101     1401     1411     1412     1650     1100     1400     1410     1200     1210   
                                          SR      EKINR    POTR     PVPR    MOLCAS      S      EKIN      POT      H0       H01  
                                         1080     1600     1800   
                                         AOSYM     SMH     GRID   

              2       5        3.08       700     1000      520     1800     2100   
                                         GEOM     BASIS   MCVARS    GRID      RKS  

 PROGRAMS   *        TOTAL       RKS       INT
 CPU TIMES  *        10.79      2.28      8.08
 REAL TIME  *        12.44 SEC
 DISK USED  *         1.02 GB      
 SF USED    *         0.04 MB      
 GA USED    *         0.23 MB       (max)       0.23 MB       (current)
 **********************************************************************************************************************************


 PROGRAM * RHF-SCF (OPEN SHELL)       Authors: W. Meyer, H.-J. Werner


 NUMBER OF ELECTRONS:      28+   26-    SPACE SYMMETRY=2    SPIN SYMMETRY: Triplet 
 CONVERGENCE THRESHOLDS:    1.00E-05 (Density)    1.08E-07 (Energy)
 MAX. NUMBER OF ITERATIONS:       60
 INTERPOLATION TYPE:            DIIS
 INTERPOLATION STEPS:              2 (START)      1 (STEP)
 LEVEL SHIFTS:                 -0.60 (CLOSED) -0.30 (OPEN) 

 Number of closed-shell orbitals:   26 (  13   5   6   2 )
 Number of open-shell orbitals:      2 (   1   1   0   0 )


 Molecular orbitals read from record     2100.2  Type=RKS/CANONICAL (state 1.2)

 Molecular orbital dump at record        2101.2

 ITERATION    DDIFF          GRAD             ENERGY        2-EL.EN.            DIPOLE MOMENTS         DIIS   ORB.
    1      0.000D+00      0.000D+00     -5117.62891353   4120.631966    0.00000    0.00000   -1.42230    0    start
    2      0.000D+00      0.117D-01     -5117.65107928   4120.799570    0.00000    0.00000   -1.57718    1    diag,B
    3      0.759D-02      0.126D-02     -5117.65567775   4122.121902    0.00000    0.00000   -1.63338    2    diag,B
    4      0.124D-02      0.678D-03     -5117.65924627   4122.216918    0.00000    0.00000   -1.66536    3    diag,B
    5      0.948D-03      0.531D-03     -5117.66261979   4123.039733    0.00000    0.00000   -1.66677    4    diag,B
    6      0.970D-03      0.510D-03     -5117.66553652   4123.210835    0.00000    0.00000   -1.66990    5    diag,B
    7      0.896D-03      0.437D-03     -5117.67157017   4123.645434    0.00000    0.00000   -1.67244    6    diag,B
    8      0.268D-02      0.241D-03     -5117.67118410   4124.190391    0.00000    0.00000   -1.63342    7    orth
    9      0.598D-03      0.308D-03     -5117.67214439   4124.004925    0.00000    0.00000   -1.64707    8    diag,B
   10      0.102D-02      0.625D-04     -5117.67218391   4123.934444    0.00000    0.00000   -1.65154    9    diag,B
   11      0.216D-03      0.446D-04     -5117.67219409   4123.967488    0.00000    0.00000   -1.65145    9    diag,B
   12      0.970D-04      0.197D-04     -5117.67220016   4123.944663    0.00000    0.00000   -1.65379    9    diag,B
   13      0.846D-04      0.125D-04     -5117.67220212   4123.949521    0.00000    0.00000   -1.65388    9    diag,B
   14      0.322D-04      0.737D-05     -5117.67220336   4123.952956    0.00000    0.00000   -1.65398    9    diag,B
   15      0.246D-04      0.613D-05     -5117.67220426   4123.949567    0.00000    0.00000   -1.65454    9    diag,B
   16      0.259D-04      0.434D-05     -5117.67220490   4123.955225    0.00000    0.00000   -1.65448    9    diag,B
   17      0.222D-04      0.257D-05     -5117.67220516   4123.957411    0.00000    0.00000   -1.65452    9    diag,B
   18      0.152D-04      0.158D-05     -5117.67220525   4123.958415    0.00000    0.00000   -1.65440    9    orth
   19      0.116D-04      0.839D-06     -5117.67220527   4123.958565    0.00000    0.00000   -1.65432    9    diag,B
   20      0.384D-05      0.515D-06     -5117.67220527   4123.958451    0.00000    0.00000   -1.65431    0    orth

 Final alpha occupancy:  14   6   6   2
 Final beta  occupancy:  13   5   6   2

 !RHF STATE 1.2 Energy              -5117.672205267170
 Nuclear energy                       119.10532943
 One-electron energy                -7298.75676043
 Two-electron energy                 2061.97922573
 Virial quotient                       -0.88696539
 !RHF STATE 1.2 Dipole moment           0.00000000     0.00000000    -1.65430908
 Dipole moment /Debye                   0.00000000     0.00000000    -4.20455887

 Orbital energies:

         1.1          2.1          3.1          4.1          5.1          6.1          7.1          8.1          9.1         10.1
   -899.576027  -134.537412  -120.430616   -25.692180   -20.937168   -20.554506   -13.348250   -13.345138    -4.000313    -2.570126

        11.1         12.1         13.1         14.1         15.1         16.1
     -1.211912    -0.548881    -0.451539    -0.344094     0.000956     0.034020

         1.2          2.2          3.2          4.2          5.2          6.2          7.2          8.2
   -120.426644   -20.921348   -13.357487    -2.545778    -0.515219    -0.510032     0.023826     0.081048

         1.3          2.3          3.3          4.3          5.3          6.3          7.3          8.3
   -120.426036   -20.919403   -13.358209    -2.544967    -0.579054    -0.374725     0.024916     0.083279

         1.4          2.4          3.4          4.4
    -13.347410    -0.451715     0.097229     0.326806

 HOMO     14.1    -0.344094 =      -9.3633eV
 LUMO     15.1     0.000956 =       0.0260eV
 LUMO-HOMO         0.345050 =       9.3893eV


 **********************************************************************************************************************************
 DATASETS  * FILE   NREC   LENGTH (MB)   RECORD NAMES
              1      23       20.91       500      610      700      900      950      970     1000      129      960     1700   
                                          VAR    BASINP    GEOM    SYMINP    ZMAT    AOBASIS   BASIS     P2S    ABASIS    OPER   
                                         1101     1401     1411     1412     1650     1100     1400     1410     1200     1210   
                                          SR      EKINR    POTR     PVPR    MOLCAS      S      EKIN      POT      H0       H01  
                                         1080     1600     1800   
                                         AOSYM     SMH     GRID   

              2       6        5.96       700     1000      520     1800     2100     2101   
                                         GEOM     BASIS   MCVARS    GRID      RKS      RHF  

 PROGRAMS   *        TOTAL       RHF       RKS       INT
 CPU TIMES  *        11.40      0.61      2.28      8.08
 REAL TIME  *        13.29 SEC
 DISK USED  *         1.09 GB      
 SF USED    *         0.04 MB      
 GA USED    *         0.23 MB       (max)       0.23 MB       (current)
 **********************************************************************************************************************************
 SETTING BASIS          =    USERDEF


 Recomputing integrals since basis changed


 Using spherical harmonics



 PROGRAM * SEWARD (Integral evaluation for generally contracted gaussian basis sets)     Author: Roland Lindh, 1990

 Geometry written to block  1 of record 700


 Point group  C2v 



 ATOMIC COORDINATES

 NR  ATOM    CHARGE       X              Y              Z

   1  PD     46.00    0.000000000    0.000000000    0.000000000
   2  O       8.00    0.000000000    0.000000000    3.089702214

 Bond lengths in Bohr (Angstrom)

 1-2  3.089702214
     ( 1.635000000)

 NUCLEAR CHARGE:                   54
 NUMBER OF PRIMITIVE AOS:         370
 NUMBER OF SYMMETRY AOS:          313
 NUMBER OF CONTRACTIONS:          313   ( 138A1  +  71B1  +  71B2  +  33A2  )
 NUMBER OF CORE ORBITALS:          19   (  10A1  +   4B1  +   4B2  +   1A2  )
 NUMBER OF VALENCE ORBITALS:       10   (   5A1  +   2B1  +   2B2  +   1A2  )


 NUCLEAR REPULSION ENERGY  119.10532943

 One-electron integrals computed with SEWARD

 10nd-order Douglas-Kroll-Hess method activated. McWeeny DKH parametrization is used.

 Computing Douglas-Kroll / X2C integrals

 AO integral compression algorithm  1   Integral accuracy      1.0D-12

     854.065 MB (compressed) written to integral file ( 28.4%)

     Node minimum: 19.399 MB, node maximum: 94.372 MB


 NUMBER OF SORTED TWO-ELECTRON INTEGRALS:   13592913.     BUFFER LENGTH:  32768
 NUMBER OF SEGMENTS:   1  SEGMENT LENGTH:   13592913      RECORD LENGTH: 524288

 Memory used in sort:      14.15 MW

 SORT1 READ   375719576. AND WROTE     5579547. INTEGRALS IN     16 RECORDS. CPU TIME:     7.10 SEC, REAL TIME:     8.64 SEC
 SORT2 READ   128301946. AND WROTE   312994044. INTEGRALS IN   3335 RECORDS. CPU TIME:     0.75 SEC, REAL TIME:     1.06 SEC

 Node minimum:    13561530.  Node maximum:    13694643. integrals

 OPERATOR DM      FOR CENTER  0  COORDINATES:    0.000000    0.000000    0.000000

 EXTRA SYMMETRY OF AOS IN SYMMETRY 1:   1 1 1 1 1 1 1 1 1 1   1 1 1 1 1 1 1 1 1 1   1 1 1 1 1 1 1 1 1 1   1 1 1 1 1 1 1 1 1 1
                                        1 1 1 1 1 1 1 1 1 1   1 1 1 2 1 2 1 2 1 2   1 2 1 2 1 2 1 2 1 2   1 2 1 2 1 2 1 2 1 2
                                        1 2 1 2 1 2 1 2 1 2   1 2 1 2 1 3 2 1 3 2   1 3 2 1 1 1 1 1 1 1   1 1 1 1 1 1 1 1 1 1
                                        1 1 1 1 1 1 1 2 1 2   1 2 1 2 1 2 1 2
 EXTRA SYMMETRY OF AOS IN SYMMETRY 2:   1 1 1 1 1 1 1 1 1 1   1 1 1 1 1 1 1 1 1 1   1 1 1 1 1 1 1 1 1 1   1 1 1 1 1 1 1 1 1 1
                                        1 2 1 2 1 2 1 2 1 2   1 2 1 2 1 1 1 1 1 1   1 1 1 1 1 1 1 1 2 1   2
 EXTRA SYMMETRY OF AOS IN SYMMETRY 3:   1 1 1 1 1 1 1 1 1 1   1 1 1 1 1 1 1 1 1 1   1 1 1 1 1 1 1 1 1 1   1 1 1 1 1 1 1 1 1 1
                                        1 2 1 2 1 2 1 2 1 2   1 2 1 2 1 1 1 1 1 1   1 1 1 1 1 1 1 1 2 1   2
 EXTRA SYMMETRY OF AOS IN SYMMETRY 4:   1 1 1 1 1 1 1 1 1 1   1 1 1 1 1 1 1 1 1 1   1 1 2 1 2 1 2 1 1 1   1 1 1

 Eigenvalues of metric

         1 0.811E-06 0.898E-06 0.183E-05 0.867E-05 0.950E-05 0.101E-04 0.238E-04 0.333E-04
         2 0.945E-06 0.978E-06 0.930E-05 0.294E-03 0.470E-03 0.161E-02 0.214E-02 0.295E-02
         3 0.945E-06 0.978E-06 0.930E-05 0.294E-03 0.470E-03 0.161E-02 0.214E-02 0.295E-02
         4 0.950E-05 0.307E-03 0.302E-02 0.107E-01 0.287E-01 0.526E-01 0.832E-01 0.102E+00


 **********************************************************************************************************************************
 DATASETS  * FILE   NREC   LENGTH (MB)   RECORD NAMES
              1      22       21.98       500      610      700      900      950      970     1001      129      960     1700   
                                          VAR    BASINP    GEOM    SYMINP    ZMAT    AOBASIS   BASIS     P2S    ABASIS    OPER   
                                         1101     1401     1411     1412     1650     1100     1400     1410     1200     1210   
                                          SR      EKINR    POTR     PVPR    MOLCAS      S      EKIN      POT      H0       H01  
                                         1080     1600   
                                         AOSYM     SMH  

              2       7        6.13       700     1000      520     1800     2100     2101     1001   
                                         GEOM     BASIS   MCVARS    GRID      RKS      RHF     BASIS   

 PROGRAMS   *        TOTAL       INT       RHF       RKS       INT
 CPU TIMES  *        40.02     28.44      0.61      2.28      8.08
 REAL TIME  *        44.43 SEC
 DISK USED  *         3.05 GB      
 SF USED    *         0.04 MB      
 GA USED    *         0.23 MB       (max)       0.00 MB       (current)
 **********************************************************************************************************************************


 PROGRAM * RHF-SCF (OPEN SHELL)       Authors: W. Meyer, H.-J. Werner


 NUMBER OF ELECTRONS:      28+   26-    SPACE SYMMETRY=2    SPIN SYMMETRY: Triplet 
 CONVERGENCE THRESHOLDS:    1.00E-05 (Density)    1.08E-07 (Energy)
 MAX. NUMBER OF ITERATIONS:       60
 INTERPOLATION TYPE:            DIIS
 INTERPOLATION STEPS:              2 (START)      1 (STEP)
 LEVEL SHIFTS:                 -0.60 (CLOSED) -0.30 (OPEN) 

 Number of closed-shell orbitals:   26 (  13   5   6   2 )
 Number of open-shell orbitals:      2 (   1   1   0   0 )


 Molecular orbitals read from record     2101.2  Type=RHF/CANONICAL (state 1.2)
 
 Present basis size:     138  71  71  33
 Previous basis size:     73  43  43  23
 Previous occupation:     14   6   6   2
 Previous closed-shells:  13   5   6   2
 Previous core-orbitals:  10   4   4   1
 Present occupation:      14   6   6   2
 Present closed-shells:   13   5   6   2
 Present core-orbitals:   10   4   4   1
 Wavefunction symmetry:    2   Triplet 

 Orbital overlap <old|new>:  < 1.1| 1.1> = 1.000000   < 2.1| 2.1> = 1.000000   < 3.1| 3.1> = 1.000000   < 4.1| 4.1> = 1.000000
                             < 5.1| 5.1> = 1.000000   < 6.1| 6.1> = 1.000000   < 7.1| 7.1> = 1.000000   < 8.1| 8.1> = 1.000000
                             < 9.1| 9.1> = 1.000000   <10.1|10.1> = 1.000000   < 1.2| 1.2> = 1.000000   < 2.2| 2.2> = 1.000000
                             < 3.2| 3.2> = 1.000000   < 4.2| 4.2> = 1.000000   < 1.3| 1.3> = 1.000000   < 2.3| 2.3> = 1.000000
                             < 3.3| 3.3> = 1.000000   < 4.3| 4.3> = 1.000000   < 1.4| 1.4> = 1.000000   <11.1|11.1> = 1.000000
                             <12.1|12.1> = 1.000000   <13.1|13.1> = 1.000000   < 5.2| 5.2> = 1.000000   < 5.3| 5.3> = 1.000000
                             < 6.3| 6.3> = 1.000000   < 2.4| 2.4> = 1.000000   <14.1|14.1> = 1.000000   < 6.2| 6.2> = 1.000000

 Molecular orbital dump at record        2102.2

 ITERATION    DDIFF          GRAD             ENERGY        2-EL.EN.            DIPOLE MOMENTS         DIIS   ORB.
    1      0.000D+00      0.000D+00     -5117.67221945   4123.958446    0.00000    0.00000   -1.65431    0    start
    2      0.000D+00      0.566D-01     -5117.67337927   4124.015047    0.00000    0.00000   -1.65442    1    diag,B
    3      0.671D-02      0.116D-03     -5117.67338346   4124.003856    0.00000    0.00000   -1.65434    2    diag,B
    4      0.706D-03      0.116D-04     -5117.67338367   4124.009685    0.00000    0.00000   -1.65437    3    diag,B
    5      0.139D-03      0.293D-05     -5117.67338369   4124.007024    0.00000    0.00000   -1.65429    4    diag,B
    6      0.305D-04      0.104D-05     -5117.67338369   4124.008346    0.00000    0.00000   -1.65426    5    diag,B
    7      0.656D-05      0.392D-06     -5117.67338369   4124.007730    0.00000    0.00000   -1.65424    0    orth

 Final alpha occupancy:  14   6   6   2
 Final beta  occupancy:  13   5   6   2

 !RHF STATE 1.2 Energy              -5117.673383693958
 Nuclear energy                       119.10532943
 One-electron energy                -7298.78257817
 Two-electron energy                 2062.00386505
 Virial quotient                       -0.88654115
 !RHF STATE 1.2 Dipole moment           0.00000000     0.00000000    -1.65423906
 Dipole moment /Debye                   0.00000000     0.00000000    -4.20438091

 Orbital energies:

         1.1          2.1          3.1          4.1          5.1          6.1          7.1          8.1          9.1         10.1
   -899.569496  -134.537004  -120.429646   -25.692188   -20.937072   -20.552840   -13.348290   -13.345167    -4.000291    -2.570067

        11.1         12.1         13.1         14.1         15.1         16.1
     -1.211749    -0.548929    -0.451526    -0.344069     0.000949     0.033949

         1.2          2.2          3.2          4.2          5.2          6.2          7.2          8.2
   -120.425689   -20.921256   -13.357522    -2.545742    -0.515194    -0.510014     0.023810     0.080873

         1.3          2.3          3.3          4.3          5.3          6.3          7.3          8.3
   -120.425086   -20.919311   -13.358245    -2.544930    -0.579075    -0.374757     0.024899     0.083076

         1.4          2.4          3.4          4.4
    -13.347458    -0.451701     0.096444     0.319228

 HOMO     14.1    -0.344069 =      -9.3626eV
 LUMO     15.1     0.000949 =       0.0258eV
 LUMO-HOMO         0.345019 =       9.3884eV


 **********************************************************************************************************************************
 DATASETS  * FILE   NREC   LENGTH (MB)   RECORD NAMES
              1      22       21.98       500      610      700      900      950      970     1001      129      960     1700   
                                          VAR    BASINP    GEOM    SYMINP    ZMAT    AOBASIS   BASIS     P2S    ABASIS    OPER   
                                         1101     1401     1411     1412     1650     1100     1400     1410     1200     1210   
                                          SR      EKINR    POTR     PVPR    MOLCAS      S      EKIN      POT      H0       H01  
                                         1080     1600   
                                         AOSYM     SMH  

              2       8        9.48       700     1000      520     1800     2100     2101     1001     2102   
                                         GEOM     BASIS   MCVARS    GRID      RKS      RHF     BASIS     RHF  

 PROGRAMS   *        TOTAL       RHF       INT       RHF       RKS       INT
 CPU TIMES  *        40.95      0.93     28.44      0.61      2.28      8.08
 REAL TIME  *        45.58 SEC
 DISK USED  *         3.21 GB      
 SF USED    *         0.12 MB      
 GA USED    *         0.23 MB       (max)       0.00 MB       (current)
 **********************************************************************************************************************************
 SETTING SCF            =     -5117.67338369  AU                              
 SETTING _CC_NORM_MAX   =         2.00000000                                  


 PROGRAM * CCSD (Restricted open-shell coupled cluster)     Authors: C. Hampel, H.-J. Werner, 1991, M. Deegan, P.J. Knowles, 1992


 Convergence thresholds:  THRVAR = 1.00D-08  THRDEN = 1.08D-06

 CCSD(T)     terms to be evaluated (factor= 1.000)


 Number of closed-shell orbitals:  26 (  13   5   6   2 )
 Number of active  orbitals:        2 (   1   1   0   0 )
 Number of external orbitals:     285 ( 124  65  65  31 )

 Memory could be reduced to 297.12 Mwords without degradation in triples

 Number of N-1 electron functions:              54
 Number of N-2 electron functions:            1431
 Number of singly external CSFs:              5005
 Number of doubly external CSFs:          23014321
 Total number of CSFs:                    23019326

 Molecular orbitals read from record     2102.2  Type=RHF/CANONICAL (state 1.2)

 Integral transformation finished. Total CPU:  14.08 sec, npass=  1  Memory used:  32.53 MW

 Starting RMP2 calculation

 Wavefunction is spin-projected

 ITER.      SQ.NORM     CORR.ENERGY   TOTAL ENERGY   ENERGY CHANGE        DEN1      VAR(S)    VAR(P)  DIIS     TIME
   1      1.20831925    -1.86775565 -5119.54113934    -1.86775565    -0.00187108  0.28D-04  0.68D-03  1  1    29.54
   2      1.21003693    -1.86974503 -5119.54312872    -0.00198938    -0.00000879  0.90D-06  0.45D-05  2  2    37.63
   3      1.21015238    -1.86981519 -5119.54319889    -0.00007016    -0.00000009  0.31D-07  0.38D-07  3  3    43.74
   4      1.21015748    -1.86981645 -5119.54320015    -0.00000126    -0.00000000  0.67D-09  0.52D-09  4  4    49.09
   5      1.21015752    -1.86981636 -5119.54320006     0.00000009    -0.00000000  0.15D-10  0.67D-11  5  5    54.64

 Norm of t1 vector:      0.04482606      S-energy:    -0.00507890      T1 diagnostic:  0.00057062
 Norm of t2 vector:      0.45623256      P-energy:    -1.86473747
                                         Alpha-Beta:  -1.27378606
                                         Alpha-Alpha: -0.31331485
                                         Beta-Beta:   -0.27763656

 Spin contamination <S**2-Sz**2-Sz>     0.00000000
  Reference energy                  -5117.673383693956
  RHF-RMP2 correlation energy          -1.869816364224
 !RHF-RMP2 energy                   -5119.543200058180
 (NB above energy spin projected)

 Starting RCCSD calculation

 ITER.      SQ.NORM     CORR.ENERGY   TOTAL ENERGY   ENERGY CHANGE        DEN1      VAR(S)    VAR(P)  DIIS     TIME
   1      1.17824682    -1.74850347 -5119.42188716    -1.74850347    -0.04378564  0.14D-01  0.56D-02  0  0   117.10
   2      1.20511040    -1.78844033 -5119.46182403    -0.03993687    -0.00583111  0.66D-03  0.20D-02  1  1   185.51
   3      1.21779948    -1.78398627 -5119.45736996     0.00445407    -0.00184532  0.19D-02  0.16D-03  2  2   243.65
   4      1.23561480    -1.78743777 -5119.46082147    -0.00345151    -0.00097966  0.92D-03  0.11D-03  3  3   304.36
   5      1.28763618    -1.79391397 -5119.46729767    -0.00647620    -0.00022219  0.20D-03  0.23D-04  4  4   367.75
   6      1.32067015    -1.79619267 -5119.46957637    -0.00227870    -0.00003195  0.21D-04  0.64D-05  5  5   434.80
   7      1.32685704    -1.79652742 -5119.46991112    -0.00033475    -0.00000703  0.52D-05  0.16D-05  6  6   504.93
   8      1.32802331    -1.79658589 -5119.46996958    -0.00005846    -0.00000193  0.18D-05  0.34D-06  6  1   573.31
   9      1.32851915    -1.79659960 -5119.46998329    -0.00001371    -0.00000052  0.54D-06  0.76D-07  6  2   639.27
  10      1.32895506    -1.79663319 -5119.47001689    -0.00003359    -0.00000020  0.20D-06  0.30D-07  6  4   702.35
  11      1.32906728    -1.79662338 -5119.47000708     0.00000981    -0.00000007  0.62D-07  0.13D-07  6  3   765.59
  12      1.32915269    -1.79662463 -5119.47000832    -0.00000125    -0.00000002  0.13D-07  0.41D-08  6  5   823.77
  13      1.32914295    -1.79661846 -5119.47000215     0.00000617    -0.00000000  0.32D-08  0.67D-09  6  6   884.96
  14      1.32912813    -1.79661571 -5119.46999941     0.00000274    -0.00000000  0.11D-08  0.27D-09  6  2   947.76
  15      1.32911383    -1.79661500 -5119.46999869     0.00000071    -0.00000000  0.45D-09  0.55D-10  6  1  1012.25

 Norm of t1 vector:      0.33204669      S-energy:    -0.00550340      T1 diagnostic:  0.03147792
                                                                       D1 diagnostic:  0.17141953
 Norm of t2 vector:      0.46782350      P-energy:    -1.79111160
                                         Alpha-Beta:  -1.25396198
                                         Alpha-Alpha: -0.27886548
                                         Beta-Beta:   -0.25828415

 Singles amplitudes (print threshold =  0.500E-01):

         I         SYM. A    A   T(IA) [Alpha-Alpha]

        14         1         2     -0.07122497
        14         1         4      0.06741460
        14         1         8      0.05082366
 
         I         SYM. A    A   T(IA) [Beta-Beta]

        12         1         1     -0.12597861
        19         2         1      0.24242059

 Doubles amplitudes (print threshold =  0.500E-01):

         I         J         SYM. A    SYM. B    A         B      T(IJ, AB) [Beta-Beta]

        19        12         1         2         1         1      0.08449663
        19        12         2         1         1         1     -0.08449663

 Spin contamination <S**2-Sz**2-Sz>     0.00000000

 Memory could be reduced to 332.82 Mwords without degradation in triples
 

  Correlated core orbitals:             1.1       2.1       3.1       4.1       5.1       6.1       7.1       8.1       9.1      10.1
                                        1.2       2.2       3.2       4.2       1.3       2.3       3.3       4.3       1.4
  Orbital energies:                  -899.5702 -134.5412 -120.4353  -25.6954  -20.9437  -20.5701  -13.3530  -13.3578   -4.0243   -2.6159
                                     -120.4288  -20.9228  -13.3631   -2.5645 -120.4278  -20.9203  -13.3605   -2.5609  -13.3486
 
  RCCSD core-core energy               -0.878072714525
  RCCSD core-valence energy            -0.335337210173
  RCCSD valence correlation energy     -0.583205076025
 

 RESULTS
 =======

  Reference energy                  -5117.673383693956
  RCCSD singles energy                 -0.005503399027
  RCCSD pair energy                    -1.791111601696
  RCCSD correlation energy             -1.796615000723
  Triples (T) contribution             -0.048377301289
  Total correlation energy             -1.844992302012
 
  RHF-RCCSD energy                  -5119.469998694679
  RHF-RCCSD[T] energy               -5119.525023503769
  RHF-RCCSD-T energy                -5119.518604952395
 !RHF-RCCSD(T) energy               -5119.518375995968

 Program statistics:

 Available memory in ccsd:               511993348
 Min. memory needed in ccsd:              63428111
 Max. memory used in ccsd:                93195415
 Max. memory used in cckext:              75822577 (15 integral passes)
 Max. memory used in cckint:              32526328 ( 1 integral passes)



 **********************************************************************************************************************************
 DATASETS  * FILE   NREC   LENGTH (MB)   RECORD NAMES
              1      22       21.98       500      610      700      900      950      970     1001      129      960     1700   
                                          VAR    BASINP    GEOM    SYMINP    ZMAT    AOBASIS   BASIS     P2S    ABASIS    OPER   
                                         1101     1401     1411     1412     1650     1100     1400     1410     1200     1210   
                                          SR      EKINR    POTR     PVPR    MOLCAS      S      EKIN      POT      H0       H01  
                                         1080     1600   
                                         AOSYM     SMH  

              2       8        9.48       700     1000      520     1800     2100     2101     1001     2102   
                                         GEOM     BASIS   MCVARS    GRID      RKS      RHF     BASIS     RHF  

 PROGRAMS   *        TOTAL  RCCSD(T)       RHF       INT       RHF       RKS       INT
 CPU TIMES  *      1694.72   1653.68      0.93     28.44      0.61      2.28      8.08
 REAL TIME  *      2895.47 SEC
 DISK USED  *        70.52 GB      
 SF USED    *         6.58 GB      
 GA USED    *         0.23 MB       (max)       0.00 MB       (current)
 **********************************************************************************************************************************
 SETTING CCSD           =     -5119.51837600  AU                              
 SETTING BE             =        -0.06018211  AU                              
 Output type csv         
                                                                                                                                                                                                                                                                

         SCF,CCSD,BE
   -5117.673384,   -5119.518376,   -0.06018211
                                                  

 RCCSD(T)/USERDEF energy=  -5119.518375995968

        RCCSD(T)        RHF-SCF         RHF-SCF         RKS-SCF 
  -5119.51837600  -5117.67338369  -5117.67220527  -5120.20395385
 **********************************************************************************************************************************
 Molpro calculation terminated
 Variable memory released
