/global/cscratch1/sd/bkincaid/cutoffs/W/250-610/runs/scf_390

     Program PWSCF v.6.4.1 starts on 17Jan2022 at 19:50: 2 

     This program is part of the open-source Quantum ESPRESSO suite
     for quantum simulation of materials; please cite
         "P. Giannozzi et al., J. Phys.:Condens. Matter 21 395502 (2009);
         "P. Giannozzi et al., J. Phys.:Condens. Matter 29 465901 (2017);
          URL http://www.quantum-espresso.org", 
     in publications or presentations arising from this work. More details at
     http://www.quantum-espresso.org/quote

     Parallel version (MPI & OpenMP), running on      32 processor cores
     Number of MPI processes:                32
     Threads/MPI process:                     1

     MPI processes distributed on     1 nodes
     R & G space division:  proc/nbgrp/npool/nimage =      32
     Reading input from scf_390.in

     Current dimensions of program PWSCF are:
     Max number of different atomic species (ntypx) = 10
     Max number of k-points (npk) =  40000
     Max angular momentum in pseudopotentials (lmaxx) =  3

     IMPORTANT: XC functional enforced from input :
     Exchange-correlation      = PBE ( 1  4  3  4 0 0)
     Any further DFT definition will be discarded
     Please, verify this is what you really want


     gamma-point specific algorithms are used

     Subspace diagonalization in iterative solution of the eigenvalue problem:
     one sub-group per band group will be used
     scalapack distributed-memory algorithm (size of sub-group:  4*  4 procs)

     Message from routine setup:
     DEPRECATED: symmetry with ibrav=0, use correct ibrav instead
 
     Parallelization info
     --------------------
     sticks:   dense  smooth     PW     G-vecs:    dense   smooth      PW
     Min        1993    1993    497               379145   379145   47390
     Max        1996    1996    500               379156   379156   47404
     Sum       63825   63825  15965             12132741 12132741 1516691
 


     bravais-lattice index     =            0
     lattice parameter (alat)  =      22.6767  a.u.
     unit-cell volume          =   11661.1222 (a.u.)^3
     number of atoms/cell      =            1
     number of atomic types    =            1
     number of electrons       =        14.00 (up:   9.00, down:   5.00)
     number of Kohn-Sham states=           12
     kinetic-energy cutoff     =     390.0000  Ry
     charge density cutoff     =    1560.0000  Ry
     convergence threshold     =      1.0E-06
     mixing beta               =       0.7000
     number of iterations used =            8  plain     mixing
     Exchange-correlation      = PBE ( 1  4  3  4 0 0)

     celldm(1)=  22.676714  celldm(2)=   0.000000  celldm(3)=   0.000000
     celldm(4)=   0.000000  celldm(5)=   0.000000  celldm(6)=   0.000000

     crystal axes: (cart. coord. in units of alat)
               a(1) = (   1.000000   0.000000   0.000000 )  
               a(2) = (   0.000000   1.000000   0.000000 )  
               a(3) = (   0.000000   0.000000   1.000000 )  

     reciprocal axes: (cart. coord. in units 2 pi/alat)
               b(1) = (  1.000000  0.000000  0.000000 )  
               b(2) = (  0.000000  1.000000  0.000000 )  
               b(3) = (  0.000000  0.000000  1.000000 )  


     PseudoPot. # 1 for W  read from file:
     ./W.upf
     MD5 check sum: 4ed05a8c0c5f577ff01fd4795b4ecf91
     Pseudo is Norm-conserving, Zval = 14.0
     Generated by new atomic code, or converted to UPF format
     Using radial grid of 1187 points,  3 beta functions with: 
                l(1) =   0
                l(2) =   2
                l(3) =   3

     atomic species   valence    mass     pseudopotential
        W             14.00   183.85000     W ( 1.00)

     Starting magnetic structure 
     atomic species   magnetization
        W            0.500

     48 Sym. Ops., with inversion, found


                                    s                        frac. trans.

      isym =  1     identity                                     

 cryst.   s( 1) = (     1          0          0      )
                  (     0          1          0      )
                  (     0          0          1      )

 cart.    s( 1) = (  1.0000000  0.0000000  0.0000000 )
                  (  0.0000000  1.0000000  0.0000000 )
                  (  0.0000000  0.0000000  1.0000000 )


      isym =  2     180 deg rotation - cart. axis [0,0,1]        

 cryst.   s( 2) = (    -1          0          0      )
                  (     0         -1          0      )
                  (     0          0          1      )

 cart.    s( 2) = ( -1.0000000  0.0000000  0.0000000 )
                  (  0.0000000 -1.0000000  0.0000000 )
                  (  0.0000000  0.0000000  1.0000000 )


      isym =  3     180 deg rotation - cart. axis [0,1,0]        

 cryst.   s( 3) = (    -1          0          0      )
                  (     0          1          0      )
                  (     0          0         -1      )

 cart.    s( 3) = ( -1.0000000  0.0000000  0.0000000 )
                  (  0.0000000  1.0000000  0.0000000 )
                  (  0.0000000  0.0000000 -1.0000000 )


      isym =  4     180 deg rotation - cart. axis [1,0,0]        

 cryst.   s( 4) = (     1          0          0      )
                  (     0         -1          0      )
                  (     0          0         -1      )

 cart.    s( 4) = (  1.0000000  0.0000000  0.0000000 )
                  (  0.0000000 -1.0000000  0.0000000 )
                  (  0.0000000  0.0000000 -1.0000000 )


      isym =  5     180 deg rotation - cart. axis [1,1,0]        

 cryst.   s( 5) = (     0          1          0      )
                  (     1          0          0      )
                  (     0          0         -1      )

 cart.    s( 5) = (  0.0000000  1.0000000  0.0000000 )
                  (  1.0000000  0.0000000  0.0000000 )
                  (  0.0000000  0.0000000 -1.0000000 )


      isym =  6     180 deg rotation - cart. axis [1,-1,0]       

 cryst.   s( 6) = (     0         -1          0      )
                  (    -1          0          0      )
                  (     0          0         -1      )

 cart.    s( 6) = (  0.0000000 -1.0000000  0.0000000 )
                  ( -1.0000000  0.0000000  0.0000000 )
                  (  0.0000000  0.0000000 -1.0000000 )


      isym =  7      90 deg rotation - cart. axis [0,0,-1]       

 cryst.   s( 7) = (     0         -1          0      )
                  (     1          0          0      )
                  (     0          0          1      )

 cart.    s( 7) = (  0.0000000  1.0000000  0.0000000 )
                  ( -1.0000000  0.0000000  0.0000000 )
                  (  0.0000000  0.0000000  1.0000000 )


      isym =  8      90 deg rotation - cart. axis [0,0,1]        

 cryst.   s( 8) = (     0          1          0      )
                  (    -1          0          0      )
                  (     0          0          1      )

 cart.    s( 8) = (  0.0000000 -1.0000000  0.0000000 )
                  (  1.0000000  0.0000000  0.0000000 )
                  (  0.0000000  0.0000000  1.0000000 )


      isym =  9     180 deg rotation - cart. axis [1,0,1]        

 cryst.   s( 9) = (     0          0          1      )
                  (     0         -1          0      )
                  (     1          0          0      )

 cart.    s( 9) = (  0.0000000  0.0000000  1.0000000 )
                  (  0.0000000 -1.0000000  0.0000000 )
                  (  1.0000000  0.0000000  0.0000000 )


      isym = 10     180 deg rotation - cart. axis [-1,0,1]       

 cryst.   s(10) = (     0          0         -1      )
                  (     0         -1          0      )
                  (    -1          0          0      )

 cart.    s(10) = (  0.0000000  0.0000000 -1.0000000 )
                  (  0.0000000 -1.0000000  0.0000000 )
                  ( -1.0000000  0.0000000  0.0000000 )


      isym = 11      90 deg rotation - cart. axis [0,1,0]        

 cryst.   s(11) = (     0          0         -1      )
                  (     0          1          0      )
                  (     1          0          0      )

 cart.    s(11) = (  0.0000000  0.0000000  1.0000000 )
                  (  0.0000000  1.0000000  0.0000000 )
                  ( -1.0000000  0.0000000  0.0000000 )


      isym = 12      90 deg rotation - cart. axis [0,-1,0]       

 cryst.   s(12) = (     0          0          1      )
                  (     0          1          0      )
                  (    -1          0          0      )

 cart.    s(12) = (  0.0000000  0.0000000 -1.0000000 )
                  (  0.0000000  1.0000000  0.0000000 )
                  (  1.0000000  0.0000000  0.0000000 )


      isym = 13     180 deg rotation - cart. axis [0,1,1]        

 cryst.   s(13) = (    -1          0          0      )
                  (     0          0          1      )
                  (     0          1          0      )

 cart.    s(13) = ( -1.0000000  0.0000000  0.0000000 )
                  (  0.0000000  0.0000000  1.0000000 )
                  (  0.0000000  1.0000000  0.0000000 )


      isym = 14     180 deg rotation - cart. axis [0,1,-1]       

 cryst.   s(14) = (    -1          0          0      )
                  (     0          0         -1      )
                  (     0         -1          0      )

 cart.    s(14) = ( -1.0000000  0.0000000  0.0000000 )
                  (  0.0000000  0.0000000 -1.0000000 )
                  (  0.0000000 -1.0000000  0.0000000 )


      isym = 15      90 deg rotation - cart. axis [-1,0,0]       

 cryst.   s(15) = (     1          0          0      )
                  (     0          0         -1      )
                  (     0          1          0      )

 cart.    s(15) = (  1.0000000  0.0000000  0.0000000 )
                  (  0.0000000  0.0000000  1.0000000 )
                  (  0.0000000 -1.0000000  0.0000000 )


      isym = 16      90 deg rotation - cart. axis [1,0,0]        

 cryst.   s(16) = (     1          0          0      )
                  (     0          0          1      )
                  (     0         -1          0      )

 cart.    s(16) = (  1.0000000  0.0000000  0.0000000 )
                  (  0.0000000  0.0000000 -1.0000000 )
                  (  0.0000000  1.0000000  0.0000000 )


      isym = 17     120 deg rotation - cart. axis [-1,-1,-1]     

 cryst.   s(17) = (     0          0          1      )
                  (     1          0          0      )
                  (     0          1          0      )

 cart.    s(17) = (  0.0000000  1.0000000  0.0000000 )
                  (  0.0000000  0.0000000  1.0000000 )
                  (  1.0000000  0.0000000  0.0000000 )


      isym = 18     120 deg rotation - cart. axis [-1,1,1]       

 cryst.   s(18) = (     0          0         -1      )
                  (    -1          0          0      )
                  (     0          1          0      )

 cart.    s(18) = (  0.0000000 -1.0000000  0.0000000 )
                  (  0.0000000  0.0000000  1.0000000 )
                  ( -1.0000000  0.0000000  0.0000000 )


      isym = 19     120 deg rotation - cart. axis [1,1,-1]       

 cryst.   s(19) = (     0          0         -1      )
                  (     1          0          0      )
                  (     0         -1          0      )

 cart.    s(19) = (  0.0000000  1.0000000  0.0000000 )
                  (  0.0000000  0.0000000 -1.0000000 )
                  ( -1.0000000  0.0000000  0.0000000 )


      isym = 20     120 deg rotation - cart. axis [1,-1,1]       

 cryst.   s(20) = (     0          0          1      )
                  (    -1          0          0      )
                  (     0         -1          0      )

 cart.    s(20) = (  0.0000000 -1.0000000  0.0000000 )
                  (  0.0000000  0.0000000 -1.0000000 )
                  (  1.0000000  0.0000000  0.0000000 )


      isym = 21     120 deg rotation - cart. axis [1,1,1]        

 cryst.   s(21) = (     0          1          0      )
                  (     0          0          1      )
                  (     1          0          0      )

 cart.    s(21) = (  0.0000000  0.0000000  1.0000000 )
                  (  1.0000000  0.0000000  0.0000000 )
                  (  0.0000000  1.0000000  0.0000000 )


      isym = 22     120 deg rotation - cart. axis [-1,1,-1]      

 cryst.   s(22) = (     0         -1          0      )
                  (     0          0         -1      )
                  (     1          0          0      )

 cart.    s(22) = (  0.0000000  0.0000000  1.0000000 )
                  ( -1.0000000  0.0000000  0.0000000 )
                  (  0.0000000 -1.0000000  0.0000000 )


      isym = 23     120 deg rotation - cart. axis [1,-1,-1]      

 cryst.   s(23) = (     0         -1          0      )
                  (     0          0          1      )
                  (    -1          0          0      )

 cart.    s(23) = (  0.0000000  0.0000000 -1.0000000 )
                  ( -1.0000000  0.0000000  0.0000000 )
                  (  0.0000000  1.0000000  0.0000000 )


      isym = 24     120 deg rotation - cart. axis [-1,-1,1]      

 cryst.   s(24) = (     0          1          0      )
                  (     0          0         -1      )
                  (    -1          0          0      )

 cart.    s(24) = (  0.0000000  0.0000000 -1.0000000 )
                  (  1.0000000  0.0000000  0.0000000 )
                  (  0.0000000 -1.0000000  0.0000000 )


      isym = 25     inversion                                    

 cryst.   s(25) = (    -1          0          0      )
                  (     0         -1          0      )
                  (     0          0         -1      )

 cart.    s(25) = ( -1.0000000  0.0000000  0.0000000 )
                  (  0.0000000 -1.0000000  0.0000000 )
                  (  0.0000000  0.0000000 -1.0000000 )


      isym = 26     inv. 180 deg rotation - cart. axis [0,0,1]   

 cryst.   s(26) = (     1          0          0      )
                  (     0          1          0      )
                  (     0          0         -1      )

 cart.    s(26) = (  1.0000000  0.0000000  0.0000000 )
                  (  0.0000000  1.0000000  0.0000000 )
                  (  0.0000000  0.0000000 -1.0000000 )


      isym = 27     inv. 180 deg rotation - cart. axis [0,1,0]   

 cryst.   s(27) = (     1          0          0      )
                  (     0         -1          0      )
                  (     0          0          1      )

 cart.    s(27) = (  1.0000000  0.0000000  0.0000000 )
                  (  0.0000000 -1.0000000  0.0000000 )
                  (  0.0000000  0.0000000  1.0000000 )


      isym = 28     inv. 180 deg rotation - cart. axis [1,0,0]   

 cryst.   s(28) = (    -1          0          0      )
                  (     0          1          0      )
                  (     0          0          1      )

 cart.    s(28) = ( -1.0000000  0.0000000  0.0000000 )
                  (  0.0000000  1.0000000  0.0000000 )
                  (  0.0000000  0.0000000  1.0000000 )


      isym = 29     inv. 180 deg rotation - cart. axis [1,1,0]   

 cryst.   s(29) = (     0         -1          0      )
                  (    -1          0          0      )
                  (     0          0          1      )

 cart.    s(29) = (  0.0000000 -1.0000000  0.0000000 )
                  ( -1.0000000  0.0000000  0.0000000 )
                  (  0.0000000  0.0000000  1.0000000 )


      isym = 30     inv. 180 deg rotation - cart. axis [1,-1,0]  

 cryst.   s(30) = (     0          1          0      )
                  (     1          0          0      )
                  (     0          0          1      )

 cart.    s(30) = (  0.0000000  1.0000000  0.0000000 )
                  (  1.0000000  0.0000000  0.0000000 )
                  (  0.0000000  0.0000000  1.0000000 )


      isym = 31     inv.  90 deg rotation - cart. axis [0,0,-1]  

 cryst.   s(31) = (     0          1          0      )
                  (    -1          0          0      )
                  (     0          0         -1      )

 cart.    s(31) = (  0.0000000 -1.0000000  0.0000000 )
                  (  1.0000000  0.0000000  0.0000000 )
                  (  0.0000000  0.0000000 -1.0000000 )


      isym = 32     inv.  90 deg rotation - cart. axis [0,0,1]   

 cryst.   s(32) = (     0         -1          0      )
                  (     1          0          0      )
                  (     0          0         -1      )

 cart.    s(32) = (  0.0000000  1.0000000  0.0000000 )
                  ( -1.0000000  0.0000000  0.0000000 )
                  (  0.0000000  0.0000000 -1.0000000 )


      isym = 33     inv. 180 deg rotation - cart. axis [1,0,1]   

 cryst.   s(33) = (     0          0         -1      )
                  (     0          1          0      )
                  (    -1          0          0      )

 cart.    s(33) = (  0.0000000  0.0000000 -1.0000000 )
                  (  0.0000000  1.0000000  0.0000000 )
                  ( -1.0000000  0.0000000  0.0000000 )


      isym = 34     inv. 180 deg rotation - cart. axis [-1,0,1]  

 cryst.   s(34) = (     0          0          1      )
                  (     0          1          0      )
                  (     1          0          0      )

 cart.    s(34) = (  0.0000000  0.0000000  1.0000000 )
                  (  0.0000000  1.0000000  0.0000000 )
                  (  1.0000000  0.0000000  0.0000000 )


      isym = 35     inv.  90 deg rotation - cart. axis [0,1,0]   

 cryst.   s(35) = (     0          0          1      )
                  (     0         -1          0      )
                  (    -1          0          0      )

 cart.    s(35) = (  0.0000000  0.0000000 -1.0000000 )
                  (  0.0000000 -1.0000000  0.0000000 )
                  (  1.0000000  0.0000000  0.0000000 )


      isym = 36     inv.  90 deg rotation - cart. axis [0,-1,0]  

 cryst.   s(36) = (     0          0         -1      )
                  (     0         -1          0      )
                  (     1          0          0      )

 cart.    s(36) = (  0.0000000  0.0000000  1.0000000 )
                  (  0.0000000 -1.0000000  0.0000000 )
                  ( -1.0000000  0.0000000  0.0000000 )


      isym = 37     inv. 180 deg rotation - cart. axis [0,1,1]   

 cryst.   s(37) = (     1          0          0      )
                  (     0          0         -1      )
                  (     0         -1          0      )

 cart.    s(37) = (  1.0000000  0.0000000  0.0000000 )
                  (  0.0000000  0.0000000 -1.0000000 )
                  (  0.0000000 -1.0000000  0.0000000 )


      isym = 38     inv. 180 deg rotation - cart. axis [0,1,-1]  

 cryst.   s(38) = (     1          0          0      )
                  (     0          0          1      )
                  (     0          1          0      )

 cart.    s(38) = (  1.0000000  0.0000000  0.0000000 )
                  (  0.0000000  0.0000000  1.0000000 )
                  (  0.0000000  1.0000000  0.0000000 )


      isym = 39     inv.  90 deg rotation - cart. axis [-1,0,0]  

 cryst.   s(39) = (    -1          0          0      )
                  (     0          0          1      )
                  (     0         -1          0      )

 cart.    s(39) = ( -1.0000000  0.0000000  0.0000000 )
                  (  0.0000000  0.0000000 -1.0000000 )
                  (  0.0000000  1.0000000  0.0000000 )


      isym = 40     inv.  90 deg rotation - cart. axis [1,0,0]   

 cryst.   s(40) = (    -1          0          0      )
                  (     0          0         -1      )
                  (     0          1          0      )

 cart.    s(40) = ( -1.0000000  0.0000000  0.0000000 )
                  (  0.0000000  0.0000000  1.0000000 )
                  (  0.0000000 -1.0000000  0.0000000 )


      isym = 41     inv. 120 deg rotation - cart. axis [-1,-1,-1]

 cryst.   s(41) = (     0          0         -1      )
                  (    -1          0          0      )
                  (     0         -1          0      )

 cart.    s(41) = (  0.0000000 -1.0000000  0.0000000 )
                  (  0.0000000  0.0000000 -1.0000000 )
                  ( -1.0000000  0.0000000  0.0000000 )


      isym = 42     inv. 120 deg rotation - cart. axis [-1,1,1]  

 cryst.   s(42) = (     0          0          1      )
                  (     1          0          0      )
                  (     0         -1          0      )

 cart.    s(42) = (  0.0000000  1.0000000  0.0000000 )
                  (  0.0000000  0.0000000 -1.0000000 )
                  (  1.0000000  0.0000000  0.0000000 )


      isym = 43     inv. 120 deg rotation - cart. axis [1,1,-1]  

 cryst.   s(43) = (     0          0          1      )
                  (    -1          0          0      )
                  (     0          1          0      )

 cart.    s(43) = (  0.0000000 -1.0000000  0.0000000 )
                  (  0.0000000  0.0000000  1.0000000 )
                  (  1.0000000  0.0000000  0.0000000 )


      isym = 44     inv. 120 deg rotation - cart. axis [1,-1,1]  

 cryst.   s(44) = (     0          0         -1      )
                  (     1          0          0      )
                  (     0          1          0      )

 cart.    s(44) = (  0.0000000  1.0000000  0.0000000 )
                  (  0.0000000  0.0000000  1.0000000 )
                  ( -1.0000000  0.0000000  0.0000000 )


      isym = 45     inv. 120 deg rotation - cart. axis [1,1,1]   

 cryst.   s(45) = (     0         -1          0      )
                  (     0          0         -1      )
                  (    -1          0          0      )

 cart.    s(45) = (  0.0000000  0.0000000 -1.0000000 )
                  ( -1.0000000  0.0000000  0.0000000 )
                  (  0.0000000 -1.0000000  0.0000000 )


      isym = 46     inv. 120 deg rotation - cart. axis [-1,1,-1] 

 cryst.   s(46) = (     0          1          0      )
                  (     0          0          1      )
                  (    -1          0          0      )

 cart.    s(46) = (  0.0000000  0.0000000 -1.0000000 )
                  (  1.0000000  0.0000000  0.0000000 )
                  (  0.0000000  1.0000000  0.0000000 )


      isym = 47     inv. 120 deg rotation - cart. axis [1,-1,-1] 

 cryst.   s(47) = (     0          1          0      )
                  (     0          0         -1      )
                  (     1          0          0      )

 cart.    s(47) = (  0.0000000  0.0000000  1.0000000 )
                  (  1.0000000  0.0000000  0.0000000 )
                  (  0.0000000 -1.0000000  0.0000000 )


      isym = 48     inv. 120 deg rotation - cart. axis [-1,-1,1] 

 cryst.   s(48) = (     0         -1          0      )
                  (     0          0          1      )
                  (     1          0          0      )

 cart.    s(48) = (  0.0000000  0.0000000  1.0000000 )
                  ( -1.0000000  0.0000000  0.0000000 )
                  (  0.0000000  1.0000000  0.0000000 )


   Cartesian axes

     site n.     atom                  positions (alat units)
         1           W   tau(   1) = (   0.5000000   0.5000000   0.5000000  )

   Crystallographic axes

     site n.     atom                  positions (cryst. coord.)
         1           W   tau(   1) = (  0.5000000  0.5000000  0.5000000  )

     number of k points=     1
                       cart. coord. in units 2pi/alat
        k(    1) = (   0.0000000   0.0000000   0.0000000), wk =   1.0000000

                       cryst. coord.
        k(    1) = (   0.0000000   0.0000000   0.0000000), wk =   1.0000000

     Dense  grid:  6066371 G-vectors     FFT dimensions: ( 288, 288, 288)

     Dynamical RAM for                 wfc:       4.34 MB

     Dynamical RAM for     wfc (w. buffer):      13.02 MB

     Dynamical RAM for           str. fact:       2.89 MB

     Dynamical RAM for           local pot:       0.00 MB

     Dynamical RAM for          nlocal pot:       4.70 MB

     Dynamical RAM for                qrad:       4.57 MB

     Dynamical RAM for          rho,v,vnew:      51.53 MB

     Dynamical RAM for               rhoin:      17.18 MB

     Dynamical RAM for            rho*nmix:      92.57 MB

     Dynamical RAM for           G-vectors:      12.29 MB

     Dynamical RAM for          h,s,v(r/c):       0.00 MB

     Dynamical RAM for          <psi|beta>:       0.00 MB

     Dynamical RAM for                 psi:      17.36 MB

     Dynamical RAM for                hpsi:      17.36 MB

     Dynamical RAM for      wfcinit/wfcrot:      11.58 MB

     Estimated static dynamical RAM per process >     238.70 MB

     Estimated max dynamical RAM per process >     273.42 MB

     Estimated total dynamical RAM >       8.54 GB
     Generating pointlists ...
     new r_m :   0.4125 (alat units)  9.3541 (a.u.) for type    1

     Initial potential from superposition of free atoms

     starting charge   11.30112, renormalised to   14.00000

     negative rho (up, down):  4.731E-03 0.000E+00
     Starting wfcs are   16 randomized atomic wfcs

     total cpu time spent up to now is        7.9 secs

     Self-consistent Calculation

     iteration #  1     ecut=   390.00 Ry     beta= 0.70
     Davidson diagonalization with overlap
     ethr =  1.00E-02,  avg # of iterations = 15.0

     negative rho (up, down):  4.802E-07 2.120E-02

     total cpu time spent up to now is       21.9 secs

     total energy              =    -127.70852094 Ry
     Harris-Foulkes estimate   =    -137.32866675 Ry
     estimated scf accuracy    <      12.48192038 Ry

     total magnetization       =     4.00 Bohr mag/cell
     absolute magnetization    =     4.01 Bohr mag/cell

     iteration #  2     ecut=   390.00 Ry     beta= 0.70
     Davidson diagonalization with overlap
     ethr =  1.00E-02,  avg # of iterations =  7.5

     negative rho (up, down):  2.717E-07 1.938E-02

     total cpu time spent up to now is       32.5 secs

     total energy              =    -134.67457221 Ry
     Harris-Foulkes estimate   =    -138.81512993 Ry
     estimated scf accuracy    <       7.18503203 Ry

     total magnetization       =     4.00 Bohr mag/cell
     absolute magnetization    =     4.00 Bohr mag/cell

     iteration #  3     ecut=   390.00 Ry     beta= 0.70
     Davidson diagonalization with overlap
     ethr =  1.00E-02,  avg # of iterations =  3.0

     negative rho (up, down):  2.424E-07 1.951E-02

     total cpu time spent up to now is       39.2 secs

     total energy              =    -134.90913338 Ry
     Harris-Foulkes estimate   =    -135.10891613 Ry
     estimated scf accuracy    <       1.38270729 Ry

     total magnetization       =     4.00 Bohr mag/cell
     absolute magnetization    =     4.01 Bohr mag/cell

     iteration #  4     ecut=   390.00 Ry     beta= 0.70
     Davidson diagonalization with overlap
     ethr =  9.88E-03,  avg # of iterations =  1.0

     negative rho (up, down):  2.463E-07 1.785E-02

     total cpu time spent up to now is       45.2 secs

     total energy              =    -135.16156131 Ry
     Harris-Foulkes estimate   =    -134.93248680 Ry
     estimated scf accuracy    <       0.76555179 Ry

     total magnetization       =     4.00 Bohr mag/cell
     absolute magnetization    =     4.15 Bohr mag/cell

     iteration #  5     ecut=   390.00 Ry     beta= 0.70
     Davidson diagonalization with overlap
     ethr =  5.47E-03,  avg # of iterations =  1.0

     negative rho (up, down):  2.364E-07 1.737E-02

     total cpu time spent up to now is       51.2 secs

     total energy              =    -135.19714073 Ry
     Harris-Foulkes estimate   =    -135.19856078 Ry
     estimated scf accuracy    <       1.44019724 Ry

     total magnetization       =     4.00 Bohr mag/cell
     absolute magnetization    =     4.11 Bohr mag/cell

     iteration #  6     ecut=   390.00 Ry     beta= 0.70
     Davidson diagonalization with overlap
     ethr =  5.47E-03,  avg # of iterations =  1.0

     negative rho (up, down):  2.347E-07 1.728E-02

     total cpu time spent up to now is       57.2 secs

     total energy              =    -135.20029867 Ry
     Harris-Foulkes estimate   =    -135.20936868 Ry
     estimated scf accuracy    <       1.55036395 Ry

     total magnetization       =     4.00 Bohr mag/cell
     absolute magnetization    =     4.03 Bohr mag/cell

     iteration #  7     ecut=   390.00 Ry     beta= 0.70
     Davidson diagonalization with overlap
     ethr =  5.47E-03,  avg # of iterations =  1.0

     negative rho (up, down):  6.076E-07 2.789E-02

     total cpu time spent up to now is       63.3 secs

     total energy              =    -135.01094830 Ry
     Harris-Foulkes estimate   =    -135.20312723 Ry
     estimated scf accuracy    <       1.55754840 Ry

     total magnetization       =     4.00 Bohr mag/cell
     absolute magnetization    =     4.02 Bohr mag/cell

     iteration #  8     ecut=   390.00 Ry     beta= 0.70
     Davidson diagonalization with overlap
     ethr =  5.47E-03,  avg # of iterations =  1.0

     negative rho (up, down):  1.776E-03 5.855E-02

     total cpu time spent up to now is       69.5 secs

     total energy              =    -134.47583809 Ry
     Harris-Foulkes estimate   =    -135.02007723 Ry
     estimated scf accuracy    <       1.29959522 Ry

     total magnetization       =     4.00 Bohr mag/cell
     absolute magnetization    =     4.03 Bohr mag/cell

     iteration #  9     ecut=   390.00 Ry     beta= 0.70
     Davidson diagonalization with overlap
     ethr =  5.47E-03,  avg # of iterations =  1.0

     negative rho (up, down):  1.334E-02 8.338E-02

     total cpu time spent up to now is       75.6 secs

     total energy              =    -134.34428714 Ry
     Harris-Foulkes estimate   =    -134.56018037 Ry
     estimated scf accuracy    <       0.46514983 Ry

     total magnetization       =     4.00 Bohr mag/cell
     absolute magnetization    =     4.18 Bohr mag/cell

     iteration # 10     ecut=   390.00 Ry     beta= 0.70
     Davidson diagonalization with overlap
     ethr =  3.32E-03,  avg # of iterations =  1.0

     negative rho (up, down):  2.010E-02 2.152E-01

     total cpu time spent up to now is       81.8 secs

     total energy              =    -134.20858085 Ry
     Harris-Foulkes estimate   =    -134.35747955 Ry
     estimated scf accuracy    <       0.47934089 Ry

     total magnetization       =     4.00 Bohr mag/cell
     absolute magnetization    =     4.20 Bohr mag/cell

     iteration # 11     ecut=   390.00 Ry     beta= 0.70
     Davidson diagonalization with overlap
     ethr =  3.32E-03,  avg # of iterations =  1.5

     negative rho (up, down):  2.663E-03 1.742E-01

     total cpu time spent up to now is       88.0 secs

     total energy              =    -134.37155470 Ry
     Harris-Foulkes estimate   =    -134.23416274 Ry
     estimated scf accuracy    <       0.43623661 Ry

     total magnetization       =     4.00 Bohr mag/cell
     absolute magnetization    =     4.16 Bohr mag/cell

     iteration # 12     ecut=   390.00 Ry     beta= 0.70
     Davidson diagonalization with overlap
     ethr =  3.12E-03,  avg # of iterations =  1.0

     negative rho (up, down):  1.251E-07 3.108E-03

     total cpu time spent up to now is       94.2 secs

     total energy              =    -134.64492574 Ry
     Harris-Foulkes estimate   =    -134.38442103 Ry
     estimated scf accuracy    <       0.26987399 Ry

     total magnetization       =     4.00 Bohr mag/cell
     absolute magnetization    =     4.06 Bohr mag/cell

     iteration # 13     ecut=   390.00 Ry     beta= 0.70
     Davidson diagonalization with overlap
     ethr =  1.93E-03,  avg # of iterations =  1.5

     negative rho (up, down):  1.537E-07 3.230E-03

     total cpu time spent up to now is      100.6 secs

     total energy              =    -134.67428699 Ry
     Harris-Foulkes estimate   =    -134.67153735 Ry
     estimated scf accuracy    <       0.06040187 Ry

     total magnetization       =     4.00 Bohr mag/cell
     absolute magnetization    =     4.04 Bohr mag/cell

     iteration # 14     ecut=   390.00 Ry     beta= 0.70
     Davidson diagonalization with overlap
     ethr =  4.31E-04,  avg # of iterations =  3.5

     negative rho (up, down):  3.694E-10 1.092E-03

     total cpu time spent up to now is      107.5 secs

     total energy              =    -134.68264075 Ry
     Harris-Foulkes estimate   =    -134.68473102 Ry
     estimated scf accuracy    <       0.03878929 Ry

     total magnetization       =     4.00 Bohr mag/cell
     absolute magnetization    =     4.08 Bohr mag/cell

     iteration # 15     ecut=   390.00 Ry     beta= 0.70
     Davidson diagonalization with overlap
     ethr =  2.77E-04,  avg # of iterations =  1.0

     negative rho (up, down):  1.596E-10 7.189E-04

     total cpu time spent up to now is      113.6 secs

     total energy              =    -134.68280827 Ry
     Harris-Foulkes estimate   =    -134.68510844 Ry
     estimated scf accuracy    <       0.01893090 Ry

     total magnetization       =     4.00 Bohr mag/cell
     absolute magnetization    =     4.05 Bohr mag/cell

     iteration # 16     ecut=   390.00 Ry     beta= 0.70
     Davidson diagonalization with overlap
     ethr =  1.35E-04,  avg # of iterations =  1.0

     negative rho (up, down):  1.207E-10 6.418E-04

     total cpu time spent up to now is      119.7 secs

     total energy              =    -134.68349039 Ry
     Harris-Foulkes estimate   =    -134.68433030 Ry
     estimated scf accuracy    <       0.01026825 Ry

     total magnetization       =     4.00 Bohr mag/cell
     absolute magnetization    =     4.03 Bohr mag/cell

     iteration # 17     ecut=   390.00 Ry     beta= 0.70
     Davidson diagonalization with overlap
     ethr =  7.33E-05,  avg # of iterations =  3.0

     negative rho (up, down):  3.013E-11 5.418E-04

     total cpu time spent up to now is      126.2 secs

     total energy              =    -134.68395797 Ry
     Harris-Foulkes estimate   =    -134.68417229 Ry
     estimated scf accuracy    <       0.00529191 Ry

     total magnetization       =     4.00 Bohr mag/cell
     absolute magnetization    =     4.03 Bohr mag/cell

     iteration # 18     ecut=   390.00 Ry     beta= 0.70
     Davidson diagonalization with overlap
     ethr =  3.78E-05,  avg # of iterations =  7.0

     negative rho (up, down):  4.705E-09 5.620E-04

     total cpu time spent up to now is      133.7 secs

     total energy              =    -134.68306891 Ry
     Harris-Foulkes estimate   =    -134.68481469 Ry
     estimated scf accuracy    <       0.00566287 Ry

     total magnetization       =     4.00 Bohr mag/cell
     absolute magnetization    =     4.03 Bohr mag/cell

     iteration # 19     ecut=   390.00 Ry     beta= 0.70
     Davidson diagonalization with overlap
     ethr =  3.78E-05,  avg # of iterations =  1.5

     negative rho (up, down):  8.196E-12 4.153E-04

     total cpu time spent up to now is      139.9 secs

     total energy              =    -134.68555928 Ry
     Harris-Foulkes estimate   =    -134.68569871 Ry
     estimated scf accuracy    <       0.00667148 Ry

     total magnetization       =     4.00 Bohr mag/cell
     absolute magnetization    =     4.05 Bohr mag/cell

     iteration # 20     ecut=   390.00 Ry     beta= 0.70
     Davidson diagonalization with overlap
     ethr =  3.78E-05,  avg # of iterations =  1.0

     negative rho (up, down):  0.000E+00 2.516E-05

     total cpu time spent up to now is      146.0 secs

     total energy              =    -134.68550772 Ry
     Harris-Foulkes estimate   =    -134.68568390 Ry
     estimated scf accuracy    <       0.00509527 Ry

     total magnetization       =     4.00 Bohr mag/cell
     absolute magnetization    =     4.05 Bohr mag/cell

     iteration # 21     ecut=   390.00 Ry     beta= 0.70
     Davidson diagonalization with overlap
     ethr =  3.64E-05,  avg # of iterations =  1.0

     negative rho (up, down):  2.949E-07 1.917E-01

     total cpu time spent up to now is      152.1 secs

     total energy              =    -134.68575601 Ry
     Harris-Foulkes estimate   =    -134.68564442 Ry
     estimated scf accuracy    <       0.00286426 Ry

     total magnetization       =     4.00 Bohr mag/cell
     absolute magnetization    =     4.05 Bohr mag/cell

     iteration # 22     ecut=   390.00 Ry     beta= 0.70
     Davidson diagonalization with overlap
     ethr =  2.05E-05,  avg # of iterations =  1.0

     negative rho (up, down):  0.000E+00 8.372E-08

     total cpu time spent up to now is      158.2 secs

     total energy              =    -134.68537840 Ry
     Harris-Foulkes estimate   =    -134.68579102 Ry
     estimated scf accuracy    <       0.00291890 Ry

     total magnetization       =     4.00 Bohr mag/cell
     absolute magnetization    =     4.05 Bohr mag/cell

     iteration # 23     ecut=   390.00 Ry     beta= 0.70
     Davidson diagonalization with overlap
     ethr =  2.05E-05,  avg # of iterations =  1.0

     negative rho (up, down):  3.072E-15 3.280E-02

     total cpu time spent up to now is      164.3 secs

     total energy              =    -134.68512951 Ry
     Harris-Foulkes estimate   =    -134.68548207 Ry
     estimated scf accuracy    <       0.00239801 Ry

     total magnetization       =     4.00 Bohr mag/cell
     absolute magnetization    =     4.04 Bohr mag/cell

     iteration # 24     ecut=   390.00 Ry     beta= 0.70
     Davidson diagonalization with overlap
     ethr =  1.71E-05,  avg # of iterations =  1.0

     negative rho (up, down):  4.059E-08 9.129E-02

     total cpu time spent up to now is      170.3 secs

     total energy              =    -134.68456629 Ry
     Harris-Foulkes estimate   =    -134.68531258 Ry
     estimated scf accuracy    <       0.00260292 Ry

     total magnetization       =     4.00 Bohr mag/cell
     absolute magnetization    =     4.04 Bohr mag/cell

     iteration # 25     ecut=   390.00 Ry     beta= 0.70
     Davidson diagonalization with overlap
     ethr =  1.71E-05,  avg # of iterations =  1.0

     negative rho (up, down):  1.956E-10 4.419E-02

     total cpu time spent up to now is      176.4 secs

     total energy              =    -134.68487222 Ry
     Harris-Foulkes estimate   =    -134.68494086 Ry
     estimated scf accuracy    <       0.00025866 Ry

     total magnetization       =     4.00 Bohr mag/cell
     absolute magnetization    =     4.03 Bohr mag/cell

     iteration # 26     ecut=   390.00 Ry     beta= 0.70
     Davidson diagonalization with overlap
     ethr =  1.85E-06,  avg # of iterations =  4.5

     total cpu time spent up to now is      183.5 secs

     total energy              =    -134.68491011 Ry
     Harris-Foulkes estimate   =    -134.68494583 Ry
     estimated scf accuracy    <       0.00027292 Ry

     total magnetization       =     4.00 Bohr mag/cell
     absolute magnetization    =     4.02 Bohr mag/cell

     iteration # 27     ecut=   390.00 Ry     beta= 0.70
     Davidson diagonalization with overlap
     ethr =  1.85E-06,  avg # of iterations =  1.0

     negative rho (up, down):  3.086E-09 6.105E-02

     total cpu time spent up to now is      189.5 secs

     total energy              =    -134.68496032 Ry
     Harris-Foulkes estimate   =    -134.68494986 Ry
     estimated scf accuracy    <       0.00006763 Ry

     total magnetization       =     4.00 Bohr mag/cell
     absolute magnetization    =     4.02 Bohr mag/cell

     iteration # 28     ecut=   390.00 Ry     beta= 0.70
     Davidson diagonalization with overlap
     ethr =  4.83E-07,  avg # of iterations =  3.0

     negative rho (up, down):  4.092E-10 5.173E-02

     total cpu time spent up to now is      196.2 secs

     total energy              =    -134.68471208 Ry
     Harris-Foulkes estimate   =    -134.68505611 Ry
     estimated scf accuracy    <       0.00069644 Ry

     total magnetization       =     4.00 Bohr mag/cell
     absolute magnetization    =     4.03 Bohr mag/cell

     iteration # 29     ecut=   390.00 Ry     beta= 0.70
     Davidson diagonalization with overlap
     ethr =  4.83E-07,  avg # of iterations =  2.5

     negative rho (up, down):  0.000E+00 8.372E-08

     total cpu time spent up to now is      203.1 secs

     total energy              =    -134.68492857 Ry
     Harris-Foulkes estimate   =    -134.68493373 Ry
     estimated scf accuracy    <       0.00009636 Ry

     total magnetization       =     4.00 Bohr mag/cell
     absolute magnetization    =     4.02 Bohr mag/cell

     iteration # 30     ecut=   390.00 Ry     beta= 0.70
     Davidson diagonalization with overlap
     ethr =  4.83E-07,  avg # of iterations =  1.0

     total cpu time spent up to now is      209.2 secs

     total energy              =    -134.68493233 Ry
     Harris-Foulkes estimate   =    -134.68493484 Ry
     estimated scf accuracy    <       0.00002687 Ry

     total magnetization       =     4.00 Bohr mag/cell
     absolute magnetization    =     4.02 Bohr mag/cell

     iteration # 31     ecut=   390.00 Ry     beta= 0.70
     Davidson diagonalization with overlap
     ethr =  1.92E-07,  avg # of iterations =  1.0

     total cpu time spent up to now is      215.3 secs

     total energy              =    -134.68493590 Ry
     Harris-Foulkes estimate   =    -134.68493624 Ry
     estimated scf accuracy    <       0.00001160 Ry

     total magnetization       =     4.00 Bohr mag/cell
     absolute magnetization    =     4.02 Bohr mag/cell

     iteration # 32     ecut=   390.00 Ry     beta= 0.70
     Davidson diagonalization with overlap
     ethr =  8.29E-08,  avg # of iterations =  2.0

     total cpu time spent up to now is      221.8 secs

     total energy              =    -134.68493899 Ry
     Harris-Foulkes estimate   =    -134.68493883 Ry
     estimated scf accuracy    <       0.00000121 Ry

     total magnetization       =     4.00 Bohr mag/cell
     absolute magnetization    =     4.02 Bohr mag/cell

     iteration # 33     ecut=   390.00 Ry     beta= 0.70
     Davidson diagonalization with overlap
     ethr =  8.63E-09,  avg # of iterations =  3.5
 
     Magnetic moment per site:
     atom:    1    charge:   13.9993    magn:    4.0003    constr:    0.0000

     total cpu time spent up to now is      228.7 secs

     End of self-consistent calculation

 ------ SPIN UP ------------


          k = 0.0000 0.0000 0.0000 (758346 PWs)   bands (ev):

   -78.4187 -43.5930 -43.5917 -43.2049  -5.8837  -5.3735  -5.0622  -5.0607
    -4.8960  -4.7879  -1.2455  -1.2389

     occupation numbers 
     1.0000   1.0000   1.0000   1.0000   1.0000   1.0000   1.0000   1.0000
     1.0000   0.0000   0.0000   0.0000

 ------ SPIN DOWN ----------


          k = 0.0000 0.0000 0.0000 (758346 PWs)   bands (ev):

   -76.7985 -41.5994 -41.5977 -40.6422  -4.4780  -3.4246  -2.7218  -2.3279
    -2.3276  -2.1632  -0.7420  -0.7411

     occupation numbers 
     1.0000   1.0000   1.0000   1.0000   1.0000   0.0000   0.0000   0.0000
     0.0000   0.0000   0.0000   0.0000

     highest occupied, lowest unoccupied level (ev):    -4.4780   -4.7879

!    total energy              =    -134.68494065 Ry
     Harris-Foulkes estimate   =    -134.68494084 Ry
     estimated scf accuracy    <       0.00000083 Ry

     The total energy is the sum of the following terms:

     one-electron contribution =    -177.38479450 Ry
     hartree contribution      =      82.30202586 Ry
     xc contribution           =     -15.07876372 Ry
     ewald contribution        =     -24.52340829 Ry

     total magnetization       =     4.00 Bohr mag/cell
     absolute magnetization    =     4.02 Bohr mag/cell

     convergence has been achieved in  33 iterations

     Writing output data file pwscf.save/
 
     init_run     :      7.48s CPU      7.82s WALL (       1 calls)
     electrons    :    217.45s CPU    221.48s WALL (       1 calls)

     Called by init_run:
     wfcinit      :      1.55s CPU      1.64s WALL (       1 calls)
     wfcinit:atom :      0.03s CPU      0.04s WALL (       2 calls)
     wfcinit:wfcr :      1.47s CPU      1.54s WALL (       2 calls)
     potinit      :      1.94s CPU      2.06s WALL (       1 calls)
     hinit0       :      0.19s CPU      0.27s WALL (       1 calls)

     Called by electrons:
     c_bands      :     99.60s CPU    101.27s WALL (      33 calls)
     sum_band     :     35.95s CPU     36.07s WALL (      33 calls)
     v_of_rho     :     59.78s CPU     61.40s WALL (      34 calls)
     v_h          :      4.26s CPU      4.29s WALL (      34 calls)
     v_xc         :     55.52s CPU     57.11s WALL (      34 calls)
     mix_rho      :     21.63s CPU     21.82s WALL (      33 calls)

     Called by c_bands:
     init_us_2    :      1.18s CPU      1.19s WALL (     134 calls)
     regterg      :     97.45s CPU     99.07s WALL (      66 calls)

     Called by sum_band:

     Called by *egterg:
     h_psi        :     90.01s CPU     90.35s WALL (     224 calls)
     g_psi        :      0.29s CPU      0.29s WALL (     156 calls)
     rdiaghg      :      0.22s CPU      0.24s WALL (     222 calls)
     regterg:over :      1.87s CPU      1.87s WALL (     156 calls)
     regterg:upda :      3.45s CPU      3.48s WALL (     156 calls)
     regterg:last :      1.28s CPU      1.28s WALL (      72 calls)
     rdiaghg:chol :      0.03s CPU      0.04s WALL (     222 calls)
     rdiaghg:inve :      0.01s CPU      0.01s WALL (     222 calls)
     rdiaghg:para :      0.03s CPU      0.03s WALL (     444 calls)

     Called by h_psi:
     h_psi:pot    :     89.37s CPU     89.71s WALL (     224 calls)
     h_psi:calbec :      0.59s CPU      0.61s WALL (     224 calls)
     vloc_psi     :     88.00s CPU     88.31s WALL (     224 calls)
     add_vuspsi   :      0.78s CPU      0.78s WALL (     224 calls)

     General routines
     calbec       :      0.59s CPU      0.61s WALL (     224 calls)
     fft          :     49.98s CPU     50.43s WALL (     506 calls)
     ffts         :      5.35s CPU      5.37s WALL (      66 calls)
     fftw         :     86.58s CPU     86.92s WALL (    2416 calls)
 
     Parallel routines
     fft_scatt_xy :     23.67s CPU     23.72s WALL (    2988 calls)
     fft_scatt_yz :     53.42s CPU     53.94s WALL (    2988 calls)
 
     PWSCF        :   3m45.39s CPU   3m50.68s WALL

 
   This run was terminated on:  19:53:53  17Jan2022            

=------------------------------------------------------------------------------=
   JOB DONE.
=------------------------------------------------------------------------------=
