
 Primary working directories    : /global/cscratch1/sd/bkincaid
 Secondary working directories  : /global/cscratch1/sd/bkincaid
 Wavefunction directory         : /global/homes/b/bkincaid/wfu/
 Main file repository           : /global/cscratch1/sd/bkincaid/

 SHA1      : 19cd028119e0e09f93f0674bd8af7968d9b3eff6
 NAME      : 2015.1.36
 ARCHNAME  : linux/x86_64
 FC        : /opt/cray/pe/craype/2.5.14/bin/ftn
 BLASLIB   : -L/opt/intel/compilers_and_libraries_2018.1.163/linux/mkl/lib/intel64 -Wl,-_start-group -lmkl_intel_ilp64 -lmkl_intel_thread -lmkl_core -Wl,-_end-group -liomp5
 id        : lbl

 Nodes     nprocs
 nid01717    23
 Number of processes for MPI-2 version of Molpro:   nprocs(total)=   24   nprocs(compute)=   23   nprocs(helper)=    1

 Using customized tuning parameters: mindgm=7; mindgv=16; mindgc=1; mindgr=1; noblas=0; minvec=7
 default implementation of scratch files=sf  

 ***,Calculation for Ag atom, singlet and triplet
 memory,512,m
 geometry={
 1
 Pd
 Pd  0.0 0.0 0.0
 }
 
 basis={
 ECP,Pd,28,3,0;
 4; 1, 30.0, 18.0; 3, 30.0, 540.0; 2, 30.0, -221.243000; 2, 9.686294,  -25.613444;
 2; 2, 12.636256,  258.996231; 2, 6.026404,  41.602833;
 2; 2, 11.431625,  192.637154; 2, 5.464900,   30.854024;
 2; 2, 8.623710,   96.556006; 2, 3.090920,   4.354335;
 Including file /global/u1/b/bkincaid/molpro/pd/atoms/sanitycheck/reg2/basis/5Zdebug.basis
 }
 
 Including file /global/u1/b/bkincaid/molpro/pd/atoms/sanitycheck/reg2/basis/states.proc
 
 do i=1,13
     if (i.eq.1) then
         Idten
     else if (i.eq.2) then
         EAs2d9
     else if (i.eq.3) then
         Is1d9
     else if (i.eq.4) then
         Is2d8
     else if (i.eq.5) then
         IId9
     else if (i.eq.6) then
         IIs1d8
     else if (i.eq.7) then
         IIId8
     else if (i.eq.8) then
         IVd7
     else if (i.eq.9) then
         Vd6
     else if (i.eq.10) then
         VId5
     else if (i.eq.11) then
         XIKr
     else if (i.eq.12) then
         XIVp3
     else if (i.eq.13) then
         XVIIs2
     endif
     scf(i)=energy
     _CC_NORM_MAX=2.0
    {rccsd(t),maxit=100;core}
     ccsd(i)=energy
 enddo
 
 table,scf,ccsd
 type,csv
 save

 Variables initialized (889), CPU time= 0.01 sec
 Commands  initialized (702), CPU time= 0.01 sec, 572 directives.
 Default parameters read. Elapsed time= 1.16 sec

 Checking input...
 Passed
1


                                         ***  PROGRAM SYSTEM MOLPRO  ***
                                       Copyright, TTI GmbH Stuttgart, 2015
                                    Version 2015.1 linked Dec 29 2018 15:55:43


 **********************************************************************************************************************************
 LABEL *   Calculation for Ag atom, singlet and triplet                                  
  64 bit mpp version                                                                     DATE: 12-Aug-20          TIME: 10:41:12  
 **********************************************************************************************************************************

 SHA1:             19cd028119e0e09f93f0674bd8af7968d9b3eff6
 **********************************************************************************************************************************

Geometry recognized as XYZ


 Variable memory set to  512000000 words,  buffer space   230000 words

 SETTING BASIS          =    USERDEF

 DO I                   =         1.00000000   

 Running procedure=IDTEN


 Recomputing integrals since basis changed


 Using spherical harmonics



 PROGRAM * SEWARD (Integral evaluation for generally contracted gaussian basis sets)     Author: Roland Lindh, 1990

 Geometry written to block  1 of record 700

 Orientation using atomic masses  
 Molecule type: Atom
 Symmetry elements: X,Y,Z
 Rotational constants:       0.0000000      0.0000000      0.0000000 GHz  (calculated with average atomic masses)

 Point group  D2h 



 ATOMIC COORDINATES

 NR  ATOM    CHARGE       X              Y              Z

   1  PD     18.00    0.000000000    0.000000000    0.000000000

 NUCLEAR CHARGE:                   18
 NUMBER OF PRIMITIVE AOS:         147
 NUMBER OF SYMMETRY AOS:          133
 NUMBER OF CONTRACTIONS:          133   (  46Ag  +  15B3u +  15B2u +  14B1g +  15B1u +  14B2g +  14B3g +   0Au  )
 NUMBER OF CORE ORBITALS:           4   (   1Ag  +   1B3u +   1B2u +   0B1g +   1B1u +   0B2g +   0B3g +   0Au  )
 NUMBER OF VALENCE ORBITALS:        6   (   3Ag  +   0B3u +   0B2u +   1B1g +   0B1u +   1B2g +   1B3g +   0Au  )


 NUCLEAR REPULSION ENERGY    0.00000000

 EXTRA SYMMETRY OF AOS IN SYMMETRY 1:   1 1 1 1 1 1 1 1 1 1   1 1 1 1 1 1 1 1 2 3   2 3 2 3 2 3 2 3 2 3   2 3 2 3 2 3 2 3 2 3
                                        2 3 2 3 2 3

 Eigenvalues of metric

         1 0.107E-05 0.188E-05 0.188E-05 0.562E-04 0.562E-04 0.836E-04 0.329E-03 0.909E-03
         2 0.547E-05 0.257E-03 0.828E-03 0.318E-02 0.911E-02 0.201E-01 0.517E-01 0.136E+00
         3 0.547E-05 0.257E-03 0.828E-03 0.318E-02 0.911E-02 0.201E-01 0.517E-01 0.136E+00
         4 0.188E-05 0.562E-04 0.324E-02 0.157E-01 0.390E-01 0.882E-01 0.192E+00 0.359E+00
         5 0.547E-05 0.257E-03 0.828E-03 0.318E-02 0.911E-02 0.201E-01 0.517E-01 0.136E+00
         6 0.188E-05 0.562E-04 0.324E-02 0.157E-01 0.390E-01 0.882E-01 0.192E+00 0.359E+00
         7 0.188E-05 0.562E-04 0.324E-02 0.157E-01 0.390E-01 0.882E-01 0.192E+00 0.359E+00


 Contracted 2-electron integrals neglected if value below      1.0D-12
 AO integral compression algorithm  1   Integral accuracy      1.0D-12

     84.673 MB (compressed) written to integral file ( 56.4%)

     Node minimum: 0.262 MB, node maximum: 24.642 MB


 NUMBER OF SORTED TWO-ELECTRON INTEGRALS:     235668.     BUFFER LENGTH:  32768
 NUMBER OF SEGMENTS:   1  SEGMENT LENGTH:     235668      RECORD LENGTH: 524288

 Memory used in sort:       0.79 MW

 SORT1 READ    18075157. AND WROTE      202937. INTEGRALS IN      1 RECORDS. CPU TIME:     0.29 SEC, REAL TIME:     0.32 SEC
 SORT2 READ     4698669. AND WROTE     5461018. INTEGRALS IN    322 RECORDS. CPU TIME:     0.01 SEC, REAL TIME:     0.03 SEC

 Node minimum:      224925.  Node maximum:      259425. integrals

 OPERATOR DM      FOR CENTER  0  COORDINATES:    0.000000    0.000000    0.000000


 **********************************************************************************************************************************
 DATASETS  * FILE   NREC   LENGTH (MB)   RECORD NAMES
              1      19       20.03       500      610      700      900      950      970     1000      129      960     1100   
                                          VAR    BASINP    GEOM    SYMINP    ZMAT    AOBASIS   BASIS     P2S    ABASIS      S 
                                         1400     1410     1420     1200     1210     1080     1600     1650     1700   
                                           T        V       ECP      H0       H01     AOSYM     SMH    MOLCAS    OPER   

 PROGRAMS   *        TOTAL       INT
 CPU TIMES  *         4.54      4.11
 REAL TIME  *         6.73 SEC
 DISK USED  *       165.18 MB      
 GA USED    *         0.00 MB       (max)       0.00 MB       (current)
 **********************************************************************************************************************************


 PROGRAM * RHF-SCF (CLOSED SHELL)       Authors: W. Meyer, H.-J. Werner


 NUMBER OF ELECTRONS:       9+    9-    SPACE SYMMETRY=1    SPIN SYMMETRY: Singlet 
 CONVERGENCE THRESHOLDS:    1.00E-05 (Density)    1.00E-07 (Energy)
 MAX. NUMBER OF ITERATIONS:       60
 INTERPOLATION TYPE:            DIIS
 INTERPOLATION STEPS:              2 (START)      1 (STEP)
 LEVEL SHIFTS:                  0.00 (CLOSED)  0.00 (OPEN) 

 Number of closed-shell orbitals:    9 (   3   1   1   1   1   1   1 )


 
 Extra symmetries of mos in symmetry 1:   1   3   2
 Orbital guess generated from atomic densities. Full valence occupancy:    4   1   1   1   1   1   1   0


 Molecular orbital dump at record        4202.2

 ITERATION    DDIFF          GRAD             ENERGY        2-EL.EN.            DIPOLE MOMENTS         DIIS   ORB.
    1      0.000D+00      0.000D+00      -126.57141303    207.030840    0.00000    0.00000    0.00000    0    start
    2      0.000D+00      0.167D-01      -126.57470043    197.851996    0.00000    0.00000    0.00000    1    diag
    3      0.438D-02      0.185D-01      -126.60918493    202.098900    0.00000    0.00000    0.00000    2    diag
    4      0.204D-02      0.876D-03      -126.60924938    202.235425    0.00000    0.00000    0.00000    3    diag
    5      0.130D-03      0.955D-04      -126.60925035    202.252121    0.00000    0.00000    0.00000    4    diag
    6      0.272D-04      0.863D-05      -126.60925036    202.252679    0.00000    0.00000    0.00000    5    diag
    7      0.478D-05      0.446D-06      -126.60925037    202.252790    0.00000    0.00000    0.00000    0    orth

 Final occupancy:   3   1   1   1   1   1   1

 !RHF STATE 1.1 Energy               -126.609250365078
 Nuclear energy                         0.00000000
 One-electron energy                 -227.73564543
 Two-electron energy                  101.12639506
 Virial quotient                       -2.59550486
 !RHF STATE 1.1 Dipole moment           0.00000000     0.00000000     0.00000000
 Dipole moment /Debye                   0.00000000     0.00000000     0.00000000

 ELECTRON ORBITALS
 =================


   Orb  Occ    Energy  Couls-En    Coefficients

                                   1 1s      1 1s      1 1s      1 1s      1 1s      1 1s      1 1s      1 1s      1 1s      1 1s   
                                   1 1s      1 1s      1 1s      1 1s      1 1s      1 1s      1 1s      1 1s      1 3d0     1 3d2+ 
                                   1 3d0     1 3d2+    1 3d0     1 3d2+    1 3d0     1 3d2+    1 3d0     1 3d2+    1 3d0     1 3d2+ 
                                   1 3d0     1 3d2+    1 3d0     1 3d2+    1 3d0     1 3d2+    1 3d0     1 3d2+    1 3d0     1 3d2+ 
                                   1 3d0     1 3d2+    1 3d0     1 3d2+    1 3d0     1 3d2+ 

   1.1   2    -3.8520  -20.1177  0.000000 -0.000001  0.000005 -0.000026  0.006495 -0.066154  0.217696 -0.380711 -0.385515  0.440449
                                 0.674417  0.298500  0.027707 -0.004589  0.002271 -0.000881 -0.012246  0.000217  0.000000 -0.000000
                                -0.000000  0.000000  0.000000 -0.000000 -0.000000  0.000000  0.000000 -0.000000 -0.000000  0.000000
                                -0.000000  0.000000 -0.000000  0.000000  0.000000  0.000000 -0.000000  0.000000  0.000000 -0.000000
                                 0.000000 -0.000000  0.000000 -0.000000 -0.000000  0.000000

   2.1   2    -0.3275  -11.1261 -0.000000 -0.000000  0.000000 -0.000000  0.000000 -0.000000  0.000000 -0.000000  0.000000 -0.000000
                                -0.000000  0.000000 -0.000000  0.000000 -0.000000  0.000000  0.000000 -0.000000 -0.000004 -0.000029
                                 0.000128  0.000865  0.000752  0.005084 -0.003769 -0.025498  0.015853  0.107241  0.030291  0.204917
                                 0.039876  0.269755  0.040190  0.271883  0.030313  0.205064  0.016588  0.112215  0.004222  0.028563
                                 0.006364  0.043055  0.003649  0.024682  0.000041  0.000277

   3.1   2    -0.3275  -11.1261 -0.000000  0.000000 -0.000000  0.000000 -0.000000  0.000000 -0.000000  0.000000 -0.000000  0.000000
                                 0.000000 -0.000000  0.000000 -0.000000 -0.000000 -0.000000 -0.000000 -0.000000  0.000029 -0.000004
                                -0.000865  0.000128 -0.005084  0.000752  0.025498 -0.003769 -0.107241  0.015853 -0.204917  0.030291
                                -0.269755  0.039876 -0.271883  0.040190 -0.205064  0.030313 -0.112215  0.016588 -0.028563  0.004222
                                -0.043055  0.006364 -0.024682  0.003649 -0.000277  0.000041

   4.1   0     0.0077   -2.8198 -0.000000  0.000001 -0.000004  0.000021 -0.001301  0.009094 -0.026118  0.060956 -0.015306  0.432833
                                 0.188010 -0.226598  0.250017 -0.431051  0.939462 -1.291567 -0.631623  1.658131  0.000000 -0.000000
                                -0.000000  0.000000  0.000000  0.000000 -0.000000 -0.000000  0.000000  0.000000 -0.000000  0.000000
                                -0.000000  0.000000  0.000000  0.000000 -0.000000  0.000000 -0.000000  0.000000  0.000000  0.000000
                                 0.000000  0.000000 -0.000000  0.000000 -0.000000 -0.000000

   5.1   0     0.0468   -2.9967  0.000000 -0.000002  0.000012 -0.000059  0.001620 -0.001399 -0.011863 -0.005643  0.207619 -1.598961
                                -0.985344  0.442503 -0.798260  1.661302 -2.819803  4.953578  1.991968 -2.955794 -0.000000  0.000000
                                 0.000000 -0.000000 -0.000000  0.000000  0.000000  0.000000 -0.000000  0.000000  0.000000 -0.000000
                                 0.000000 -0.000000  0.000000 -0.000000 -0.000000  0.000000  0.000000 -0.000000 -0.000000  0.000000
                                -0.000000  0.000000 -0.000000  0.000000  0.000000 -0.000000

                                   1 2px     1 2px     1 2px     1 2px     1 2px     1 2px     1 2px     1 2px     1 2px     1 2px  
                                   1 2px     1 2px     1 2px     1 2px     1 2px  

   1.2   2    -2.4174  -16.9536  0.000012 -0.003790  0.058246 -0.116493 -0.134113  0.194791  0.312163  0.126995  0.014163  0.001970
                                -0.000372  0.000227  0.130280  0.407102 -0.000067

   2.2   0     0.0196   -1.5156  0.000013 -0.000748  0.002867 -0.007192  0.017391 -0.185077  0.122194 -0.135181  0.197387 -0.347707
                                 0.690706 -1.226737  0.250053 -0.153044  1.692891

   3.2   0     0.0654   -2.2387 -0.000032  0.002056 -0.011956  0.027857 -0.028647  0.406464 -0.318429  0.308343 -0.446082  0.895754
                                -1.703850  3.309081 -0.590376  0.314476 -1.774731

                                   1 2py     1 2py     1 2py     1 2py     1 2py     1 2py     1 2py     1 2py     1 2py     1 2py  
                                   1 2py     1 2py     1 2py     1 2py     1 2py  

   1.3   2    -2.4174  -16.9536  0.000012 -0.003790  0.058246 -0.116493 -0.134113  0.194791  0.312163  0.126995  0.014163  0.001970
                                -0.000372  0.000227  0.130280  0.407102 -0.000067

   2.3   0     0.0196   -1.5156  0.000013 -0.000748  0.002867 -0.007192  0.017391 -0.185077  0.122194 -0.135181  0.197387 -0.347707
                                 0.690706 -1.226737  0.250053 -0.153044  1.692891

   3.3   0     0.0654   -2.2387 -0.000032  0.002056 -0.011956  0.027857 -0.028647  0.406464 -0.318429  0.308343 -0.446082  0.895754
                                -1.703850  3.309081 -0.590376  0.314476 -1.774731

                                   1 3d2-    1 3d2-    1 3d2-    1 3d2-    1 3d2-    1 3d2-    1 3d2-    1 3d2-    1 3d2-    1 3d2- 
                                   1 3d2-    1 3d2-    1 3d2-    1 3d2- 

   1.4   2    -0.3275  -11.1261 -0.000029  0.000875  0.005140 -0.025775  0.108406  0.207144  0.272687  0.274838  0.207292  0.113434
                                 0.028873  0.043522  0.024950  0.000280

   2.4   0     0.0744   -1.9055 -0.000017  0.000078 -0.001212  0.004763 -0.042107  0.911930  1.708011  0.560164 -0.368393  0.424884
                                -0.771374 -1.269402 -1.745181  1.420486

   3.4   0     0.2321   -2.6955  0.000054 -0.000503  0.001460 -0.003843  0.073772 -2.486621 -4.658773 -1.616560  0.959672 -1.321886
                                 2.433586  3.352512  4.672874 -1.169929

                                   1 2pz     1 2pz     1 2pz     1 2pz     1 2pz     1 2pz     1 2pz     1 2pz     1 2pz     1 2pz  
                                   1 2pz     1 2pz     1 2pz     1 2pz     1 2pz  

   1.5   2    -2.4174  -16.9536  0.000012 -0.003790  0.058246 -0.116493 -0.134113  0.194791  0.312163  0.126995  0.014163  0.001970
                                -0.000372  0.000227  0.130280  0.407102 -0.000067

   2.5   0     0.0196   -1.5156  0.000013 -0.000748  0.002867 -0.007192  0.017391 -0.185077  0.122194 -0.135181  0.197387 -0.347707
                                 0.690706 -1.226737  0.250053 -0.153044  1.692891

   3.5   0     0.0654   -2.2387 -0.000032  0.002056 -0.011956  0.027857 -0.028647  0.406464 -0.318429  0.308343 -0.446082  0.895754
                                -1.703850  3.309081 -0.590376  0.314476 -1.774731

                                   1 3d1+    1 3d1+    1 3d1+    1 3d1+    1 3d1+    1 3d1+    1 3d1+    1 3d1+    1 3d1+    1 3d1+ 
                                   1 3d1+    1 3d1+    1 3d1+    1 3d1+ 

   1.6   2    -0.3275  -11.1261 -0.000029  0.000875  0.005140 -0.025775  0.108406  0.207144  0.272687  0.274838  0.207292  0.113434
                                 0.028873  0.043522  0.024950  0.000280

   2.6   0     0.0744   -1.9055 -0.000017  0.000078 -0.001212  0.004763 -0.042107  0.911930  1.708011  0.560164 -0.368393  0.424884
                                -0.771374 -1.269402 -1.745181  1.420486

   3.6   0     0.2321   -2.6955  0.000054 -0.000503  0.001460 -0.003843  0.073772 -2.486621 -4.658773 -1.616560  0.959672 -1.321886
                                 2.433586  3.352512  4.672874 -1.169929

                                   1 3d1-    1 3d1-    1 3d1-    1 3d1-    1 3d1-    1 3d1-    1 3d1-    1 3d1-    1 3d1-    1 3d1- 
                                   1 3d1-    1 3d1-    1 3d1-    1 3d1- 

   1.7   2    -0.3275  -11.1261 -0.000029  0.000875  0.005140 -0.025775  0.108406  0.207144  0.272687  0.274838  0.207292  0.113434
                                 0.028873  0.043522  0.024950  0.000280

   2.7   0     0.0744   -1.9055 -0.000017  0.000078 -0.001212  0.004763 -0.042107  0.911930  1.708011  0.560164 -0.368393  0.424884
                                -0.771374 -1.269402 -1.745181  1.420486

   3.7   0     0.2321   -2.6955  0.000054 -0.000503  0.001460 -0.003843  0.073772 -2.486621 -4.658773 -1.616560  0.959672 -1.321886
                                 2.433586  3.352512  4.672874 -1.169929

 HOMO      3.1    -0.327464 =      -8.9107eV
 LUMO      4.1     0.007742 =       0.2107eV
 LUMO-HOMO         0.335206 =       9.1214eV


 **********************************************************************************************************************************
 DATASETS  * FILE   NREC   LENGTH (MB)   RECORD NAMES
              1      19       20.05       500      610      700      900      950      970     1000      129      960     1100   
                                          VAR    BASINP    GEOM    SYMINP    ZMAT    AOBASIS   BASIS     P2S    ABASIS      S 
                                         1400     1410     1420     1200     1210     1080     1600     1650     1700   
                                           T        V       ECP      H0       H01     AOSYM     SMH    MOLCAS    OPER   

              2       5        5.42       200      700     1000      520     4202   
                                        OPTIONS   GEOM     BASIS   MCVARS     RHF  

 PROGRAMS   *        TOTAL       RHF       INT
 CPU TIMES  *         4.74      0.20      4.11
 REAL TIME  *         7.17 SEC
 DISK USED  *       756.76 MB      
 SF USED    *         0.01 MB      
 GA USED    *         0.00 MB       (max)       0.00 MB       (current)
 **********************************************************************************************************************************
 SETTING SCF(1)         =      -126.60925037  AU                              
 SETTING _CC_NORM_MAX   =         2.00000000                                  


 PROGRAM * CCSD (Restricted open-shell coupled cluster)     Authors: C. Hampel, H.-J. Werner, 1991, M. Deegan, P.J. Knowles, 1992


 Convergence thresholds:  THRVAR = 1.00D-08  THRDEN = 1.00D-06

 CCSD(T)     terms to be evaluated (factor= 1.000)


 Number of closed-shell orbitals:   9 (   3   1   1   1   1   1   1 )
 Number of external orbitals:     124 (  43  14  14  13  14  13  13 )

 Memory could be reduced to 5.31 Mwords without degradation in triples

 Number of N-1 electron functions:              18
 Number of N-2 electron functions:             153
 Number of singly external CSFs:               420
 Number of doubly external CSFs:            232548
 Total number of CSFs:                      232968

 Molecular orbitals read from record     4202.2  Type=RHF/CANONICAL (state 1.1)

 Integral transformation finished. Total CPU:   0.24 sec, npass=  1  Memory used:   0.79 MW

 Starting RMP2 calculation

 Wavefunction is spin-projected

 ITER.      SQ.NORM     CORR.ENERGY   TOTAL ENERGY   ENERGY CHANGE        DEN1      VAR(S)    VAR(P)  DIIS     TIME
   1      1.06402973    -0.26833266  -126.87758302    -0.26833266    -0.00077464  0.85D-12  0.37D-03  1  1     0.34
   2      1.06491123    -0.26916349  -126.87841385    -0.00083083    -0.00000233  0.33D-13  0.17D-05  2  2     0.43
   3      1.06496126    -0.26918993  -126.87844030    -0.00002645    -0.00000001  0.97D-15  0.77D-08  3  3     0.51
   4      1.06496258    -0.26919017  -126.87844054    -0.00000024    -0.00000000  0.23D-16  0.38D-10  4  4     0.64

 Norm of t1 vector:      0.00000524      S-energy:    -0.00000000      T1 diagnostic:  0.00000087
 Norm of t2 vector:      0.25487757      P-energy:    -0.26919017
                                         Alpha-Beta:  -0.18912648
                                         Alpha-Alpha: -0.04003184
                                         Beta-Beta:   -0.04003184

 Spin contamination <S**2-Sz**2-Sz>     0.00000000
  Reference energy                   -126.609250365078
  RHF-RMP2 correlation energy          -0.269190170909
 !RHF-RMP2 energy                    -126.878440535987
 (NB above energy spin projected)

 Starting RCCSD calculation

 ITER.      SQ.NORM     CORR.ENERGY   TOTAL ENERGY   ENERGY CHANGE        DEN1      VAR(S)    VAR(P)  DIIS     TIME
   1      1.05590487    -0.24635715  -126.85560752    -0.24635715    -0.01205135  0.49D-02  0.20D-02  1  1     0.89
   2      1.06351097    -0.25561526  -126.86486563    -0.00925811    -0.00095146  0.54D-04  0.41D-03  2  2     1.05
   3      1.06740269    -0.25666697  -126.86591734    -0.00105171    -0.00011156  0.94D-04  0.27D-04  3  3     1.19
   4      1.06913521    -0.25727361  -126.86652397    -0.00060664    -0.00001431  0.60D-05  0.61D-05  4  4     1.35
   5      1.06993191    -0.25737947  -126.86662983    -0.00010586    -0.00000177  0.16D-05  0.51D-06  5  5     1.58
   6      1.07016801    -0.25739863  -126.86664900    -0.00001917    -0.00000015  0.53D-07  0.68D-07  6  6     1.69
   7      1.07020992    -0.25740473  -126.86665509    -0.00000610    -0.00000002  0.26D-07  0.40D-08  6  1     1.89
   8      1.07021397    -0.25740359  -126.86665396     0.00000114    -0.00000000  0.29D-08  0.65D-09  6  3     2.11
   9      1.07021698    -0.25740414  -126.86665450    -0.00000054    -0.00000000  0.33D-09  0.97D-10  6  2     2.45

 Norm of t1 vector:      0.09258495      S-energy:    -0.00000020      T1 diagnostic:  0.01543082
                                                                       D1 diagnostic:  0.02913058
 Norm of t2 vector:      0.24828412      P-energy:    -0.25740393
                                         Alpha-Beta:  -0.19088005
                                         Alpha-Alpha: -0.03326194
                                         Beta-Beta:   -0.03326194

 Spin contamination <S**2-Sz**2-Sz>     0.00000000

 Memory could be reduced to 5.53 Mwords without degradation in triples
 

  Correlated core orbitals:             1.1       1.2       1.3       1.5
  Orbital energies:                    -3.8520   -2.4174   -2.4174   -2.4174
 
  RCCSD core-core energy               -0.053231463493
  RCCSD core-valence energy            -0.086007259418
  RCCSD valence correlation energy     -0.118165412521
 

 RESULTS
 =======

  Reference energy                   -126.609250365078
  RCCSD singles energy                 -0.000000201730
  RCCSD pair energy                    -0.257403933702
  RCCSD correlation energy             -0.257404135432
  Triples (T) contribution             -0.007629578996
  Total correlation energy             -0.265033714428
 
  RHF-RCCSD energy                   -126.866654500510
  RHF-RCCSD[T] energy                -126.876596250099
  RHF-RCCSD-T energy                 -126.873703306308
 !RHF-RCCSD(T) energy                -126.874284079506

 Program statistics:

 Available memory in ccsd:               511999162
 Min. memory needed in ccsd:                717871
 Max. memory used in ccsd:                  996169
 Max. memory used in cckext:                841413 ( 9 integral passes)
 Max. memory used in cckint:                791862 ( 1 integral passes)



 **********************************************************************************************************************************
 DATASETS  * FILE   NREC   LENGTH (MB)   RECORD NAMES
              1      19       20.05       500      610      700      900      950      970     1000      129      960     1100   
                                          VAR    BASINP    GEOM    SYMINP    ZMAT    AOBASIS   BASIS     P2S    ABASIS      S 
                                         1400     1410     1420     1200     1210     1080     1600     1650     1700   
                                           T        V       ECP      H0       H01     AOSYM     SMH    MOLCAS    OPER   

              2       5        5.42       200      700     1000      520     4202   
                                        OPTIONS   GEOM     BASIS   MCVARS     RHF  

 PROGRAMS   *        TOTAL  RCCSD(T)       RHF       INT
 CPU TIMES  *         7.99      3.25      0.20      4.11
 REAL TIME  *        11.81 SEC
 DISK USED  *         1.42 GB      
 SF USED    *        80.23 MB      
 GA USED    *         0.00 MB       (max)       0.00 MB       (current)
 **********************************************************************************************************************************
 SETTING CCSD(1)        =      -126.87428408  AU                              

 DO I                   =         2.00000000   

 Running procedure=EAS2D9


 PROGRAM * RHF-SCF (OPEN SHELL)       Authors: W. Meyer, H.-J. Werner


 NUMBER OF ELECTRONS:      10+    9-    SPACE SYMMETRY=1    SPIN SYMMETRY: Doublet 
 CONVERGENCE THRESHOLDS:    1.00E-05 (Density)    1.00E-07 (Energy)
 MAX. NUMBER OF ITERATIONS:       60
 INTERPOLATION TYPE:            DIIS
 INTERPOLATION STEPS:              2 (START)      1 (STEP)
 LEVEL SHIFTS:                 -0.60 (CLOSED) -0.30 (OPEN) 

 Number of closed-shell orbitals:    9 (   3   1   1   1   1   1   1 )
 Number of open-shell orbitals:      1 (   1   0   0   0   0   0   0 )


 
 Extra symmetries of mos in symmetry 1:   1   1   3   2
 Orbital guess generated from atomic densities. Full valence occupancy:    4   1   1   1   1   1   1   0


 Molecular orbital dump at record        4202.2

 ITERATION    DDIFF          GRAD             ENERGY        2-EL.EN.            DIPOLE MOMENTS         DIIS   ORB.
    1      0.000D+00      0.000D+00      -126.59060041    206.918899    0.00000    0.00000    0.00000    0    start
    2      0.000D+00      0.315D-02      -126.59582231    206.654489    0.00000    0.00000    0.00000    1    diag,B
    3      0.271D-02      0.169D-02      -126.59884555    206.160414    0.00000    0.00000    0.00000    2    diag,B
    4      0.260D-02      0.122D-02      -126.60143489    205.785013    0.00000    0.00000    0.00000    3    diag,B
    5      0.344D-02      0.846D-03      -126.60340568    205.317459    0.00000    0.00000    0.00000    4    diag,B
    6      0.436D-02      0.532D-03      -126.60447168    205.000473    0.00000    0.00000    0.00000    5    diag,B
    7      0.407D-02      0.317D-03      -126.60488400    204.826641    0.00000    0.00000    0.00000    6    fixocc
    8      0.399D-02      0.216D-03      -126.60512286    204.704712    0.00000    0.00000    0.00000    7    diag,B
    9      0.741D-02      0.119D-03      -126.60519989    204.597476    0.00000    0.00000    0.00000    8    diag,B
   10      0.753D-02      0.360D-04      -126.60520256    204.602118    0.00000    0.00000    0.00000    9    orth
   11      0.159D-02      0.133D-04      -126.60520300    204.588907    0.00000    0.00000    0.00000    9    diag,B
   12      0.600D-03      0.579D-05      -126.60520305    204.592052    0.00000    0.00000    0.00000    9    diag,B
   13      0.749D-04      0.236D-05      -126.60520306    204.591613    0.00000    0.00000    0.00000    9    diag,B
   14      0.281D-04      0.132D-05      -126.60520306    204.591517    0.00000    0.00000    0.00000    9    diag,B
   15      0.115D-04      0.831D-06      -126.60520306    204.591637    0.00000    0.00000    0.00000    9    diag,B
   16      0.876D-05      0.596D-06      -126.60520305    204.591680    0.00000    0.00000    0.00000    0    orth

 Final alpha occupancy:   4   1   1   1   1   1   1
 Final beta  occupancy:   3   1   1   1   1   1   1

 !RHF STATE 1.1 Energy               -126.605203050888
 Nuclear energy                         0.00000000
 One-electron energy                 -228.90104288
 Two-electron energy                  102.29583983
 Virial quotient                       -2.63097080
 !RHF STATE 1.1 Dipole moment           0.00000000     0.00000000     0.00000000
 Dipole moment /Debye                   0.00000000     0.00000000     0.00000000

 ELECTRON ORBITALS
 =================


   Orb  Occ    Energy  Couls-En    Coefficients

                                   1 1s      1 1s      1 1s      1 1s      1 1s      1 1s      1 1s      1 1s      1 1s      1 1s   
                                   1 1s      1 1s      1 1s      1 1s      1 1s      1 1s      1 1s      1 1s      1 3d0     1 3d2+ 
                                   1 3d0     1 3d2+    1 3d0     1 3d2+    1 3d0     1 3d2+    1 3d0     1 3d2+    1 3d0     1 3d2+ 
                                   1 3d0     1 3d2+    1 3d0     1 3d2+    1 3d0     1 3d2+    1 3d0     1 3d2+    1 3d0     1 3d2+ 
                                   1 3d0     1 3d2+    1 3d0     1 3d2+    1 3d0     1 3d2+ 

   1.1   2    -3.8117  -20.0966  0.000000 -0.000001  0.000005 -0.000026  0.006503 -0.066404  0.218736 -0.382607 -0.388799  0.448063
                                 0.689469  0.288805  0.022081 -0.003622  0.001658 -0.000598 -0.018126  0.000215  0.000000 -0.000000
                                -0.000002 -0.000000  0.000041 -0.000002 -0.000176  0.000009 -0.000119 -0.000020  0.006564 -0.000189
                                 0.003777 -0.000141 -0.001231 -0.000028 -0.001318 -0.000007 -0.000388 -0.000005 -0.000080 -0.000000
                                -0.005421  0.000110 -0.002799  0.000056  0.000002 -0.000000

   2.1   2    -0.0223   -4.7532 -0.000000  0.000000 -0.000001  0.000006 -0.001289  0.013471 -0.045894  0.092904  0.068527 -0.037722
                                -0.152649 -0.169243  0.070686  0.145749  0.423017  0.115712 -0.097781  0.442414 -0.000000 -0.000000
                                -0.000001  0.000001 -0.000017  0.000004  0.000086 -0.000020 -0.000289  0.000085 -0.000578  0.000162
                                 0.001027  0.000175  0.002103  0.000149  0.003884  0.000050  0.006385 -0.000073  0.004343 -0.000073
                                -0.000807  0.000050 -0.001899  0.000059  0.003947 -0.000079

   3.1   2    -0.2493  -11.2614  0.000000 -0.000000  0.000000 -0.000000  0.000003 -0.000030  0.000105 -0.000211 -0.000181  0.000423
                                 0.000501  0.000087 -0.000306 -0.000288 -0.000132 -0.000007 -0.000166 -0.000002  0.000000 -0.000031
                                -0.000010  0.000911 -0.000060  0.005314  0.000300 -0.026689 -0.001272  0.113088 -0.002380  0.211826
                                -0.003156  0.280551 -0.003145  0.279197 -0.002180  0.193178 -0.000990  0.087540 -0.000225  0.019833
                                -0.000555  0.049169 -0.000318  0.028181 -0.000012  0.001074

   4.1   +    -0.3375  -11.5009  0.000000 -0.000000  0.000000 -0.000000 -0.000039  0.000574 -0.002203  0.005079  0.004054 -0.019573
                                -0.017038  0.005757  0.016363  0.008142 -0.007340 -0.003380  0.013501 -0.011979 -0.000031 -0.000000
                                 0.000923  0.000010  0.005447  0.000061 -0.027295 -0.000308  0.113861  0.001284  0.223945  0.002532
                                 0.294427  0.003322  0.283030  0.003183  0.180839  0.002031  0.067897  0.000767  0.010844  0.000125
                                 0.043347  0.000484  0.025886  0.000288  0.000279  0.000007

   5.1   0     0.1165   -1.7683 -0.000000  0.000002 -0.000017  0.000078 -0.002639  0.007527 -0.004114  0.046008 -0.238066  2.034475
                                 1.202446 -0.622116  0.994749 -2.065082  3.372996 -5.222357 -2.592921  3.460295 -0.000000  0.000000
                                 0.000011 -0.000000  0.000066 -0.000001 -0.000329  0.000005  0.001294 -0.000018  0.004921 -0.000110
                                 0.007171 -0.000173  0.003211 -0.000061 -0.000912  0.000040 -0.001224  0.000019 -0.002254  0.000063
                                -0.002238  0.000084 -0.003540  0.000124  0.000270 -0.000032

   6.1   0     0.1773   -1.7244  0.000000 -0.000000  0.000000 -0.000000  0.000020 -0.000175  0.000567 -0.001218 -0.000475 -0.002661
                                -0.000122  0.002839 -0.003305  0.001801 -0.010036  0.005111  0.005383 -0.003040 -0.000024 -0.000000
                                 0.000145  0.000002 -0.001417 -0.000018  0.005319  0.000069 -0.052285 -0.000680  1.247039  0.016166
                                 2.326093  0.030159  0.768762  0.009965 -0.484026 -0.006279  0.575848  0.007466 -0.978747 -0.012696
                                -1.720652 -0.022313 -2.361561 -0.030624  1.511959  0.019605

                                   1 2px     1 2px     1 2px     1 2px     1 2px     1 2px     1 2px     1 2px     1 2px     1 2px  
                                   1 2px     1 2px     1 2px     1 2px     1 2px  

   1.2   2    -2.3599  -16.9214  0.000012 -0.003811  0.058646 -0.117422 -0.134832  0.196463  0.312339  0.119515  0.011759  0.002421
                                -0.000244  0.000373  0.131144  0.412439 -0.000072

   2.2   0     0.0946   -1.2287  0.000027 -0.001562  0.007028 -0.017074  0.031355 -0.358989  0.247719 -0.260946  0.375657 -0.670864
                                 1.292209 -2.159595  0.495227 -0.290491  2.127298

   3.2   0     0.1657   -2.1458 -0.000045  0.002810 -0.015431  0.036280 -0.043452  0.578133 -0.438320  0.433780 -0.617778  1.239951
                                -2.239907  3.493433 -0.828081  0.452426 -1.502283

                                   1 2py     1 2py     1 2py     1 2py     1 2py     1 2py     1 2py     1 2py     1 2py     1 2py  
                                   1 2py     1 2py     1 2py     1 2py     1 2py  

   1.3   2    -2.3602  -16.9219  0.000012 -0.003811  0.058647 -0.117418 -0.134848  0.196410  0.312357  0.119441  0.011722  0.002415
                                -0.000246  0.000373  0.131213  0.412490 -0.000072

   2.3   0     0.0946   -1.2288  0.000027 -0.001562  0.007026 -0.017070  0.031354 -0.358948  0.247680 -0.260915  0.375629 -0.670754
                                 1.292083 -2.159283  0.495161 -0.290466  2.127147

   3.3   0     0.1657   -2.1470 -0.000045  0.002809 -0.015430  0.036275 -0.043404  0.577735 -0.438112  0.433514 -0.617261  1.239360
                                -2.238141  3.491954 -0.827584  0.452066 -1.501993

                                   1 3d2-    1 3d2-    1 3d2-    1 3d2-    1 3d2-    1 3d2-    1 3d2-    1 3d2-    1 3d2-    1 3d2- 
                                   1 3d2-    1 3d2-    1 3d2-    1 3d2- 

   1.4   2    -0.2493  -11.2614 -0.000031  0.000911  0.005315 -0.026691  0.113096  0.211840  0.280570  0.279215  0.193190  0.087544
                                 0.019833  0.049172  0.028183  0.001074

   2.4   0     0.1778   -1.7225 -0.000024  0.000140 -0.001461  0.005530 -0.053390  1.253477  2.338706  0.771623 -0.488811  0.577665
                                -0.987620 -1.731697 -2.376307  1.516330

   3.4   0     0.3623   -2.5665  0.000059 -0.000524  0.001840 -0.005348  0.086667 -2.761350 -5.170463 -1.780932  1.072043 -1.396997
                                 2.428140  3.735189  5.194666 -1.075313

                                   1 2pz     1 2pz     1 2pz     1 2pz     1 2pz     1 2pz     1 2pz     1 2pz     1 2pz     1 2pz  
                                   1 2pz     1 2pz     1 2pz     1 2pz     1 2pz  

   1.5   2    -2.3712  -16.9421  0.000012 -0.003815  0.058669 -0.117267 -0.135473  0.194394  0.313013  0.116664  0.010325  0.002225
                                -0.000303  0.000375  0.133839  0.414437 -0.000075

   2.5   0     0.0944   -1.2332  0.000027 -0.001550  0.006940 -0.016881  0.031315 -0.357477  0.246237 -0.259748  0.374735 -0.666621
                                 1.287606 -2.147677  0.492767 -0.289613  2.121442

   3.5   0     0.1640   -2.1976 -0.000044  0.002761 -0.015410  0.036136 -0.041493  0.562247 -0.430219  0.423310 -0.596703  1.216720
                                -2.169069  3.433033 -0.808386  0.437899 -1.490073

                                   1 3d1+    1 3d1+    1 3d1+    1 3d1+    1 3d1+    1 3d1+    1 3d1+    1 3d1+    1 3d1+    1 3d1+ 
                                   1 3d1+    1 3d1+    1 3d1+    1 3d1+ 

   1.6   2    -0.2805  -11.3473 -0.000031  0.000916  0.005363 -0.026928  0.113659  0.215501  0.284607  0.280611  0.189537  0.080632
                                 0.016186  0.047799  0.027744  0.000718

   2.6   0     0.1775   -1.7237 -0.000024  0.000142 -0.001444  0.005449 -0.052939  1.249602  2.331313  0.769657 -0.486512  0.576405
                                -0.982901 -1.725596 -2.368124  1.514102

   3.6   0     0.3605   -2.5653  0.000059 -0.000516  0.001845 -0.005405  0.086413 -2.738052 -5.126985 -1.764918  1.064642 -1.380638
                                 2.419134  3.704864  5.151926 -1.075356

                                   1 3d1-    1 3d1-    1 3d1-    1 3d1-    1 3d1-    1 3d1-    1 3d1-    1 3d1-    1 3d1-    1 3d1- 
                                   1 3d1-    1 3d1-    1 3d1-    1 3d1- 

   1.7   2    -0.2814  -11.3494 -0.000031  0.000916  0.005364 -0.026934  0.113673  0.215596  0.284712  0.280645  0.189440  0.080458
                                 0.016100  0.047761  0.027731  0.000710

   2.7   0     0.1775   -1.7238 -0.000024  0.000142 -0.001443  0.005447 -0.052927  1.249488  2.331096  0.769597 -0.486450  0.576366
                                -0.982770 -1.725420 -2.367888  1.514040

   3.7   0     0.3605   -2.5653  0.000059 -0.000516  0.001845 -0.005406  0.086404 -2.737423 -5.125810 -1.764488  1.064437 -1.380201
                                 2.418893  3.704040  5.150766 -1.075359

 HOMO      1.4    -0.249347 =      -6.7851eV
 LUMO      2.5     0.094426 =       2.5695eV
 LUMO-HOMO         0.343773 =       9.3545eV


 **********************************************************************************************************************************
 DATASETS  * FILE   NREC   LENGTH (MB)   RECORD NAMES
              1      19       20.05       500      610      700      900      950      970     1000      129      960     1100   
                                          VAR    BASINP    GEOM    SYMINP    ZMAT    AOBASIS   BASIS     P2S    ABASIS      S 
                                         1400     1410     1420     1200     1210     1080     1600     1650     1700   
                                           T        V       ECP      H0       H01     AOSYM     SMH    MOLCAS    OPER   

              2       5        5.45       200      700     1000      520     4202   
                                        OPTIONS   GEOM     BASIS   MCVARS     RHF  

 PROGRAMS   *        TOTAL       RHF  RCCSD(T)       RHF       INT
 CPU TIMES  *         8.33      0.33      3.25      0.20      4.11
 REAL TIME  *        12.33 SEC
 DISK USED  *         1.42 GB      
 SF USED    *        80.23 MB      
 GA USED    *         0.00 MB       (max)       0.00 MB       (current)
 **********************************************************************************************************************************


 PROGRAM * POP (Mulliken population analysis)

 
 Density matrix read from record         4202.2  Type=RHF/CHARGE (state 1.1)
 
 Population analysis by basis function type

 Unique atom        s        p        d        f        g    Total    Charge
   1  PD      3.99986  6.00000  9.00014  0.00000  0.00000 19.00000  - 1.00000


 **********************************************************************************************************************************
 DATASETS  * FILE   NREC   LENGTH (MB)   RECORD NAMES
              1      19       20.05       500      610      700      900      950      970     1000      129      960     1100   
                                          VAR    BASINP    GEOM    SYMINP    ZMAT    AOBASIS   BASIS     P2S    ABASIS      S 
                                         1400     1410     1420     1200     1210     1080     1600     1650     1700   
                                           T        V       ECP      H0       H01     AOSYM     SMH    MOLCAS    OPER   

              2       5        5.45       200      700     1000      520     4202   
                                        OPTIONS   GEOM     BASIS   MCVARS     RHF  

 PROGRAMS   *        TOTAL       POP       RHF  RCCSD(T)       RHF       INT
 CPU TIMES  *         8.33      0.00      0.33      3.25      0.20      4.11
 REAL TIME  *        12.34 SEC
 DISK USED  *         1.42 GB      
 SF USED    *        80.23 MB      
 GA USED    *         0.00 MB       (max)       0.00 MB       (current)
 **********************************************************************************************************************************


 PROGRAM * MULTI (Direct Multiconfiguration SCF)       Authors: P.J. Knowles, H.-J. Werner (1984)     S.T. Elbert (1988)


 Number of closed-shell orbitals:   5 (   2   1   1   0   1   0   0   0 )
 Number of active  orbitals:        5 (   2   0   0   1   0   1   1   0 )
 Number of external orbitals:     123 (  42  14  14  13  14  13  13   0 )

 State symmetry 1

 Number of electrons:     9    Spin symmetry=Doublet   Space symmetry=1
 Number of states:        2
 Number of CSFs:          2   (2 determinants, 5 intermediate states)

 State symmetry 2

 Number of electrons:     9    Spin symmetry=Doublet   Space symmetry=4
 Number of states:        1
 Number of CSFs:          1   (1 determinants, 5 intermediate states)

 State symmetry 3

 Number of electrons:     9    Spin symmetry=Doublet   Space symmetry=6
 Number of states:        1
 Number of CSFs:          1   (1 determinants, 5 intermediate states)

 State symmetry 4

 Number of electrons:     9    Spin symmetry=Doublet   Space symmetry=7
 Number of states:        1
 Number of CSFs:          1   (1 determinants, 5 intermediate states)

 Molecular orbitals read from record     4202.2  Type=RHF/CANONICAL (state 1.1)
 *** IN SYMMETRY 1 ORBITAL  1 SYMMETRY CONTAMINATION OF 0.879D-02 HAS BEEN REMOVED
 *** IN SYMMETRY 1 ORBITAL  2 SYMMETRY CONTAMINATION OF 0.138D-01 HAS BEEN REMOVED
 *** IN SYMMETRY 1 ORBITAL  3 SYMMETRY CONTAMINATION OF 0.130D-01 HAS BEEN REMOVED
 *** IN SYMMETRY 1 ORBITAL  4 SYMMETRY CONTAMINATION OF 0.920D-01 HAS BEEN REMOVED

 EXTRA SYMMETRY OF MOS IN SYMMETRY 1:   1 1 3 2 1 2 3 1 2 3   1 2 3 1 2 3 1 1 3 2   3 1 2 3 1 2 3 2 3 1   2 3 1 2 3 1 1 2 3 1
                                        2 3 1 1 1 2

 Wavefunction dump at record             5202.2

 Convergence thresholds  0.10E-01 (gradient)  0.10E-05 (energy)  0.10E-02 (step length)

 Weight factors for state symmetry  1:    0.20000   0.20000
 Weight factors for state symmetry  2:    0.20000
 Weight factors for state symmetry  3:    0.20000
 Weight factors for state symmetry  4:    0.20000

 Number of orbital rotations:      253   (     4 Core/Active    126 Core/Virtual   0 Active/Active    123 Active/Virtual)
 Total number of variables:        260


 ITER. MIC  NCI  NEG     ENERGY(VAR)     ENERGY(PROJ)   ENERGY CHANGE     GRAD(0)  GRAD(ORB)   GRAD(CI)     STEP       TIME

   1   38   16    0    -126.60283466    -126.60397882   -0.00114415    0.04880626 0.00000000 0.00000000  0.31D-01      0.07
   2   33   20    0    -126.60397949    -126.60397968   -0.00000019    0.00054556 0.00000000 0.00000000  0.95D-03      0.14
   3   26   20    0    -126.60397968    -126.60397968   -0.00000000    0.00000015 0.00000000 0.00000000  0.45D-06      0.21

 ** WVFN ****  CONVERGENCE REACHED, FINAL GRADIENT:  0.58D-11



 Results for state 1.1
 =====================

 !MCSCF STATE 1.1 Energy             -126.603979679642
 Nuclear energy                         0.00000000
 Kinetic energy                        48.12227663
 One electron energy                 -228.90511112
 Two electron energy                  102.30113144
 Virial ratio                           3.63088093

 !MCSCF STATE 1.1 Dipole moment         0.00000000     0.00000000     0.00000000
 Dipole moment /Debye                   0.00000000     0.00000000     0.00000000

 Results for state 2.1
 =====================

 !MCSCF STATE 2.1 Energy             -126.603979679642
 Nuclear energy                         0.00000000
 Kinetic energy                        48.12227663
 One electron energy                 -228.90511112
 Two electron energy                  102.30113144
 Virial ratio                           3.63088093

 !MCSCF STATE 2.1 Dipole moment         0.00000000     0.00000000     0.00000000
 Dipole moment /Debye                   0.00000000     0.00000000     0.00000000



 Results for state 1.4
 =====================

 !MCSCF STATE 1.4 Energy             -126.603979679642
 Nuclear energy                         0.00000000
 Kinetic energy                        48.12227663
 One electron energy                 -228.90511112
 Two electron energy                  102.30113144
 Virial ratio                           3.63088093

 !MCSCF STATE 1.4 Dipole moment         0.00000000     0.00000000     0.00000000
 Dipole moment /Debye                   0.00000000     0.00000000     0.00000000



 Results for state 1.6
 =====================

 !MCSCF STATE 1.6 Energy             -126.603979679642
 Nuclear energy                         0.00000000
 Kinetic energy                        48.12227663
 One electron energy                 -228.90511112
 Two electron energy                  102.30113144
 Virial ratio                           3.63088093

 !MCSCF STATE 1.6 Dipole moment         0.00000000     0.00000000     0.00000000
 Dipole moment /Debye                   0.00000000     0.00000000     0.00000000



 Results for state 1.7
 =====================

 !MCSCF STATE 1.7 Energy             -126.603979679642
 Nuclear energy                         0.00000000
 Kinetic energy                        48.12227663
 One electron energy                 -228.90511112
 Two electron energy                  102.30113144
 Virial ratio                           3.63088093

 !MCSCF STATE 1.7 Dipole moment         0.00000000     0.00000000     0.00000000
 Dipole moment /Debye                   0.00000000     0.00000000     0.00000000

 State-averaged charge density matrix saved on record  5202.2 (density set 1)


 NATURAL ORBITALS (state averaged)
 =================================

   Orb     Occ        Energy       Coefficients

                                   1 1s      1 1s      1 1s      1 1s      1 1s      1 1s      1 1s      1 1s      1 1s      1 1s   
                                   1 1s      1 1s      1 1s      1 1s      1 1s      1 1s      1 1s      1 1s      1 3d0     1 3d2+ 
                                   1 3d0     1 3d2+    1 3d0     1 3d2+    1 3d0     1 3d2+    1 3d0     1 3d2+    1 3d0     1 3d2+ 
                                   1 3d0     1 3d2+    1 3d0     1 3d2+    1 3d0     1 3d2+    1 3d0     1 3d2+    1 3d0     1 3d2+ 
                                   1 3d0     1 3d2+    1 3d0     1 3d2+    1 3d0     1 3d2+ 

   1.1  2.00000    -3.811461     0.000000 -0.000001  0.000005 -0.000026  0.006503 -0.066401  0.218724 -0.382584 -0.388763  0.447968
                                 0.689296  0.288868  0.022199 -0.003579  0.001624 -0.000618 -0.018041  0.000151  0.000000  0.000000
                                 0.000000  0.000000  0.000000  0.000000  0.000000  0.000000  0.000000  0.000000  0.000000  0.000000
                                 0.000000  0.000000  0.000000  0.000000  0.000000  0.000000  0.000000  0.000000  0.000000  0.000000
                                 0.000000  0.000000  0.000000  0.000000  0.000000  0.000000

   2.1  2.00000    -0.022145    -0.000000  0.000000 -0.000001  0.000006 -0.001289  0.013463 -0.045865  0.092851  0.068435 -0.037326
                                -0.152275 -0.169199  0.070613  0.145088  0.423330  0.114965 -0.098205  0.443600  0.000000  0.000000
                                 0.000000  0.000000  0.000000  0.000000  0.000000  0.000000  0.000000  0.000000  0.000000  0.000000
                                 0.000000  0.000000  0.000000  0.000000  0.000000  0.000000  0.000000  0.000000  0.000000  0.000000
                                 0.000000  0.000000  0.000000  0.000000  0.000000  0.000000

   3.1  1.80000    -0.212253     0.000000  0.000000  0.000000  0.000000  0.000000  0.000000  0.000000  0.000000  0.000000  0.000000
                                 0.000000  0.000000  0.000000  0.000000  0.000000  0.000000  0.000000  0.000000 -0.000031  0.000000
                                 0.000914  0.000000  0.005352  0.000000 -0.026867  0.000000  0.113456  0.000000  0.214810  0.000000
                                 0.283875  0.000000  0.280321  0.000000  0.190316  0.000000  0.082183  0.000000  0.016992  0.000000
                                 0.047953  0.000000  0.027769  0.000000  0.000788  0.000000

   4.1  1.80000    -0.212253     0.000000  0.000000  0.000000  0.000000  0.000000  0.000000  0.000000  0.000000  0.000000  0.000000
                                 0.000000  0.000000  0.000000  0.000000  0.000000  0.000000  0.000000  0.000000  0.000000 -0.000031
                                 0.000000  0.000914  0.000000  0.005352  0.000000 -0.026867  0.000000  0.113456  0.000000  0.214810
                                 0.000000  0.283875  0.000000  0.280321  0.000000  0.190316  0.000000  0.082183  0.000000  0.016992
                                 0.000000  0.047953  0.000000  0.027769  0.000000  0.000788

                                   1 2px     1 2px     1 2px     1 2px     1 2px     1 2px     1 2px     1 2px     1 2px     1 2px  
                                   1 2px     1 2px     1 2px     1 2px     1 2px  

   1.2  2.00000    -2.363562     0.000012 -0.003812  0.058653 -0.117366 -0.135048  0.195753  0.312572  0.118573  0.011274  0.002350
                                -0.000265  0.000374  0.132061  0.413097 -0.000073

                                   1 2py     1 2py     1 2py     1 2py     1 2py     1 2py     1 2py     1 2py     1 2py     1 2py  
                                   1 2py     1 2py     1 2py     1 2py     1 2py  

   1.3  2.00000    -2.363562     0.000012 -0.003812  0.058653 -0.117366 -0.135048  0.195753  0.312572  0.118573  0.011274  0.002350
                                -0.000265  0.000374  0.132061  0.413097 -0.000073

                                   1 3d2-    1 3d2-    1 3d2-    1 3d2-    1 3d2-    1 3d2-    1 3d2-    1 3d2-    1 3d2-    1 3d2- 
                                   1 3d2-    1 3d2-    1 3d2-    1 3d2- 

   1.4  1.80000    -0.212253    -0.000031  0.000914  0.005352 -0.026867  0.113456  0.214810  0.283875  0.280321  0.190316  0.082183
                                 0.016992  0.047953  0.027769  0.000788

                                   1 2pz     1 2pz     1 2pz     1 2pz     1 2pz     1 2pz     1 2pz     1 2pz     1 2pz     1 2pz  
                                   1 2pz     1 2pz     1 2pz     1 2pz     1 2pz  

   1.5  2.00000    -2.363562     0.000012 -0.003812  0.058653 -0.117366 -0.135048  0.195753  0.312572  0.118573  0.011274  0.002350
                                -0.000265  0.000374  0.132061  0.413097 -0.000073

                                   1 3d1+    1 3d1+    1 3d1+    1 3d1+    1 3d1+    1 3d1+    1 3d1+    1 3d1+    1 3d1+    1 3d1+ 
                                   1 3d1+    1 3d1+    1 3d1+    1 3d1+ 

   1.6  1.80000    -0.212253    -0.000031  0.000914  0.005352 -0.026867  0.113456  0.214810  0.283875  0.280321  0.190316  0.082183
                                 0.016992  0.047953  0.027769  0.000788

                                   1 3d1-    1 3d1-    1 3d1-    1 3d1-    1 3d1-    1 3d1-    1 3d1-    1 3d1-    1 3d1-    1 3d1- 
                                   1 3d1-    1 3d1-    1 3d1-    1 3d1- 

   1.7  1.80000    -0.212253    -0.000031  0.000914  0.005352 -0.026867  0.113456  0.214810  0.283875  0.280321  0.190316  0.082183
                                 0.016992  0.047953  0.027769  0.000788

 Total charge:  -1.000000000000
 

 EXTRA SYMMETRY OF MOS IN SYMMETRY 1:   1 1 2 3 1 2 3 1 3 2   1 3 2 1 3 2 1 3 2 3   2 1 3 2 1 3 2 3 2 1   3 2 1 3 2 1 1 3 2 1
                                        2 3 1 1 1 1

 Natural orbital dump (state averaged) at molpro section  5202.2    (Orbital set 2)


 CI vector for state symmetry 1
 ==============================

 a2 2 2 2          0.0000000   1.0000000
 2a 2 2 2          1.0000000   0.0000000

 TOTAL ENERGIES                      -126.60397968  -126.60397968

 CI vector for state symmetry 2
 ==============================

 22 a 2 2          1.0000000

 TOTAL ENERGIES                      -126.60397968

 CI vector for state symmetry 3
 ==============================

 22 2 a 2          1.0000000

 TOTAL ENERGIES                      -126.60397968

 CI vector for state symmetry 4
 ==============================

 22 2 2 a          1.0000000

 TOTAL ENERGIES                      -126.60397968



 **********************************************************************************************************************************
 DATASETS  * FILE   NREC   LENGTH (MB)   RECORD NAMES
              1      20       21.75       500      610      700      900      950      970     1000      129      960     1100   
                                          VAR    BASINP    GEOM    SYMINP    ZMAT    AOBASIS   BASIS     P2S    ABASIS      S 
                                         1400     1410     1420     1200     1210     1080     1600     1650     1700     1380   
                                           T        V       ECP      H0       H01     AOSYM     SMH    MOLCAS    OPER     JKOP   

              2       6        8.07       200      700     1000      520     4202     5202   
                                        OPTIONS   GEOM     BASIS   MCVARS     RHF     MCSCF   

 PROGRAMS   *        TOTAL     MULTI       POP       RHF  RCCSD(T)       RHF       INT
 CPU TIMES  *         8.71      0.38      0.00      0.33      3.25      0.20      4.11
 REAL TIME  *        13.47 SEC
 DISK USED  *         1.42 GB      
 SF USED    *        80.23 MB      
 GA USED    *         0.00 MB       (max)       0.00 MB       (current)
 **********************************************************************************************************************************


 PROGRAM * RHF-SCF (OPEN SHELL)       Authors: W. Meyer, H.-J. Werner


 NUMBER OF ELECTRONS:      10+    9-    SPACE SYMMETRY=1    SPIN SYMMETRY: Doublet 
 CONVERGENCE THRESHOLDS:    1.00E-05 (Density)    1.00E-07 (Energy)
 MAX. NUMBER OF ITERATIONS:        0
 INTERPOLATION TYPE:            DIIS
 INTERPOLATION STEPS:              2 (START)      1 (STEP)
 LEVEL SHIFTS:                 -0.60 (CLOSED) -0.30 (OPEN) 

 Number of closed-shell orbitals:    9 (   3   1   1   1   1   1   1 )
 Number of open-shell orbitals:      1 (   1   0   0   0   0   0   0 )


 Molecular orbitals read from record     5202.2  Type=MCSCF/NATURAL (state averaged)

 Molecular orbital dump at record        2102.2

 ITERATION    DDIFF          GRAD             ENERGY        2-EL.EN.            DIPOLE MOMENTS         DIIS   ORB.
    1      0.000D+00      0.000D+00      -126.60397968    204.602263    0.00000    0.00000    0.00000    0    start

 Final alpha occupancy:   4   1   1   1   1   1   1
 Final beta  occupancy:   3   1   1   1   1   1   1

 !RHF STATE 1.1 Energy               -126.603979679642
 Nuclear energy                         0.00000000
 One-electron energy                 -228.90511112
 Two-electron energy                  102.30113144
 Virial quotient                       -2.63088093
 !RHF STATE 1.1 Dipole moment           0.00000000     0.00000000     0.00000000
 Dipole moment /Debye                   0.00000000     0.00000000     0.00000000

 Orbital energies:

         1.1          2.1          3.1          4.1          5.1          6.1
     -3.811461    -0.022145    -0.212253    -0.212253     0.116902     0.177580

         1.2          2.2          3.2
     -2.363562     0.094526     0.165333

         1.3          2.3          3.3
     -2.363562     0.094526     0.165333

         1.4          2.4          3.4
     -0.212253     0.177580     0.361678

         1.5          2.5          3.5
     -2.363562     0.094526     0.165333

         1.6          2.6          3.6
     -0.212253     0.177580     0.361678

         1.7          2.7          3.7
     -0.212253     0.177580     0.361678

 HOMO      4.1    -0.212253 =      -5.7757eV
 LUMO      2.2     0.094526 =       2.5722eV
 LUMO-HOMO         0.306779 =       8.3479eV


 **********************************************************************************************************************************
 DATASETS  * FILE   NREC   LENGTH (MB)   RECORD NAMES
              1      20       21.75       500      610      700      900      950      970     1000      129      960     1100   
                                          VAR    BASINP    GEOM    SYMINP    ZMAT    AOBASIS   BASIS     P2S    ABASIS      S 
                                         1400     1410     1420     1200     1210     1080     1600     1650     1700     1380   
                                           T        V       ECP      H0       H01     AOSYM     SMH    MOLCAS    OPER     JKOP   

              2       7       10.75       200      700     1000      520     4202     5202     2102   
                                        OPTIONS   GEOM     BASIS   MCVARS     RHF     MCSCF     RHF  

 PROGRAMS   *        TOTAL       RHF     MULTI       POP       RHF  RCCSD(T)       RHF       INT
 CPU TIMES  *         8.90      0.19      0.38      0.00      0.33      3.25      0.20      4.11
 REAL TIME  *        13.71 SEC
 DISK USED  *         1.42 GB      
 SF USED    *        80.23 MB      
 GA USED    *         0.00 MB       (max)       0.00 MB       (current)
 **********************************************************************************************************************************
 SETTING SCF(2)         =      -126.60397968  AU                              
 SETTING _CC_NORM_MAX   =         2.00000000                                  


 PROGRAM * CCSD (Restricted open-shell coupled cluster)     Authors: C. Hampel, H.-J. Werner, 1991, M. Deegan, P.J. Knowles, 1992


 Convergence thresholds:  THRVAR = 1.00D-08  THRDEN = 1.00D-06

 CCSD(T)     terms to be evaluated (factor= 1.000)


 Number of closed-shell orbitals:   9 (   3   1   1   1   1   1   1 )
 Number of active  orbitals:        1 (   1   0   0   0   0   0   0 )
 Number of external orbitals:     123 (  42  14  14  13  14  13  13 )

 Memory could be reduced to 5.99 Mwords without degradation in triples

 Number of N-1 electron functions:              19
 Number of N-2 electron functions:             171
 Number of singly external CSFs:               463
 Number of doubly external CSFs:            262620
 Total number of CSFs:                      263083

 Molecular orbitals read from record     2102.2  Type=RHF/CANONICAL (state 1.1)

 Integral transformation finished. Total CPU:   0.44 sec, npass=  1  Memory used:   0.84 MW

 Starting RMP2 calculation

 Wavefunction is spin-projected

 ITER.      SQ.NORM     CORR.ENERGY   TOTAL ENERGY   ENERGY CHANGE        DEN1      VAR(S)    VAR(P)  DIIS     TIME
   1      1.08099433    -0.25595618  -126.85993586    -0.25595618    -0.00157073  0.16D-04  0.16D-02  1  1     0.60
   2      1.08577771    -0.25770578  -126.86168546    -0.00174960    -0.00004662  0.36D-06  0.75D-04  2  2     0.77
   3      1.08700402    -0.25797265  -126.86195233    -0.00026686    -0.00000082  0.11D-07  0.14D-05  3  3     0.94
   4      1.08711202    -0.25798456  -126.86196424    -0.00001191    -0.00000002  0.43D-09  0.40D-07  4  4     1.08
   5      1.08711784    -0.25798471  -126.86196439    -0.00000015    -0.00000000  0.20D-10  0.92D-09  5  5     1.26

 Norm of t1 vector:      0.02992877      S-energy:    -0.00104209      T1 diagnostic:  0.00441503
 Norm of t2 vector:      0.29363602      P-energy:    -0.25694262
                                         Alpha-Beta:  -0.18542682
                                         Alpha-Alpha: -0.03975121
                                         Beta-Beta:   -0.03176459

 Spin contamination <S**2-Sz**2-Sz>     0.00000000
  Reference energy                   -126.603979679642
  RHF-RMP2 correlation energy          -0.257984712034
 !RHF-RMP2 energy                    -126.861964391676
 (NB above energy spin projected)

 Starting RCCSD calculation

 ITER.      SQ.NORM     CORR.ENERGY   TOTAL ENERGY   ENERGY CHANGE        DEN1      VAR(S)    VAR(P)  DIIS     TIME
   1      1.09144649    -0.25100219  -126.85498187    -0.25100219    -0.01196232  0.43D-02  0.54D-02  1  1     1.54
   2      1.11767452    -0.26185091  -126.86583059    -0.01084871    -0.00216631  0.11D-02  0.15D-02  2  2     1.77
   3      1.14189297    -0.26626667  -126.87024635    -0.00441577    -0.00051223  0.56D-03  0.26D-03  3  3     2.02
   4      1.16333019    -0.26911205  -126.87309172    -0.00284537    -0.00008235  0.12D-03  0.40D-04  4  4     2.29
   5      1.17147824    -0.26966851  -126.87364819    -0.00055647    -0.00002211  0.37D-04  0.13D-04  5  5     2.45
   6      1.17578869    -0.26989737  -126.87387705    -0.00022886    -0.00000639  0.11D-04  0.44D-05  6  6     2.66
   7      1.17806256    -0.26998243  -126.87396211    -0.00008506    -0.00000144  0.24D-05  0.94D-06  6  1     2.92
   8      1.17932939    -0.27001534  -126.87399502    -0.00003291    -0.00000018  0.26D-06  0.90D-07  6  2     3.15
   9      1.17959069    -0.27002542  -126.87400510    -0.00001008    -0.00000004  0.54D-07  0.22D-07  6  3     3.40
  10      1.17967666    -0.27002646  -126.87400614    -0.00000104    -0.00000001  0.11D-07  0.60D-08  6  4     3.64
  11      1.17972881    -0.27002767  -126.87400735    -0.00000121    -0.00000000  0.24D-08  0.11D-08  6  5     3.83
  12      1.17973939    -0.27002729  -126.87400697     0.00000038    -0.00000000  0.67D-09  0.33D-09  6  6     4.07

 Norm of t1 vector:      0.20370051      S-energy:    -0.00171119      T1 diagnostic:  0.03259955
                                                                       D1 diagnostic:  0.11952453
 Norm of t2 vector:      0.37181379      P-energy:    -0.26831609
                                         Alpha-Beta:  -0.20347265
                                         Alpha-Alpha: -0.03546697
                                         Beta-Beta:   -0.02937648

 Singles amplitudes (print threshold =  0.500E-01):

         I         SYM. A    A   T(IA) [Alpha-Alpha]

         2         1         2     -0.10598557
         2         1         5     -0.07422612
 
         I         SYM. A    A   T(IA) [Beta-Beta]

         2         1         2     -0.08620046
         2         1         5     -0.05177931

 Doubles amplitudes (print threshold =  0.500E-01):

         I         J         SYM. A    SYM. B    A         B      T(IJ, AB) [Alpha-Beta]

         2         2         2         2         2         2     -0.05902373
         2         2         2         2         2         3     -0.05883407
         2         2         2         2         3         2     -0.05883407
         2         2         2         2         3         3     -0.06357887
         2         2         3         3         2         2     -0.05902373
         2         2         3         3         2         3     -0.05883407
         2         2         3         3         3         2     -0.05883407
         2         2         3         3         3         3     -0.06357887
         2         2         5         5         2         2     -0.05476872
         2         2         5         5         2         3     -0.05449912
         2         2         5         5         3         2     -0.05449912
         2         2         5         5         3         3     -0.05919627

 Spin contamination <S**2-Sz**2-Sz>     0.00000000

 Memory could be reduced to 6.04 Mwords without degradation in triples
 

  Correlated core orbitals:             1.1       1.2       1.3       1.5
  Orbital energies:                    -3.8454   -2.4272   -2.4272   -2.3642
 
  RCCSD core-core energy               -0.055461026593
  RCCSD core-valence energy            -0.081386121835
  RCCSD valence correlation energy     -0.133180138211
 

 RESULTS
 =======

  Reference energy                   -126.603979679642
  RCCSD singles energy                 -0.001711194999
  RCCSD pair energy                    -0.268316091639
  RCCSD correlation energy             -0.270027286639
  Triples (T) contribution             -0.009179364231
  Total correlation energy             -0.279206650870
 
  RHF-RCCSD energy                   -126.874006966281
  RHF-RCCSD[T] energy                -126.884637925889
  RHF-RCCSD-T energy                 -126.882457599752
 !RHF-RCCSD(T) energy                -126.883186330512

 Program statistics:

 Available memory in ccsd:               511999000
 Min. memory needed in ccsd:                805757
 Max. memory used in ccsd:                 1121018
 Max. memory used in cckext:                940648 (12 integral passes)
 Max. memory used in cckint:                837001 ( 1 integral passes)



 **********************************************************************************************************************************
 DATASETS  * FILE   NREC   LENGTH (MB)   RECORD NAMES
              1      20       21.75       500      610      700      900      950      970     1000      129      960     1100   
                                          VAR    BASINP    GEOM    SYMINP    ZMAT    AOBASIS   BASIS     P2S    ABASIS      S 
                                         1400     1410     1420     1200     1210     1080     1600     1650     1700     1380   
                                           T        V       ECP      H0       H01     AOSYM     SMH    MOLCAS    OPER     JKOP   

              2       7       10.75       200      700     1000      520     4202     5202     2102   
                                        OPTIONS   GEOM     BASIS   MCVARS     RHF     MCSCF     RHF  

 PROGRAMS   *        TOTAL  RCCSD(T)       RHF     MULTI       POP       RHF  RCCSD(T)       RHF       INT
 CPU TIMES  *        13.93      5.03      0.19      0.38      0.00      0.33      3.25      0.20      4.11
 REAL TIME  *        20.23 SEC
 DISK USED  *         1.67 GB      
 SF USED    *        91.29 MB      
 GA USED    *         0.00 MB       (max)       0.00 MB       (current)
 **********************************************************************************************************************************
 SETTING CCSD(2)        =      -126.88318633  AU                              

 DO I                   =         3.00000000   

 Running procedure=IS1D9


 PROGRAM * RHF-SCF (OPEN SHELL)       Authors: W. Meyer, H.-J. Werner


 NUMBER OF ELECTRONS:      10+    8-    SPACE SYMMETRY=1    SPIN SYMMETRY: Triplet 
 CONVERGENCE THRESHOLDS:    1.00E-05 (Density)    1.00E-07 (Energy)
 MAX. NUMBER OF ITERATIONS:       60
 INTERPOLATION TYPE:            DIIS
 INTERPOLATION STEPS:              2 (START)      1 (STEP)
 LEVEL SHIFTS:                 -0.60 (CLOSED) -0.30 (OPEN) 

 Number of closed-shell orbitals:    8 (   2   1   1   1   1   1   1 )
 Number of open-shell orbitals:      2 (   2   0   0   0   0   0   0 )


 
 Extra symmetries of mos in symmetry 1:   1   3   2   1
 Orbital guess generated from atomic densities. Full valence occupancy:    4   1   1   1   1   1   1   0


 Molecular orbital dump at record        4202.2

 ITERATION    DDIFF          GRAD             ENERGY        2-EL.EN.            DIPOLE MOMENTS         DIIS   ORB.
    1      0.000D+00      0.000D+00      -126.59903678    195.925799    0.00000    0.00000    0.00000    0    start
    2      0.000D+00      0.408D-02      -126.60368726    197.526982    0.00000    0.00000    0.00000    1    diag,B
    3      0.165D-02      0.210D-02      -126.60441159    197.375660    0.00000    0.00000    0.00000    2    diag,B
    4      0.683D-03      0.581D-03      -126.60482997    197.509443    0.00000    0.00000    0.00000    3    diag,B
    5      0.915D-03      0.221D-03      -126.60497714    197.583429    0.00000    0.00000    0.00000    4    diag,B
    6      0.766D-03      0.996D-04      -126.60502053    197.621502    0.00000    0.00000    0.00000    5    diag,B
    7      0.560D-03      0.331D-04      -126.60502497    197.632605    0.00000    0.00000    0.00000    6    fixocc
    8      0.171D-03      0.948D-05      -126.60502521    197.634562    0.00000    0.00000    0.00000    7    diag,B
    9      0.429D-04      0.247D-05      -126.60502522    197.634983    0.00000    0.00000    0.00000    8    diag,B
   10      0.262D-04      0.693D-06      -126.60502522    197.635016    0.00000    0.00000    0.00000    9    orth
   11      0.276D-05      0.312D-06      -126.60502522    197.635025    0.00000    0.00000    0.00000    0    orth

 Final alpha occupancy:   4   1   1   1   1   1   1
 Final beta  occupancy:   2   1   1   1   1   1   1

 !RHF STATE 1.1 Energy               -126.605025221124
 Nuclear energy                         0.00000000
 One-electron energy                 -225.42253751
 Two-electron energy                   98.81751229
 Virial quotient                       -2.62868701
 !RHF STATE 1.1 Dipole moment           0.00000000     0.00000000     0.00000000
 Dipole moment /Debye                   0.00000000     0.00000000     0.00000000

 ELECTRON ORBITALS
 =================


   Orb  Occ    Energy  Couls-En    Coefficients

                                   1 1s      1 1s      1 1s      1 1s      1 1s      1 1s      1 1s      1 1s      1 1s      1 1s   
                                   1 1s      1 1s      1 1s      1 1s      1 1s      1 1s      1 1s      1 1s      1 3d0     1 3d2+ 
                                   1 3d0     1 3d2+    1 3d0     1 3d2+    1 3d0     1 3d2+    1 3d0     1 3d2+    1 3d0     1 3d2+ 
                                   1 3d0     1 3d2+    1 3d0     1 3d2+    1 3d0     1 3d2+    1 3d0     1 3d2+    1 3d0     1 3d2+ 
                                   1 3d0     1 3d2+    1 3d0     1 3d2+    1 3d0     1 3d2+ 

   1.1   2    -4.0037  -20.2873  0.000000 -0.000001  0.000005 -0.000026  0.006502 -0.066381  0.218643 -0.382415 -0.388553  0.447655
                                 0.688621  0.289844  0.022232 -0.003758  0.001642 -0.000615 -0.018212  0.000152  0.000000 -0.000000
                                -0.000001 -0.000000  0.000042 -0.000002 -0.000182  0.000010 -0.000097 -0.000021  0.006662 -0.000196
                                 0.003869 -0.000146 -0.001225 -0.000029 -0.001349 -0.000007 -0.000389 -0.000005 -0.000060 -0.000000
                                -0.005438  0.000113 -0.002822  0.000058  0.000005 -0.000000

   2.1   2    -0.4426  -11.4805  0.000000 -0.000000  0.000000 -0.000000  0.000002 -0.000020  0.000071 -0.000144 -0.000124  0.000341
                                 0.000351 -0.000029 -0.000273 -0.000072  0.000198  0.000117 -0.000168  0.000000  0.000000 -0.000031
                                -0.000011  0.000913 -0.000061  0.005329  0.000308 -0.026758 -0.001305  0.113432 -0.002424  0.210851
                                -0.003203  0.278496 -0.003219  0.279560 -0.002248  0.195192 -0.000960  0.083473 -0.000146  0.012859
                                -0.000592  0.051260 -0.000357  0.030935  0.000004 -0.000285

   3.1   +    -0.5341  -11.6780  0.000000 -0.000000  0.000000 -0.000000 -0.000075  0.000936 -0.003424  0.007542  0.005778 -0.019625
                                -0.020257  0.000277  0.017752  0.013218  0.003644 -0.000315  0.009827  0.000090 -0.000030 -0.000000
                                 0.000918  0.000011  0.005429  0.000063 -0.027196 -0.000314  0.113404  0.001308  0.222237  0.002570
                                 0.290471  0.003351  0.282303  0.003244  0.186008  0.002132  0.068769  0.000789  0.007691  0.000088
                                 0.044163  0.000504  0.027794  0.000318 -0.000174 -0.000002

   4.1   +    -0.2370   -6.0530 -0.000000  0.000000 -0.000001  0.000004 -0.001562  0.017242 -0.059755  0.119350  0.100619 -0.141285
                                -0.255057 -0.201413  0.042772  0.397400  0.534276  0.191155 -0.011656  0.003205  0.000001  0.000000
                                -0.000035 -0.000000 -0.000220  0.000000  0.001103 -0.000001 -0.004480  0.000001 -0.010697  0.000043
                                -0.011493  0.000001 -0.006543 -0.000099  0.001411 -0.000190  0.006686 -0.000204  0.004397 -0.000098
                                -0.000580 -0.000028 -0.000956 -0.000005  0.000512 -0.000010

   5.1   0     0.0239   -1.7249 -0.000000  0.000001 -0.000009  0.000043 -0.001383  0.003468 -0.000008  0.020595 -0.133935  1.120673
                                 0.670437 -0.333402  0.558308 -1.198088  1.878693 -3.475118 -1.421708  2.900681 -0.000000  0.000000
                                 0.000006 -0.000000  0.000031 -0.000000 -0.000161  0.000002  0.000534 -0.000006  0.006716 -0.000148
                                 0.011322 -0.000256  0.003965 -0.000081 -0.002598  0.000069  0.000555 -0.000015 -0.003856  0.000091
                                -0.006755  0.000167 -0.009492  0.000233  0.007336 -0.000181

   6.1   0     0.0720   -1.9372  0.000000 -0.000000  0.000000 -0.000001  0.000055 -0.000337  0.000900 -0.002293  0.001555 -0.023359
                                -0.011598  0.010411 -0.014677  0.022874 -0.054012  0.064176  0.032766 -0.032856 -0.000016 -0.000000
                                 0.000080  0.000001 -0.001119 -0.000014  0.004364  0.000053 -0.039492 -0.000476  0.873676  0.010497
                                 1.635595  0.019653  0.537903  0.006463 -0.348745 -0.004190  0.416261  0.005003 -0.710076 -0.008534
                                -1.213946 -0.014588 -1.669195 -0.020060  1.386515  0.016660

                                   1 2px     1 2px     1 2px     1 2px     1 2px     1 2px     1 2px     1 2px     1 2px     1 2px  
                                   1 2px     1 2px     1 2px     1 2px     1 2px  

   1.2   2    -2.5527  -17.1136  0.000012 -0.003811  0.058629 -0.117385 -0.134767  0.196262  0.312755  0.120086  0.011500  0.002018
                                -0.000441  0.000269  0.131209  0.411920 -0.000078

   2.2   0     0.0162   -1.8640  0.000010 -0.000459  0.000157 -0.001211  0.018167 -0.154137  0.081856 -0.109677  0.172050 -0.219844
                                 0.614802 -0.860478  0.192001 -0.136553  1.424394

   3.2   0     0.0480   -2.5932 -0.000025  0.001776 -0.012503  0.028439 -0.014646  0.296510 -0.266325  0.229082 -0.305607  0.772832
                                -1.101668  2.693792 -0.458401  0.213835 -1.779299

                                   1 2py     1 2py     1 2py     1 2py     1 2py     1 2py     1 2py     1 2py     1 2py     1 2py  
                                   1 2py     1 2py     1 2py     1 2py     1 2py  

   1.3   2    -2.5530  -17.1142  0.000012 -0.003811  0.058630 -0.117381 -0.134784  0.196208  0.312773  0.120008  0.011461  0.002013
                                -0.000442  0.000269  0.131280  0.411974 -0.000078

   2.3   0     0.0161   -1.8676  0.000010 -0.000457  0.000134 -0.001160  0.018174 -0.153860  0.081502 -0.109435  0.171875 -0.218743
                                 0.614057 -0.857407  0.191489 -0.136410  1.421981

   3.3   0     0.0479   -2.5940 -0.000025  0.001775 -0.012506  0.028442 -0.014583  0.296053 -0.266124  0.228787 -0.304904  0.772386
                                -1.099191  2.690859 -0.457860  0.213396 -1.779970

                                   1 3d2-    1 3d2-    1 3d2-    1 3d2-    1 3d2-    1 3d2-    1 3d2-    1 3d2-    1 3d2-    1 3d2- 
                                   1 3d2-    1 3d2-    1 3d2-    1 3d2- 

   1.4   2    -0.4426  -11.4805 -0.000031  0.000913  0.005329 -0.026760  0.113440  0.210865  0.278515  0.279579  0.195204  0.083478
                                 0.012860  0.051263  0.030937 -0.000285

   2.4   0     0.0729   -1.9288 -0.000016  0.000079 -0.001151  0.004507 -0.040434  0.885501  1.657911  0.544573 -0.355070  0.419414
                                -0.726000 -1.231278 -1.692723  1.395464

   3.4   0     0.2202   -2.7264  0.000051 -0.000473  0.001357 -0.003543  0.068520 -2.324944 -4.353988 -1.509193  0.898107 -1.190753
                                 2.356202  3.133433  4.365204 -1.175006

                                   1 2pz     1 2pz     1 2pz     1 2pz     1 2pz     1 2pz     1 2pz     1 2pz     1 2pz     1 2pz  
                                   1 2pz     1 2pz     1 2pz     1 2pz     1 2pz  

   1.5   2    -2.5644  -17.1349  0.000012 -0.003815  0.058656 -0.117237 -0.135421  0.194173  0.313449  0.117117  0.010010  0.001844
                                -0.000484  0.000278  0.133948  0.413996 -0.000080

   2.5   0     0.0147   -2.0270  0.000009 -0.000351 -0.000855  0.001011  0.018505 -0.142324  0.066420 -0.099150  0.165199 -0.171896
                                 0.583321 -0.729451  0.169955 -0.130646  1.317957

   3.5   0     0.0440   -2.6018 -0.000024  0.001733 -0.012598  0.028532 -0.012374  0.279983 -0.259138  0.218724 -0.279077  0.756956
                                -1.011993  2.581320 -0.438776  0.197805 -1.811790

                                   1 3d1+    1 3d1+    1 3d1+    1 3d1+    1 3d1+    1 3d1+    1 3d1+    1 3d1+    1 3d1+    1 3d1+ 
                                   1 3d1+    1 3d1+    1 3d1+    1 3d1+ 

   1.6   2    -0.4741  -11.5632 -0.000031  0.000918  0.005376 -0.026989  0.113957  0.214482  0.282517  0.280920  0.191365  0.076537
                                 0.010236  0.049844  0.030456 -0.000255

   2.6   0     0.0724   -1.9332 -0.000016  0.000079 -0.001135  0.004437 -0.039963  0.878711  1.645142  0.540667 -0.351730  0.417286
                                -0.717312 -1.221444 -1.679345  1.390746

   3.6   0     0.2180   -2.7281  0.000050 -0.000465  0.001352 -0.003553  0.067982 -2.298365 -4.304112 -1.491214  0.889094 -1.170774
                                 2.344304  3.098140  4.315523 -1.176421

                                   1 3d1-    1 3d1-    1 3d1-    1 3d1-    1 3d1-    1 3d1-    1 3d1-    1 3d1-    1 3d1-    1 3d1- 
                                   1 3d1-    1 3d1-    1 3d1-    1 3d1- 

[...]
                                           T        V       ECP      H0       H01     AOSYM     SMH    MOLCAS    OPER     JKOP   

              2      17       34.51       200      700     1000      520     4202     5202     2102     2105     5202(1)  2107   
                                        OPTIONS   GEOM     BASIS   MCVARS     RHF     MCSCF     RHF      RHF     MCSCF     RHF  
                                         2109     2111     2113     2115     2117     2119     2120   
                                          RHF      RHF      RHF      RHF      RHF      RHF      RHF  

 PROGRAMS   *        TOTAL       RHF  RCCSD(T)       RHF  RCCSD(T)       RHF  RCCSD(T)       RHF     MULTI       POP       RHF
 CPU TIMES  *        40.18      0.69      0.39      0.37      1.56      0.29      1.72      0.10      0.34      0.00      0.20
 REAL TIME  *        64.90 SEC
 DISK USED  *         1.77 GB      
 SF USED    *        91.29 MB      
 GA USED    *         0.00 MB       (max)       0.00 MB       (current)
 **********************************************************************************************************************************
 SETTING SCF(12)        =       -69.59604877  AU                              
 SETTING _CC_NORM_MAX   =         2.00000000                                  


 PROGRAM * CCSD (Restricted open-shell coupled cluster)     Authors: C. Hampel, H.-J. Werner, 1991, M. Deegan, P.J. Knowles, 1992


 Convergence thresholds:  THRVAR = 1.00D-08  THRDEN = 1.00D-06

 CCSD(T)     terms to be evaluated (factor= 1.000)


 Number of closed-shell orbitals:   1 (   1   0   0   0   0   0   0 )
 Number of active  orbitals:        3 (   0   1   1   0   1   0   0 )
 Number of external orbitals:     129 (  45  14  14  14  14  14  14 )

 Memory could be reduced to 3.70 Mwords without degradation in triples

 Number of N-1 electron functions:               5
 Number of N-2 electron functions:              10
 Number of singly external CSFs:               135
 Number of doubly external CSFs:             16296
 Total number of CSFs:                       16431

 Molecular orbitals read from record     2120.2  Type=RHF/CANONICAL (state 1.8)

 Integral transformation finished. Total CPU:   0.27 sec, npass=  1  Memory used:   0.43 MW

 Starting RMP2 calculation

 Wavefunction is spin-projected

 ITER.      SQ.NORM     CORR.ENERGY   TOTAL ENERGY   ENERGY CHANGE        DEN1      VAR(S)    VAR(P)  DIIS     TIME
   1      1.01792292    -0.11327200   -69.70932077    -0.11327200    -0.00011201  0.95D-08  0.18D-04  1  1     0.28
   2      1.01796664    -0.11338870   -69.70943747    -0.00011670    -0.00000001  0.32D-11  0.12D-08  2  2     0.28
   3      1.01796679    -0.11338900   -69.70943777    -0.00000030    -0.00000000  0.32D-15  0.11D-12  3  3     0.28

 Norm of t1 vector:      0.00751058      S-energy:    -0.00045978      T1 diagnostic:  0.00011235
 Norm of t2 vector:      0.13382968      P-energy:    -0.11292923
                                         Alpha-Beta:  -0.08463191
                                         Alpha-Alpha: -0.02829731
                                         Beta-Beta:    0.00000000

 Spin contamination <S**2-Sz**2-Sz>     0.00000000
  Reference energy                    -69.596048768118
  RHF-RMP2 correlation energy          -0.113389002303
 !RHF-RMP2 energy                     -69.709437770421
 (NB above energy spin projected)

 Starting RCCSD calculation

 ITER.      SQ.NORM     CORR.ENERGY   TOTAL ENERGY   ENERGY CHANGE        DEN1      VAR(S)    VAR(P)  DIIS     TIME
   1      1.02315962    -0.12776781   -69.72381657    -0.12776781    -0.00331908  0.55D-05  0.54D-03  1  1     0.30
   2      1.02474284    -0.13143429   -69.72748306    -0.00366648    -0.00003576  0.47D-07  0.52D-05  2  2     0.31
   3      1.02485321    -0.13160612   -69.72765489    -0.00017183    -0.00000020  0.19D-08  0.23D-07  3  3     0.33
   4      1.02485991    -0.13161787   -69.72766664    -0.00001175    -0.00000000  0.12D-10  0.44D-10  4  4     0.34
   5      1.02485980    -0.13161749   -69.72766625     0.00000038    -0.00000000  0.28D-13  0.61D-13  5  5     0.35

 Norm of t1 vector:      0.00797157      S-energy:    -0.00045615      T1 diagnostic:  0.00087346
                                                                       D1 diagnostic:  0.00124474
 Norm of t2 vector:      0.15746826      P-energy:    -0.13116133
                                         Alpha-Beta:  -0.10210633
                                         Alpha-Alpha: -0.02905501
                                         Beta-Beta:    0.00000000

 Spin contamination <S**2-Sz**2-Sz>     0.00000000

 Memory could be reduced to 3.71 Mwords without degradation in triples
 

  Correlated core orbitals:             1.1       1.2       1.3       1.5
  Orbital energies:                   -13.3374  -11.6024  -11.6024  -11.6024
 
  RCCSD core-core energy               -0.131617486339
 

 RESULTS
 =======

  Reference energy                    -69.596048768118
  RCCSD singles energy                 -0.000456152265
  RCCSD pair energy                    -0.131161334074
  RCCSD correlation energy             -0.131617486339
  Triples (T) contribution             -0.000814230861
  Total correlation energy             -0.132431717200
 
  RHF-RCCSD energy                    -69.727666254456
  RHF-RCCSD[T] energy                 -69.728479747792
  RHF-RCCSD-T energy                  -69.728478699086
 !RHF-RCCSD(T) energy                 -69.728480485318

 Program statistics:

 Available memory in ccsd:               511999732
 Min. memory needed in ccsd:                142535
 Max. memory used in ccsd:                  158301
 Max. memory used in cckext:                164039 ( 5 integral passes)
 Max. memory used in cckint:                432498 ( 1 integral passes)



 **********************************************************************************************************************************
 DATASETS  * FILE   NREC   LENGTH (MB)   RECORD NAMES
              1      20       21.75       500      610      700      900      950      970     1000      129      960     1100   
                                          VAR    BASINP    GEOM    SYMINP    ZMAT    AOBASIS   BASIS     P2S    ABASIS      S 
                                         1400     1410     1420     1200     1210     1080     1600     1650     1700     1380   
                                           T        V       ECP      H0       H01     AOSYM     SMH    MOLCAS    OPER     JKOP   

              2      17       34.51       200      700     1000      520     4202     5202     2102     2105     5202(1)  2107   
                                        OPTIONS   GEOM     BASIS   MCVARS     RHF     MCSCF     RHF      RHF     MCSCF     RHF  
                                         2109     2111     2113     2115     2117     2119     2120   
                                          RHF      RHF      RHF      RHF      RHF      RHF      RHF  

 PROGRAMS   *        TOTAL  RCCSD(T)       RHF  RCCSD(T)       RHF  RCCSD(T)       RHF  RCCSD(T)       RHF     MULTI       POP
 CPU TIMES  *        40.72      0.53      0.69      0.39      0.37      1.56      0.29      1.72      0.10      0.34      0.00
 REAL TIME  *        65.79 SEC
 DISK USED  *         1.77 GB      
 SF USED    *        91.29 MB      
 GA USED    *         0.00 MB       (max)       0.00 MB       (current)
 **********************************************************************************************************************************
 SETTING CCSD(12)       =       -69.72848049  AU                              

 DO I                   =        13.00000000   

 Running procedure=XVIIS2


 PROGRAM * RHF-SCF (CLOSED SHELL)       Authors: W. Meyer, H.-J. Werner


 NUMBER OF ELECTRONS:       1+    1-    SPACE SYMMETRY=1    SPIN SYMMETRY: Singlet 
 CONVERGENCE THRESHOLDS:    1.00E-05 (Density)    1.00E-07 (Energy)
 MAX. NUMBER OF ITERATIONS:       60
 INTERPOLATION TYPE:            DIIS
 INTERPOLATION STEPS:              2 (START)      1 (STEP)
 LEVEL SHIFTS:                  0.00 (CLOSED)  0.00 (OPEN) 



 Orbital guess generated from atomic densities. Full valence occupancy:    4   1   1   1   1   1   1   0


 Molecular orbital dump at record        2121.2

 Initial occupancy:   1   0   0   0   0   0   0

 ITERATION    DDIFF          GRAD             ENERGY        2-EL.EN.            DIPOLE MOMENTS         DIIS   ORB.
    1      0.000D+00      0.000D+00       -31.63393041      1.869245    0.00000    0.00000    0.00000    0    start
    2      0.000D+00      0.212D+00       -32.23222664      2.093658    0.00000    0.00000    0.00000    1    diag
    3      0.417D-01      0.159D-01       -32.23548371      2.109936    0.00000    0.00000    0.00000    2    diag
    4      0.441D-02      0.963D-04       -32.23548380      2.110014    0.00000    0.00000    0.00000    3    diag
    5      0.112D-03      0.232D-05       -32.23548380      2.110012    0.00000    0.00000    0.00000    4    diag
    6      0.213D-05      0.457D-07       -32.23548380      2.110012    0.00000    0.00000    0.00000    0    orth

 Final occupancy:   1   0   0   0   0   0   0

 !RHF STATE 1.1 Energy                -32.235483804098
 Nuclear energy                         0.00000000
 One-electron energy                  -33.29048998
 Two-electron energy                    1.05500618
 Virial quotient                       -5.96294662
 !RHF STATE 1.1 Dipole moment           0.00000000     0.00000000     0.00000000
 Dipole moment /Debye                   0.00000000     0.00000000     0.00000000

 Orbital energies:

         1.1          2.1          3.1
    -15.590239   -10.891826   -10.891826

         1.2          2.2
    -13.313963    -7.423232

         1.3          2.3
    -13.313963    -7.423232

         1.4          2.4
    -10.891826    -6.428630

         1.5          2.5
    -13.313963    -7.423232

         1.6          2.6
    -10.891826    -6.428630

         1.7          2.7
    -10.891826    -6.428630

 HOMO      1.1   -15.590239 =    -424.2320eV
 LUMO      1.2   -13.313963 =    -362.2914eV
 LUMO-HOMO         2.276276 =      61.9406eV


 **********************************************************************************************************************************
 DATASETS  * FILE   NREC   LENGTH (MB)   RECORD NAMES
              1      20       21.75       500      610      700      900      950      970     1000      129      960     1100   
                                          VAR    BASINP    GEOM    SYMINP    ZMAT    AOBASIS   BASIS     P2S    ABASIS      S 
                                         1400     1410     1420     1200     1210     1080     1600     1650     1700     1380   
                                           T        V       ECP      H0       H01     AOSYM     SMH    MOLCAS    OPER     JKOP   

              2      18       37.12       200      700     1000      520     4202     5202     2102     2105     5202(1)  2107   
                                        OPTIONS   GEOM     BASIS   MCVARS     RHF     MCSCF     RHF      RHF     MCSCF     RHF  
                                         2109     2111     2113     2115     2117     2119     2120     2121   
                                          RHF      RHF      RHF      RHF      RHF      RHF      RHF      RHF  

 PROGRAMS   *        TOTAL       RHF  RCCSD(T)       RHF  RCCSD(T)       RHF  RCCSD(T)       RHF  RCCSD(T)       RHF     MULTI
 CPU TIMES  *        40.89      0.17      0.53      0.69      0.39      0.37      1.56      0.29      1.72      0.10      0.34
 REAL TIME  *        66.14 SEC
 DISK USED  *         1.77 GB      
 SF USED    *        91.29 MB      
 GA USED    *         0.00 MB       (max)       0.00 MB       (current)
 **********************************************************************************************************************************
 SETTING SCF(13)        =       -32.23548380  AU                              
 SETTING _CC_NORM_MAX   =         2.00000000                                  


 PROGRAM * CCSD (Restricted open-shell coupled cluster)     Authors: C. Hampel, H.-J. Werner, 1991, M. Deegan, P.J. Knowles, 1992


 Convergence thresholds:  THRVAR = 1.00D-08  THRDEN = 1.00D-06

 CCSD(T)     terms to be evaluated (factor= 1.000)


 Number of closed-shell orbitals:   1 (   1   0   0   0   0   0   0 )
 Number of external orbitals:     132 (  45  15  15  14  15  14  14 )

 Memory could be reduced to 2.74 Mwords without degradation in triples

 Number of N-1 electron functions:               2
 Number of N-2 electron functions:               1
 Number of singly external CSFs:                90
 Number of doubly external CSFs:              3288
 Total number of CSFs:                        3378

 Molecular orbitals read from record     2121.2  Type=RHF/CANONICAL (state 1.1)

 Integral transformation finished. Total CPU:   0.01 sec, npass=  1  Memory used:   0.20 MW

 Starting RMP2 calculation

 Wavefunction is spin-projected

 ITER.      SQ.NORM     CORR.ENERGY   TOTAL ENERGY   ENERGY CHANGE        DEN1      VAR(S)    VAR(P)  DIIS     TIME
   1      1.01080139    -0.05632541   -32.29180921    -0.05632541    -0.00007928  0.46D-20  0.16D-04  1  1     0.01
   2      1.01083663    -0.05640796   -32.29189176    -0.00008255    -0.00000000  0.21D-23  0.27D-09  2  2     0.01
   3      1.01083670    -0.05640807   -32.29189188    -0.00000012    -0.00000000  0.16D-28  0.23D-14  3  3     0.01

 Norm of t1 vector:      0.00000000      S-energy:    -0.00000000      T1 diagnostic:  0.00000000
 Norm of t2 vector:      0.10409949      P-energy:    -0.05640807
                                         Alpha-Beta:  -0.05640807
                                         Alpha-Alpha:  0.00000000
                                         Beta-Beta:    0.00000000

 Spin contamination <S**2-Sz**2-Sz>     0.00000000
  Reference energy                    -32.235483804098
  RHF-RMP2 correlation energy          -0.056408073237
 !RHF-RMP2 energy                     -32.291891877335
 (NB above energy spin projected)

 Starting RCCSD calculation

 ITER.      SQ.NORM     CORR.ENERGY   TOTAL ENERGY   ENERGY CHANGE        DEN1      VAR(S)    VAR(P)  DIIS     TIME
   1      1.01533622    -0.06534639   -32.30083019    -0.06534639    -0.00308256  0.26D-05  0.63D-03  1  1     0.01
   2      1.01787561    -0.06947699   -32.30496079    -0.00413060    -0.00003543  0.11D-07  0.37D-05  2  2     0.02
   3      1.01799591    -0.06960382   -32.30508762    -0.00012683    -0.00000005  0.55D-09  0.34D-08  3  3     0.03
   4      1.01800139    -0.06961185   -32.30509565    -0.00000803    -0.00000000  0.98D-13  0.18D-11  4  4     0.03
   5      1.01800125    -0.06961161   -32.30509541     0.00000024    -0.00000000  0.12D-15  0.59D-14  5  5     0.04

 Norm of t1 vector:      0.00216383      S-energy:    -0.00000000      T1 diagnostic:  0.00108192
                                                                       D1 diagnostic:  0.00153006
 Norm of t2 vector:      0.13415130      P-energy:    -0.06961161
                                         Alpha-Beta:  -0.06961161
                                         Alpha-Alpha:  0.00000000
                                         Beta-Beta:    0.00000000

 Doubles amplitudes (print threshold =  0.500E-01):

         I         J         SYM. A    SYM. B    A         B      T(IJ, AB) [Alpha-Beta]

         1         1         2         2         1         1     -0.07546376
         1         1         3         3         1         1     -0.07546376
         1         1         5         5         1         1     -0.07546376

 Spin contamination <S**2-Sz**2-Sz>     0.00000000

 Memory could be reduced to 2.68 Mwords without degradation in triples
 

  Correlated core orbitals:             1.1
  Orbital energies:                   -15.5902
 
  RCCSD core-core energy               -0.069611610279
 

 RESULTS
 =======

  Reference energy                    -32.235483804098
  RCCSD singles energy                 -0.000000000061
  RCCSD pair energy                    -0.069611610217
  RCCSD correlation energy             -0.069611610279
  Triples (T) contribution              0.000000000000
  Total correlation energy             -0.069611610279
 
  RHF-RCCSD energy                    -32.305095414377
  RHF-RCCSD[T] energy                 -32.305095414377
  RHF-RCCSD-T energy                  -32.305095414377
 !RHF-RCCSD(T) energy                 -32.305095414377

 Program statistics:

 Available memory in ccsd:               511999882
 Min. memory needed in ccsd:                 95477
 Max. memory used in ccsd:                   95477
 Max. memory used in cckext:                122396 ( 5 integral passes)
 Max. memory used in cckint:                198596 ( 1 integral passes)



 **********************************************************************************************************************************
 DATASETS  * FILE   NREC   LENGTH (MB)   RECORD NAMES
              1      20       21.75       500      610      700      900      950      970     1000      129      960     1100   
                                          VAR    BASINP    GEOM    SYMINP    ZMAT    AOBASIS   BASIS     P2S    ABASIS      S 
                                         1400     1410     1420     1200     1210     1080     1600     1650     1700     1380   
                                           T        V       ECP      H0       H01     AOSYM     SMH    MOLCAS    OPER     JKOP   

              2      18       37.12       200      700     1000      520     4202     5202     2102     2105     5202(1)  2107   
                                        OPTIONS   GEOM     BASIS   MCVARS     RHF     MCSCF     RHF      RHF     MCSCF     RHF  
                                         2109     2111     2113     2115     2117     2119     2120     2121   
                                          RHF      RHF      RHF      RHF      RHF      RHF      RHF      RHF  

 PROGRAMS   *        TOTAL  RCCSD(T)       RHF  RCCSD(T)       RHF  RCCSD(T)       RHF  RCCSD(T)       RHF  RCCSD(T)       RHF
 CPU TIMES  *        41.00      0.11      0.17      0.53      0.69      0.39      0.37      1.56      0.29      1.72      0.10
 REAL TIME  *        66.47 SEC
 DISK USED  *         1.77 GB      
 SF USED    *        91.29 MB      
 GA USED    *         0.00 MB       (max)       0.00 MB       (current)
 **********************************************************************************************************************************
 SETTING CCSD(13)       =       -32.30509541  AU                              
 Output type csv         
                                                                                                                                                                                                                                                                

        SCF,CCSD
   -126.60925037,   -126.87428408
   -126.60397968,   -126.88318633
   -126.60411799,   -126.84479876
   -126.52701899,   -126.77578706
   -126.37161024,   -126.58981622
   -126.28270829,   -126.48451139
   -125.72859421,   -125.90920153
   -124.58374047,   -124.73973464
   -122.88817086,   -123.02959180
   -120.64804779,   -120.77655155
    -98.38171456,    -98.59432179
    -69.59604877,    -69.72848049
    -32.23548380,    -32.30509541
                                                  

 RCCSD(T)/USERDEF energy=    -32.305095414377

        RCCSD(T)        RHF-SCF         RCCSD(T)        RHF-SCF         RCCSD(T)        RHF-SCF         RCCSD(T)        RHF-SCF 
    -32.30509541    -32.23548380    -69.72848049    -69.59604877    -98.59432179    -98.38171456   -120.77655155   -120.64804779
 **********************************************************************************************************************************
 Molpro calculation terminated
 Variable memory released
