
 Primary working directories    : /global/cscratch1/sd/aannabe
 Secondary working directories  : /global/cscratch1/sd/aannabe
 Wavefunction directory         : /global/homes/a/aannabe/wfu/
 Main file repository           : /global/cscratch1/sd/aannabe/

 SHA1      : 19cd028119e0e09f93f0674bd8af7968d9b3eff6
 NAME      : 2015.1.36
 ARCHNAME  : linux/x86_64
 FC        : /opt/cray/pe/craype/2.5.14/bin/ftn
 BLASLIB   : -L/opt/intel/compilers_and_libraries_2018.1.163/linux/mkl/lib/intel64 -Wl,-_start-group -lmkl_intel_ilp64 -lmkl_intel_thread -lmkl_core -Wl,-_end-group -liomp5
 id        : lbl

 Nodes     nprocs
 nid00036    11
 Number of processes for MPI-2 version of Molpro:   nprocs(total)=   12   nprocs(compute)=   11   nprocs(helper)=    1

 Using customized tuning parameters: mindgm=7; mindgv=16; mindgc=1; mindgr=1; noblas=0; minvec=7
 default implementation of scratch files=sf  

 ***,Calculation for Au atom, singlet and triplet
 memory,1,g
 geometry={
 1
 Au
 Au  0.0 0.0 0.0
 }
 
 basis={
 Including file /global/u1/a/aannabe/docs/various_ecps/Au/atom/AE/dkh/basis/gs_eigen/aug-cc-pwCVTZ.basis
 }
 
 set,dkroll=1,dkho=10,dkhp=4
 
 Including file /global/u1/a/aannabe/docs/various_ecps/Au/atom/AE/dkh/basis/gs_eigen/states.proc
 Including file /global/u1/a/aannabe/docs/various_ecps/Au/atom/AE/dkh/basis/gs_eigen/contracted.basis
 Including file /global/u1/a/aannabe/docs/various_ecps/Au/atom/AE/dkh/basis/gs_eigen/aug-cc-pwCVTZ.basis
 Including file /global/u1/a/aannabe/docs/various_ecps/Au/atom/AE/dkh/basis/gs_eigen/contracted.basis
 Including file /global/u1/a/aannabe/docs/various_ecps/Au/atom/AE/dkh/basis/gs_eigen/aug-cc-pwCVTZ.basis
 
 do i=2,2
     if (i.eq.1) then
         Idtenf1
     else if (i.eq.2) then
         Is1dten
     endif
     scf(i)=energy
                                                                                 !_CC_NORM_MAX=2.0
                                                                                 !{rccsd(t),maxit=100;core}
                                                                                 !ccsd(i)=energy
 enddo
 
 table,scf,ccsd
 save, f_tz.csv,new
 

 Variables initialized (889), CPU time= 0.01 sec
 Commands  initialized (702), CPU time= 0.01 sec, 572 directives.
 Default parameters read. Elapsed time= 0.13 sec

 Checking input...
 Passed
1


                                         ***  PROGRAM SYSTEM MOLPRO  ***
                                       Copyright, TTI GmbH Stuttgart, 2015
                                    Version 2015.1 linked Dec 29 2018 15:55:43


 **********************************************************************************************************************************
 LABEL *   Calculation for Au atom, singlet and triplet                                  
  64 bit mpp version                                                                     DATE: 23-Apr-20          TIME: 16:48:31  
 **********************************************************************************************************************************

 SHA1:             19cd028119e0e09f93f0674bd8af7968d9b3eff6
 **********************************************************************************************************************************

Geometry recognized as XYZ


 Variable memory set to 1000000000 words,  buffer space   230000 words

 SETTING BASIS          =    USERDEF
 SETTING DKROLL         =         1.00000000                                  
 SETTING DKHO           =        10.00000000                                  
 SETTING DKHP           =         4.00000000                                  

 DO I                   =         2.00000000   

 Running procedure=IS1DTEN
 SETTING BASIS          =    USERDEF


 Recomputing integrals since basis changed


 Using spherical harmonics



 PROGRAM * SEWARD (Integral evaluation for generally contracted gaussian basis sets)     Author: Roland Lindh, 1990

 Geometry written to block  1 of record 700

 Orientation using atomic masses  
 Molecule type: Atom
 Symmetry elements: X,Y,Z
 Rotational constants:       0.0000000      0.0000000      0.0000000 GHz  (calculated with average atomic masses)

 Point group  D2h 



 ATOMIC COORDINATES

 NR  ATOM    CHARGE       X              Y              Z

   1  AU     79.00    0.000000000    0.000000000    0.000000000

 NUCLEAR CHARGE:                   79
 NUMBER OF PRIMITIVE AOS:         380
 NUMBER OF SYMMETRY AOS:          318
 NUMBER OF CONTRACTIONS:          100   (  24Ag  +  17B3u +  17B2u +   7B1g +  17B1u +   7B2g +   7B3g +   4Au  )
 NUMBER OF CORE ORBITALS:          34   (   9Ag  +   6B3u +   6B2u +   2B1g +   6B1u +   2B2g +   2B3g +   1Au  )
 NUMBER OF VALENCE ORBITALS:        6   (   3Ag  +   0B3u +   0B2u +   1B1g +   0B1u +   1B2g +   1B3g +   0Au  )


 NUCLEAR REPULSION ENERGY    0.00000000

 One-electron integrals computed with SEWARD

 10nd-order Douglas-Kroll-Hess method activated. McWeeny DKH parametrization is used.

 Computing Douglas-Kroll / X2C integrals

 AO integral compression algorithm  1   Integral accuracy      1.0D-11

     14.680 MB (compressed) written to integral file ( 48.8%)

     Node minimum: 0.524 MB, node maximum: 1.835 MB


 NUMBER OF SORTED TWO-ELECTRON INTEGRALS:     149856.     BUFFER LENGTH:  32768
 NUMBER OF SEGMENTS:   1  SEGMENT LENGTH:     149856      RECORD LENGTH: 524288

 Memory used in sort:       0.71 MW

 SORT1 READ     3729868. AND WROTE      122622. INTEGRALS IN      1 RECORDS. CPU TIME:     0.08 SEC, REAL TIME:     0.08 SEC
 SORT2 READ     1384700. AND WROTE     1710034. INTEGRALS IN     77 RECORDS. CPU TIME:     0.01 SEC, REAL TIME:     0.07 SEC

 Node minimum:      146220.  Node maximum:      163250. integrals

 OPERATOR DM      FOR CENTER  0  COORDINATES:    0.000000    0.000000    0.000000

 EXTRA SYMMETRY OF AOS IN SYMMETRY 1:   1 1 1 1 1 1 1 1 1 1   2 3 2 3 2 3 2 3 2 3   2 3 2 3
 EXTRA SYMMETRY OF AOS IN SYMMETRY 2:   1 1 1 1 1 1 1 1 1 2   3 2 3 2 3 2 3
 EXTRA SYMMETRY OF AOS IN SYMMETRY 3:   1 1 1 1 1 1 1 1 1 2   3 2 3 2 3 2 3
 EXTRA SYMMETRY OF AOS IN SYMMETRY 5:   1 1 1 1 1 1 1 1 1 2   3 2 3 2 3 2 3

 Eigenvalues of metric

         1 0.223E-02 0.473E-01 0.473E-01 0.130E+00 0.458E+00 0.458E+00 0.986E+00 0.100E+01
         2 0.352E-02 0.111E+00 0.226E+00 0.226E+00 0.607E+00 0.607E+00 0.728E+00 0.100E+01
         3 0.352E-02 0.111E+00 0.226E+00 0.226E+00 0.607E+00 0.607E+00 0.728E+00 0.100E+01
         4 0.473E-01 0.458E+00 0.100E+01 0.100E+01 0.100E+01 0.102E+01 0.247E+01
         5 0.352E-02 0.111E+00 0.226E+00 0.226E+00 0.607E+00 0.607E+00 0.728E+00 0.100E+01
         6 0.473E-01 0.458E+00 0.100E+01 0.100E+01 0.100E+01 0.102E+01 0.247E+01
         7 0.473E-01 0.458E+00 0.100E+01 0.100E+01 0.100E+01 0.102E+01 0.247E+01
         8 0.226E+00 0.607E+00 0.118E+01 0.199E+01


 **********************************************************************************************************************************
 DATASETS  * FILE   NREC   LENGTH (MB)   RECORD NAMES
              1      22       20.35       500      610      700      900      950      970     1000      129      960     1700   
                                          VAR    BASINP    GEOM    SYMINP    ZMAT    AOBASIS   BASIS     P2S    ABASIS    OPER   
                                         1101     1401     1411     1412     1650     1100     1400     1410     1200     1210   
                                          SR      EKINR    POTR     PVPR    MOLCAS      S      EKIN      POT      H0       H01  
                                         1080     1600   
                                         AOSYM     SMH  

 PROGRAMS   *        TOTAL       INT
 CPU TIMES  *         8.70      8.33
 REAL TIME  *        10.03 SEC
 DISK USED  *        54.29 MB      
 GA USED    *         0.00 MB       (max)       0.00 MB       (current)
 **********************************************************************************************************************************


 PROGRAM * RHF-SCF (OPEN SHELL)       Authors: W. Meyer, H.-J. Werner


 NUMBER OF ELECTRONS:      40+   39-    SPACE SYMMETRY=1    SPIN SYMMETRY: Doublet 
 CONVERGENCE THRESHOLDS:    1.00E-05 (Density)    1.58E-07 (Energy)
 MAX. NUMBER OF ITERATIONS:       60
 INTERPOLATION TYPE:            DIIS
 INTERPOLATION STEPS:              2 (START)      1 (STEP)
 LEVEL SHIFTS:                 -0.60 (CLOSED) -0.30 (OPEN) 


 Singly occupied orbitals:     12.1
 
 Extra symmetries of mos in symmetry 1:   1   1   1   1   3   2   3   2   1   3   2   1
 Orbital guess generated from atomic densities. Full valence occupancy:   12   6   6   3   6   3   3   1


 Molecular orbital dump at record        4202.2

 ITERATION    DDIFF          GRAD             ENERGY        2-EL.EN.            DIPOLE MOMENTS         DIIS   ORB.
    1      0.000D+00      0.000D+00    -18986.71438728  13124.241016    0.00000    0.00000    0.00000    0    start
    2      0.000D+00      0.137D+00    -19004.92616652  14656.271615    0.00000    0.00000    0.00000    1    diag,B
    3      0.104D+01      0.223D+00    -19009.77298601  14422.939875    0.00000    0.00000    0.00000    2    diag,B
    4      0.462D-01      0.115D+00    -19011.98713064  14242.135128    0.00000    0.00000    0.00000    3    diag,B
    5      0.580D-01      0.401D-01    -19012.39643808  14162.890503    0.00000    0.00000    0.00000    4    diag,B
    6      0.533D-01      0.118D-01    -19012.45672971  14126.450471    0.00000    0.00000    0.00000    5    diag,B
    7      0.166D-01      0.192D-02    -19012.46183586  14122.832058    0.00000    0.00000    0.00000    6    fixocc
    8      0.290D-01      0.790D-03    -19012.46246746  14122.550600    0.00000    0.00000    0.00000    7    diag,B
    9      0.868D-02      0.244D-03    -19012.46254973  14123.073794    0.00000    0.00000    0.00000    8    diag,B
   10      0.104D-02      0.843D-04    -19012.46257001  14122.903092    0.00000    0.00000    0.00000    9    orth
   11      0.784D-03      0.551D-04    -19012.46257136  14122.789083    0.00000    0.00000    0.00000    9    diag,B
   12      0.116D-03      0.538D-05    -19012.46257147  14122.769528    0.00000    0.00000    0.00000    9    diag,B
   13      0.104D-03      0.280D-05    -19012.46257148  14122.776418    0.00000    0.00000    0.00000    9    diag,B
   14      0.157D-04      0.522D-06    -19012.46257148  14122.774425    0.00000    0.00000    0.00000    9    diag,B
   15      0.320D-05      0.158D-06    -19012.46257148  14122.774894    0.00000    0.00000    0.00000    0    orth

 Final alpha occupancy:  12   6   6   3   6   3   3   1
 Final beta  occupancy:  11   6   6   3   6   3   3   1

 !RHF STATE 1.1 Energy               -19012.4625714833    
 Nuclear energy                         0.00000000
 One-electron energy               -26073.85001824
 Two-electron energy                 7061.38744676
 Virial quotient                       -0.66326262
 !RHF STATE 1.1 Dipole moment           0.00000000     0.00000000     0.00000000
 Dipole moment /Debye                   0.00000000     0.00000000     0.00000000

 ELECTRON ORBITALS
 =================


   Orb  Occ    Energy  Couls-En    Coefficients

                                   1 1s      1 1s      1 1s      1 1s      1 1s      1 1s      1 1s      1 1s      1 1s      1 1s   
                                   1 3d0     1 3d2+    1 3d0     1 3d2+    1 3d0     1 3d2+    1 3d0     1 3d2+    1 3d0     1 3d2+ 
                                   1 3d0     1 3d2+    1 3d0     1 3d2+ 

   1.1   2 -2984.1245-6418.2955  0.952546 -0.303159 -0.027351  0.001154 -0.000087 -0.000590  0.000144 -0.000178  0.000676 -0.000041
                                 0.000000  0.000000 -0.000000 -0.000000 -0.000000 -0.000000 -0.000000 -0.000000 -0.000000 -0.000000
                                 0.000000  0.000000 -0.000000 -0.000000

   2.1   2  -532.0189-1407.8049  0.298274  0.947565 -0.114393  0.009190  0.000119  0.001132 -0.000276  0.000342 -0.001297  0.000078
                                 0.000000 -0.000000 -0.000000  0.000000  0.000000 -0.000000  0.000000 -0.000000  0.000000 -0.000000
                                -0.000000  0.000000  0.000000 -0.000000

   3.1   2  -128.0775 -498.5098  0.060560  0.101048  0.984253 -0.131322  0.000403 -0.002179  0.000529 -0.000653  0.002501 -0.000159
                                 0.000000 -0.000000  0.000000  0.000000 -0.000000 -0.000000 -0.000000 -0.000000 -0.000000 -0.000000
                                 0.000000  0.000000 -0.000000 -0.000000

   4.1   2   -29.1409 -215.9001  0.004145  0.005089  0.131468  0.991664 -0.004281  0.004344 -0.001018  0.001288 -0.004976  0.000344
                                -0.000000  0.000000  0.000000 -0.000000  0.000000  0.000000  0.000000 -0.000000  0.000000  0.000000
                                -0.000000 -0.000000  0.000000  0.000000

   5.1   2   -84.0229 -420.5761  0.000000  0.000000  0.000000  0.000000 -0.000000  0.000000 -0.000000  0.000000 -0.000000 -0.000000
                                 0.000005  0.999967 -0.000000 -0.008127  0.000000  0.000025  0.000000  0.000000 -0.000000 -0.000001
                                 0.000000  0.000001  0.000000  0.000000

   6.1   2   -84.0229 -420.5761 -0.000000 -0.000000 -0.000000  0.000000  0.000000  0.000000 -0.000000  0.000000 -0.000000  0.000000
                                 0.999967 -0.000005 -0.008127  0.000000  0.000025 -0.000000  0.000000 -0.000000 -0.000001  0.000000
                                 0.000001 -0.000000  0.000000 -0.000000

   7.1   2   -13.4509 -175.2578 -0.000000 -0.000000 -0.000000  0.000000 -0.000000 -0.000000  0.000000 -0.000000  0.000000 -0.000000
                                 0.000000  0.008127  0.000002  0.999965 -0.000000 -0.001069 -0.000000 -0.000020 -0.000000 -0.000097
                                 0.000000  0.000106 -0.000000 -0.000027

   8.1   2   -13.4509 -175.2578 -0.000000 -0.000000 -0.000000 -0.000000 -0.000000 -0.000000  0.000000 -0.000000  0.000000 -0.000000
                                 0.008127 -0.000000  0.999965 -0.000002 -0.001069  0.000000 -0.000020  0.000000 -0.000097  0.000000
                                 0.000106 -0.000000 -0.000027  0.000000

   9.1   2    -4.6829  -95.2153 -0.000113  0.000054 -0.000680  0.004865  0.997214 -0.009560  0.003959 -0.001761  0.011205 -0.001472
                                 0.000000  0.000000 -0.000000 -0.000000 -0.000000 -0.000000  0.000000 -0.000000 -0.000000 -0.000000
                                -0.000000  0.000000  0.000000 -0.000000

  10.1   2    -0.4533  -58.5041  0.000000  0.000000  0.000000  0.000000  0.000000  0.000000  0.000000 -0.000000 -0.000000  0.000000
                                -0.000000 -0.000020  0.000000  0.000974  0.000000  0.997596  0.000000  0.014095  0.000000  0.002847
                                 0.000000  0.005898  0.000000  0.000568

  11.1   2    -0.4533  -58.5041  0.000000  0.000000  0.000000  0.000000  0.000000  0.000012 -0.000000  0.000000 -0.000000  0.000000
                                -0.000020  0.000000  0.000974 -0.000000  0.997596 -0.000000  0.014095 -0.000000  0.002847 -0.000000
                                 0.005898 -0.000000  0.000568 -0.000000

  12.1   +    -0.2902  -31.1165 -0.000111 -0.000278 -0.000772 -0.002070 -0.005807  0.974142 -0.026783  0.006491  0.018620  0.011524
                                 0.000000  0.000000 -0.000000  0.000000 -0.000012 -0.000000 -0.000001 -0.000000 -0.000000 -0.000000
                                -0.000001 -0.000000 -0.000000 -0.000000

  13.1   0     0.0403   -9.9605  0.007258  0.013504  0.048787  0.106332  0.364058  0.748535 -0.205329  0.068607 -2.578402  2.213608
                                -0.000000 -0.000000 -0.000000  0.000000  0.000000  0.000000  0.000000 -0.000000  0.000000  0.000000
                                 0.000000 -0.000000 -0.000001 -0.000000

  14.1   0     0.1187  -11.5887 -0.000000 -0.000000 -0.000000 -0.000000 -0.000000 -0.000000  0.000000  0.000000  0.000000  0.000000
                                 0.000000  0.000083  0.000000  0.001527 -0.000000 -0.024826  0.000000  0.093715  0.000000  0.036988
                                -0.000000 -0.461576  0.000000  1.256900

                                   1 2px     1 2px     1 2px     1 2px     1 2px     1 2px     1 2px     1 2px     1 2px     1 4f1+ 
                                   1 4f3+    1 4f1+    1 4f3+    1 4f1+    1 4f3+    1 4f1+    1 4f3+ 

   1.2   2  -461.5826-1278.8147  0.999613 -0.027832  0.000237  0.000007  0.000001 -0.000000  0.000000 -0.000000  0.000000  0.000000
                                 0.000000 -0.000000 -0.000000  0.000000  0.000000 -0.000000 -0.000000

   2.2   2  -107.2363 -458.0650  0.027830  0.999332 -0.023690 -0.000197  0.000011 -0.000008  0.000003 -0.000006  0.000001  0.000000
                                -0.000000 -0.000000  0.000000  0.000000 -0.000000 -0.000000 -0.000000

   3.2   2   -22.1645 -197.2742  0.000422  0.023688  0.999628  0.013521  0.000075 -0.000017  0.000046 -0.000014 -0.000009  0.000000
                                 0.000000 -0.000000  0.000000  0.000000 -0.000000 -0.000000  0.000000

   4.2   2    -3.7901 -148.4460 -0.000000 -0.000000 -0.000000 -0.000000 -0.000000  0.000000 -0.000000  0.000000 -0.000000  0.999860
                                -0.001613  0.000264 -0.000000  0.000124 -0.000000  0.000562 -0.000001

   5.2   2    -3.7901 -148.4460 -0.000000 -0.000000 -0.000000 -0.000000 -0.000000  0.000000 -0.000000  0.000000 -0.000000  0.001613
                                 0.999860  0.000000  0.000264  0.000000  0.000124  0.000001  0.000562

   6.2   2    -2.7439  -82.6351 -0.000007 -0.000123 -0.013523  0.999879 -0.000377  0.003561  0.001408  0.000282 -0.000048  0.000000
                                 0.000000 -0.000000 -0.000000 -0.000000 -0.000000  0.000000  0.000000

   7.2   0     0.0239  -10.5774  0.000014  0.000126  0.000747 -0.001247  0.543150 -0.189005  0.031689 -0.475223  1.145275  0.000000
                                -0.000000 -0.000000  0.000000  0.000000  0.000000 -0.000000  0.000000

   8.2   0     0.0769  -14.8780  0.000266  0.002349  0.013017  0.137685  0.544599 -0.391177  0.073656 -1.949512  1.380694 -0.000000
                                 0.000000  0.000000 -0.000000 -0.000000 -0.000000  0.000000 -0.000000

                                   1 2py     1 2py     1 2py     1 2py     1 2py     1 2py     1 2py     1 2py     1 2py     1 4f1- 
                                   1 4f3-    1 4f1-    1 4f3-    1 4f1-    1 4f3-    1 4f1-    1 4f3- 

   1.3   2  -461.5826-1278.8147  0.999613 -0.027832  0.000237  0.000007  0.000001 -0.000000  0.000000 -0.000000  0.000000  0.000000
                                -0.000000 -0.000000  0.000000  0.000000 -0.000000 -0.000000  0.000000

   2.3   2  -107.2363 -458.0650  0.027830  0.999332 -0.023690 -0.000197  0.000011 -0.000008  0.000003 -0.000006  0.000001  0.000000
                                 0.000000 -0.000000 -0.000000  0.000000  0.000000 -0.000000  0.000000

   3.3   2   -22.1645 -197.2742  0.000422  0.023688  0.999628  0.013521  0.000075 -0.000017  0.000046 -0.000014 -0.000009  0.000000
                                -0.000000 -0.000000 -0.000000  0.000000  0.000000 -0.000000 -0.000000

   4.3   2    -3.7901 -148.4460 -0.000000 -0.000000 -0.000000 -0.000000 -0.000000  0.000000 -0.000000  0.000000 -0.000000  0.999860
                                 0.001612  0.000264  0.000000  0.000124  0.000000  0.000562  0.000001

   5.3   2    -3.7901 -148.4460  0.000000  0.000000  0.000000  0.000000  0.000000 -0.000000  0.000000 -0.000000  0.000000 -0.001612
                                 0.999860 -0.000000  0.000264 -0.000000  0.000124 -0.000001  0.000562

   6.3   2    -2.7439  -82.6351 -0.000007 -0.000123 -0.013523  0.999879 -0.000377  0.003561  0.001408  0.000282 -0.000048  0.000000
                                -0.000000 -0.000000  0.000000 -0.000000  0.000000  0.000000 -0.000000

   7.3   0     0.0239  -10.5774  0.000014  0.000126  0.000747 -0.001247  0.543150 -0.189005  0.031689 -0.475223  1.145275  0.000000
                                 0.000000 -0.000000 -0.000000  0.000000 -0.000000 -0.000000 -0.000000

   8.3   0     0.0769  -14.8780  0.000266  0.002349  0.013017  0.137685  0.544599 -0.391177  0.073656 -1.949512  1.380694 -0.000000
                                -0.000000  0.000000  0.000000 -0.000000  0.000000  0.000000  0.000000

                                   1 3d2-    1 3d2-    1 3d2-    1 3d2-    1 3d2-    1 3d2-    1 3d2- 

   1.4   2   -84.0229 -420.5761  0.999967 -0.008127  0.000025  0.000000 -0.000001  0.000001  0.000000

   2.4   2   -13.4509 -175.2578  0.008127  0.999965 -0.001069 -0.000020 -0.000097  0.000106 -0.000027

   3.4   2    -0.4533  -58.5041 -0.000020  0.000974  0.997596  0.014095  0.002847  0.005898  0.000568

   4.4   0     0.1187  -11.5887  0.000083  0.001527 -0.024826  0.093715  0.036988 -0.461576  1.256900

   5.4   0     0.3983  -19.7817 -0.000800 -0.016918 -0.598879 -0.336696 -0.124215  1.956555 -0.958388

                                   1 2pz     1 2pz     1 2pz     1 2pz     1 2pz     1 2pz     1 2pz     1 2pz     1 2pz     1 4f0  
                                   1 4f2+    1 4f0     1 4f2+    1 4f0     1 4f2+    1 4f0     1 4f2+ 

   1.5   2  -461.5826-1278.8147  0.999613 -0.027832  0.000237  0.000007  0.000001 -0.000000  0.000000 -0.000000  0.000000  0.000000
                                -0.000000 -0.000000  0.000000  0.000000 -0.000000 -0.000000  0.000000

   2.5   2  -107.2363 -458.0650  0.027830  0.999332 -0.023690 -0.000197  0.000011 -0.000008  0.000003 -0.000006  0.000001  0.000000
                                -0.000000 -0.000000  0.000000  0.000000 -0.000000 -0.000000  0.000000

   3.5   2   -22.1645 -197.2742  0.000422  0.023688  0.999628  0.013521  0.000075 -0.000017  0.000046 -0.000014 -0.000009  0.000000
                                 0.000000 -0.000000 -0.000000  0.000000 -0.000000 -0.000000 -0.000000

   4.5   2    -3.7901 -148.4460 -0.000000 -0.000000 -0.000000 -0.000000 -0.000000  0.000000 -0.000000  0.000000 -0.000000  0.999861
                                 0.000001  0.000264  0.000000  0.000124  0.000000  0.000562  0.000000

   5.5   2    -3.7901 -148.4460  0.000000  0.000000  0.000000  0.000000  0.000000 -0.000000  0.000000 -0.000000 -0.000000 -0.000001
                                 0.999861 -0.000000  0.000264 -0.000000  0.000124 -0.000000  0.000562

   6.5   2    -2.7439  -82.6351 -0.000007 -0.000123 -0.013523  0.999879 -0.000377  0.003561  0.001408  0.000282 -0.000048  0.000000
                                -0.000000 -0.000000 -0.000000 -0.000000 -0.000000  0.000000 -0.000000

   7.5   0     0.0239  -10.5774  0.000014  0.000126  0.000747 -0.001246  0.543149 -0.189005  0.031689 -0.475228  1.145279  0.000000
                                 0.000000 -0.000000 -0.000000  0.000000 -0.000000 -0.000000 -0.000000

   8.5   0     0.0769  -14.8780  0.000266  0.002349  0.013017  0.137685  0.544604 -0.391179  0.073656 -1.949517  1.380692 -0.000000
                                 0.000000  0.000000  0.000000 -0.000000  0.000000  0.000000  0.000000

                                   1 3d1+    1 3d1+    1 3d1+    1 3d1+    1 3d1+    1 3d1+    1 3d1+ 

   1.6   2   -84.0229 -420.5761  0.999967 -0.008127  0.000025  0.000000 -0.000001  0.000001  0.000000

   2.6   2   -13.4509 -175.2578  0.008127  0.999965 -0.001069 -0.000020 -0.000097  0.000106 -0.000027

   3.6   2    -0.4533  -58.5041 -0.000020  0.000974  0.997596  0.014095  0.002847  0.005898  0.000568

   4.6   0     0.1187  -11.5887  0.000083  0.001527 -0.024826  0.093715  0.036988 -0.461576  1.256900

   5.6   0     0.3983  -19.7817 -0.000800 -0.016918 -0.598879 -0.336696 -0.124215  1.956555 -0.958388

                                   1 3d1-    1 3d1-    1 3d1-    1 3d1-    1 3d1-    1 3d1-    1 3d1- 

   1.7   2   -84.0229 -420.5761  0.999967 -0.008127  0.000025  0.000000 -0.000001  0.000001  0.000000

   2.7   2   -13.4509 -175.2578  0.008127  0.999965 -0.001069 -0.000020 -0.000097  0.000106 -0.000027

   3.7   2    -0.4533  -58.5041 -0.000020  0.000974  0.997596  0.014095  0.002847  0.005898  0.000568

   4.7   0     0.1187  -11.5887  0.000083  0.001527 -0.024826  0.093715  0.036988 -0.461576  1.256900

   5.7   0     0.3983  -19.7817 -0.000800 -0.016918 -0.598879 -0.336696 -0.124215  1.956555 -0.958388

                                   1 4f2-    1 4f2-    1 4f2-    1 4f2- 

   1.8   2    -3.7901 -148.4460  0.999861  0.000264  0.000124  0.000562

   2.8   0     0.7143  -23.4235 -0.048292  0.079304 -0.129599  1.069734

   3.8   0     1.7807  -38.7105  0.172034 -0.124281 -1.224313  0.745207

 HOMO     12.1    -0.290217 =      -7.8972eV
 LUMO      7.2     0.023932 =       0.6512eV
 LUMO-HOMO         0.314149 =       8.5484eV


 **********************************************************************************************************************************
 DATASETS  * FILE   NREC   LENGTH (MB)   RECORD NAMES
              1      22       20.35       500      610      700      900      950      970     1000      129      960     1700   
                                          VAR    BASINP    GEOM    SYMINP    ZMAT    AOBASIS   BASIS     P2S    ABASIS    OPER   
                                         1101     1401     1411     1412     1650     1100     1400     1410     1200     1210   
                                          SR      EKINR    POTR     PVPR    MOLCAS      S      EKIN      POT      H0       H01  
                                         1080     1600   
                                         AOSYM     SMH  

              2       5        5.42       200      700     1000      520     4202   
                                        OPTIONS   GEOM     BASIS   MCVARS     RHF  

 PROGRAMS   *        TOTAL       RHF       INT
 CPU TIMES  *         8.80      0.09      8.33
 REAL TIME  *        10.24 SEC
 DISK USED  *       341.29 MB      
 SF USED    *         0.01 MB      
 GA USED    *         0.00 MB       (max)       0.00 MB       (current)
 **********************************************************************************************************************************


 PROGRAM * POP (Mulliken population analysis)

 
 Density matrix read from record         4202.2  Type=RHF/CHARGE (state 1.1)
 
 Population analysis by basis function type

 Unique atom        s        p        d        f        g    Total    Charge
   1  AU     11.00000 24.00000 30.00000 14.00000  0.00000 79.00000  + 0.00000


 **********************************************************************************************************************************
 DATASETS  * FILE   NREC   LENGTH (MB)   RECORD NAMES
              1      22       20.35       500      610      700      900      950      970     1000      129      960     1700   
                                          VAR    BASINP    GEOM    SYMINP    ZMAT    AOBASIS   BASIS     P2S    ABASIS    OPER   
                                         1101     1401     1411     1412     1650     1100     1400     1410     1200     1210   
                                          SR      EKINR    POTR     PVPR    MOLCAS      S      EKIN      POT      H0       H01  
                                         1080     1600   
                                         AOSYM     SMH  

              2       5        5.42       200      700     1000      520     4202   
                                        OPTIONS   GEOM     BASIS   MCVARS     RHF  

 PROGRAMS   *        TOTAL       POP       RHF       INT
 CPU TIMES  *         8.80      0.00      0.09      8.33
 REAL TIME  *        10.25 SEC
 DISK USED  *       341.29 MB      
 SF USED    *         0.01 MB      
 GA USED    *         0.00 MB       (max)       0.00 MB       (current)
 **********************************************************************************************************************************
 SETTING BASIS          =    USERDEF


 Recomputing integrals since basis changed


 Using spherical harmonics



 PROGRAM * SEWARD (Integral evaluation for generally contracted gaussian basis sets)     Author: Roland Lindh, 1990

 Geometry written to block  1 of record 700

 Orientation using atomic masses  
 Molecule type: Atom
 Symmetry elements: X,Y,Z
 Rotational constants:       0.0000000      0.0000000      0.0000000 GHz  (calculated with average atomic masses)

 Point group  D2h 



 ATOMIC COORDINATES

 NR  ATOM    CHARGE       X              Y              Z

   1  AU     79.00    0.000000000    0.000000000    0.000000000

 NUCLEAR CHARGE:                   79
 NUMBER OF PRIMITIVE AOS:         449
 NUMBER OF SYMMETRY AOS:          365
 NUMBER OF CONTRACTIONS:          365   (  86Ag  +  61B3u +  61B2u +  27B1g +  61B1u +  27B2g +  27B3g +  15Au  )
 NUMBER OF CORE ORBITALS:          34   (   9Ag  +   6B3u +   6B2u +   2B1g +   6B1u +   2B2g +   2B3g +   1Au  )
 NUMBER OF VALENCE ORBITALS:        6   (   3Ag  +   0B3u +   0B2u +   1B1g +   0B1u +   1B2g +   1B3g +   0Au  )


 NUCLEAR REPULSION ENERGY    0.00000000

 One-electron integrals computed with SEWARD

 10nd-order Douglas-Kroll-Hess method activated. McWeeny DKH parametrization is used.

 Computing Douglas-Kroll / X2C integrals

 AO integral compression algorithm  1   Integral accuracy      1.0D-11

     1310.720 MB (compressed) written to integral file ( 28.2%)

     Node minimum: 60.555 MB, node maximum: 179.569 MB


 NUMBER OF SORTED TWO-ELECTRON INTEGRALS:   26139622.     BUFFER LENGTH:  32768
 NUMBER OF SEGMENTS:   1  SEGMENT LENGTH:   26139622      RECORD LENGTH: 524288

 Memory used in sort:      26.70 MW

 SORT1 READ   581377519. AND WROTE    13928861. INTEGRALS IN     40 RECORDS. CPU TIME:    12.23 SEC, REAL TIME:    13.80 SEC
 SORT2 READ   152118726. AND WROTE   288141177. INTEGRALS IN   2541 RECORDS. CPU TIME:     0.42 SEC, REAL TIME:     0.92 SEC

 Node minimum:    26087294.  Node maximum:    26306516. integrals

 OPERATOR DM      FOR CENTER  0  COORDINATES:    0.000000    0.000000    0.000000

 EXTRA SYMMETRY OF AOS IN SYMMETRY 1:   1 1 1 1 1 1 1 1 1 1   1 1 1 1 1 1 1 1 1 1   1 1 1 1 1 1 1 1 1 1   1 1 1 1 1 1 1 1 1 1
                                        1 1 1 1 1 1 1 1 1 1   1 1 1 1 1 1 1 1 1 1   1 1 1 1 1 1 1 1 1 1   1 1 1 1 1 1 1 2 3 4
                                        2 3 4 2 3 4
 EXTRA SYMMETRY OF AOS IN SYMMETRY 2:   1 1 1 1 1 1 1 1 1 1   1 1 1 1 1 1 1 1 1 1   1 1 1 1 1 1 1 1 1 1   1 2 3 2 3 2 3 2 3 2
                                        3 2 3 2 3 2 3 2 3 2   3 2 3 2 3 2 3 2 3 2   3
 EXTRA SYMMETRY OF AOS IN SYMMETRY 3:   1 1 1 1 1 1 1 1 1 1   1 1 1 1 1 1 1 1 1 1   1 1 1 1 1 1 1 1 1 1   1 2 3 2 3 2 3 2 3 2
                                        3 2 3 2 3 2 3 2 3 2   3 2 3 2 3 2 3 2 3 2   3
 EXTRA SYMMETRY OF AOS IN SYMMETRY 4:   1 1 1 1 1 1 1 1 1 1   1 1 1 1 1 1 1 1 1 1   1 2 3 2 3 2 3
 EXTRA SYMMETRY OF AOS IN SYMMETRY 5:   1 1 1 1 1 1 1 1 1 1   1 1 1 1 1 1 1 1 1 1   1 1 1 1 1 1 1 1 1 1   1 2 3 2 3 2 3 2 3 2
                                        3 2 3 2 3 2 3 2 3 2   3 2 3 2 3 2 3 2 3 2   3
 EXTRA SYMMETRY OF AOS IN SYMMETRY 6:   1 1 1 1 1 1 1 1 1 1   1 1 1 1 1 1 1 1 1 1   1 2 3 2 3 2 3
 EXTRA SYMMETRY OF AOS IN SYMMETRY 7:   1 1 1 1 1 1 1 1 1 1   1 1 1 1 1 1 1 1 1 1   1 2 3 2 3 2 3

 Eigenvalues of metric

         1 0.109E-05 0.119E-04 0.119E-04 0.186E-04 0.547E-04 0.121E-03 0.121E-03 0.172E-03
         2 0.490E-06 0.215E-04 0.415E-04 0.415E-04 0.153E-03 0.505E-03 0.891E-03 0.891E-03
         3 0.490E-06 0.215E-04 0.415E-04 0.415E-04 0.153E-03 0.505E-03 0.891E-03 0.891E-03
         4 0.119E-04 0.121E-03 0.616E-03 0.199E-02 0.555E-02 0.132E-01 0.261E-01 0.504E-01
         5 0.490E-06 0.215E-04 0.415E-04 0.415E-04 0.153E-03 0.505E-03 0.891E-03 0.891E-03
         6 0.119E-04 0.121E-03 0.616E-03 0.199E-02 0.555E-02 0.132E-01 0.261E-01 0.504E-01
         7 0.119E-04 0.121E-03 0.616E-03 0.199E-02 0.555E-02 0.132E-01 0.261E-01 0.504E-01
         8 0.415E-04 0.891E-03 0.509E-02 0.124E-01 0.336E-01 0.825E-01 0.168E+00 0.319E+00


 **********************************************************************************************************************************
 DATASETS  * FILE   NREC   LENGTH (MB)   RECORD NAMES
              1      22       21.43       500      610      700      900      950      970     1001      129      960     1700   
                                          VAR    BASINP    GEOM    SYMINP    ZMAT    AOBASIS   BASIS     P2S    ABASIS    OPER   
                                         1101     1401     1411     1412     1650     1100     1400     1410     1200     1210   
                                          SR      EKINR    POTR     PVPR    MOLCAS      S      EKIN      POT      H0       H01  
                                         1080     1600   
                                         AOSYM     SMH  

              2       6        5.50       200      700     1000      520     4202     1001   
                                        OPTIONS   GEOM     BASIS   MCVARS     RHF     BASIS   

 PROGRAMS   *        TOTAL       INT       POP       RHF       INT
 CPU TIMES  *       112.25    103.44      0.00      0.09      8.33
 REAL TIME  *       119.66 SEC
 DISK USED  *         3.43 GB      
 SF USED    *         0.01 MB      
 GA USED    *         0.00 MB       (max)       0.00 MB       (current)
 **********************************************************************************************************************************


 PROGRAM * MULTI (Direct Multiconfiguration SCF)       Authors: P.J. Knowles, H.-J. Werner (1984)     S.T. Elbert (1988)


 Number of closed-shell orbitals:  39 (  11   6   6   3   6   3   3   1 )
 Number of active  orbitals:        1 (   1   0   0   0   0   0   0   0 )
 Number of external orbitals:     325 (  74  55  55  24  55  24  24  14 )

 State symmetry 1

 Orbital occupancy restrictions for symmetry 1
  1      1       2                               

 Number of electrons:     1    Spin symmetry=Doublet   Space symmetry=1
 Number of states:        1
 Number of CSFs:          1
 
 Maximum number of shells:             1
 Maximum number of spin couplings:     1

 Storage for configuration lists       2, coupling coefficients      1, address lists      7

 Molecular orbitals read from record     4202.2  Type=RHF/CANONICAL (state 1.1)
 
 Present basis size:      86  61  61  27  61  27  27  15
 Previous basis size:     24  17  17   7  17   7   7   4
 Previous occupation:     12   6   6   3   6   3   3   1
 Previous closed-shells:  11   6   6   3   6   3   3   1
 Previous core-orbitals:   9   6   6   2   6   2   2   1
 Present occupation:      12   6   6   3   6   3   3   1
 Present closed-shells:   11   6   6   3   6   3   3   1
 Present core-orbitals:    9   6   6   2   6   2   2   1
 Wavefunction symmetry:    1   Doublet 

 Orbital overlap <old|new>:  < 1.1| 1.1> = 1.000000   < 2.1| 2.1> = 1.000000   < 3.1| 3.1> = 1.000000   < 4.1| 4.1> = 1.000000
                             < 5.1| 5.1> = 1.000000   < 6.1| 6.1> = 1.000000   < 7.1| 7.1> = 1.000000   < 8.1| 8.1> = 1.000000
                             < 9.1| 9.1> = 1.000000   < 1.2| 1.2> = 1.000000   < 2.2| 2.2> = 1.000000   < 3.2| 3.2> = 1.000000
                             < 4.2| 4.2> = 1.000000   < 5.2| 5.2> = 1.000000   < 6.2| 6.2> = 1.000000   < 1.3| 1.3> = 1.000000
                             < 2.3| 2.3> = 1.000000   < 3.3| 3.3> = 1.000000   < 4.3| 4.3> = 1.000000   < 5.3| 5.3> = 1.000000
                             < 6.3| 6.3> = 1.000000   < 1.4| 1.4> = 1.000000   < 2.4| 2.4> = 1.000000   < 1.5| 1.5> = 1.000000
                             < 2.5| 2.5> = 1.000000   < 3.5| 3.5> = 1.000000   < 4.5| 4.5> = 1.000000   < 5.5| 5.5> = 1.000000
                             < 6.5| 6.5> = 1.000000   < 1.6| 1.6> = 1.000000   < 2.6| 2.6> = 1.000000   < 1.7| 1.7> = 1.000000
                             < 2.7| 2.7> = 1.000000   < 1.8| 1.8> = 1.000000   <10.1|10.1> = 1.000000   <11.1|11.1> = 1.000000
                             < 3.4| 3.4> = 1.000000   < 3.6| 3.6> = 1.000000   < 3.7| 3.7> = 1.000000   <12.1|12.1> = 1.000000

 EXTRA SYMMETRY OF MOS IN SYMMETRY 1:   1 1 1 1 1 1 1 1 1 1   1 1 1 1 1 1 1 1 4 3   2 1 1 1 4 2 3 1 1 1   1 1 1 4 2 3 1 1 1 1
                                        1 1 1 1 1 1 1 1 1 1   1 1 1 1 1 1 1 1 1 1   1 1 1 1 1 1 1 1 1 1   1 1 1 1 1 1 1 1 1 1
                                        1 1 1 1 1 1
 *** IN SYMMETRY 2 ORBITAL  4 SYMMETRY CONTAMINATION OF 0.161D-02 HAS BEEN REMOVED
 *** IN SYMMETRY 2 ORBITAL  5 SYMMETRY CONTAMINATION OF 0.161D-02 HAS BEEN REMOVED
 EXTRA SYMMETRY OF MOS IN SYMMETRY 2:   1 1 1 2 3 1 3 2 1 3   2 1 3 2 1 3 2 1 3 2   1 3 2 1 3 2 2 3 1 2   3 1 1 1 2 3 1 1 2 3
                                        1 2 3 1 3 2 1 2 3 1   1 1 1 1 1 1 1 1 1 1   1
 *** IN SYMMETRY 3 ORBITAL  4 SYMMETRY CONTAMINATION OF 0.161D-02 HAS BEEN REMOVED
 *** IN SYMMETRY 3 ORBITAL  5 SYMMETRY CONTAMINATION OF 0.161D-02 HAS BEEN REMOVED
 EXTRA SYMMETRY OF MOS IN SYMMETRY 3:   1 1 1 2 3 1 3 2 1 3   2 1 3 2 1 3 2 1 3 2   1 3 2 1 2 3 2 3 1 2   3 1 1 1 2 3 1 1 3 2
                                        1 3 2 1 2 3 1 3 2 1   1 1 1 1 1 1 1 1 1 1   1
 EXTRA SYMMETRY OF MOS IN SYMMETRY 4:   1 1 1 1 1 3 2 1 3 2   1 1 3 2 1 1 1 1 1 1   1 1 1 1 1 1 1
 EXTRA SYMMETRY OF MOS IN SYMMETRY 5:   1 1 1 2 3 1 3 2 1 3   2 1 3 2 1 3 2 1 3 2   1 3 2 1 3 2 3 2 1 2   3 1 1 1 2 3 1 1 3 2
                                        1 3 2 1 3 2 1 3 2 1   1 1 1 1 1 1 1 1 1 1   1
 EXTRA SYMMETRY OF MOS IN SYMMETRY 6:   1 1 1 1 1 3 2 1 2 3   1 1 3 2 1 1 1 1 1 1   1 1 1 1 1 1 1
 EXTRA SYMMETRY OF MOS IN SYMMETRY 7:   1 1 1 1 1 3 2 1 2 3   1 1 2 3 1 1 1 1 1 1   1 1 1 1 1 1 1

 Wavefunction dump at record             5202.2

 Convergence thresholds  0.10E-01 (gradient)  0.16E-05 (energy)  0.10E-02 (step length)

 Number of orbital rotations:     2119   (    11 Core/Active   2034 Core/Virtual   0 Active/Active     74 Active/Virtual)
 Total number of variables:       2120


 ITER. MIC  NCI  NEG     ENERGY(VAR)     ENERGY(PROJ)   ENERGY CHANGE     GRAD(0)  GRAD(ORB)   GRAD(CI)     STEP       TIME

   1   40    7    0  -19012.46256916  -19012.51199733   -0.04942818   52.60089636 0.00002415 0.00000000  0.32D-02      3.97
   2   40    5    0  -19012.51199608  -19012.51199608   -0.00000000    0.00108634 0.00000892 0.00000000  0.66D-05      7.82

 ** WVFN ****  CONVERGENCE REACHED, FINAL GRADIENT:  0.89D-05


 First order charge density matrix for state 1.1 saved on record  5202.2 (density set 1)

 Results for state 1.1
 =====================

 !MCSCF STATE 1.1 Energy             -19012.5119960834    
 Nuclear energy                         0.00000000
 Kinetic energy                     28787.48524878
 One electron energy               -26074.51050387
 Two electron energy                 7061.99850779
 Virial ratio                           1.66044366

 !MCSCF STATE 1.1 Dipole moment         0.00000000     0.00000000     0.00000000
 Dipole moment /Debye                   0.00000000     0.00000000     0.00000000


 NATURAL ORBITALS
 ================

   Orb     Occ        Energy       Coefficients

                                   1 1s      1 1s      1 1s      1 1s      1 1s      1 1s      1 1s      1 1s      1 1s      1 1s   
                                   1 1s      1 1s      1 1s      1 1s      1 1s      1 1s      1 1s      1 1s      1 1s      1 1s   
                                   1 1s      1 1s      1 1s      1 1s      1 1s      1 1s      1 1s      1 1s      1 1s      1 1s   
                                   1 1s      1 1s      1 1s      1 1s      1 1s      1 3d0     1 3d2+    1 3d0     1 3d2+    1 3d0  
                                   1 3d2+    1 3d0     1 3d2+    1 3d0     1 3d2+    1 3d0     1 3d2+    1 3d0     1 3d2+    1 3d0  
                                   1 3d2+    1 3d0     1 3d2+    1 3d0     1 3d2+    1 3d0     1 3d2+    1 3d0     1 3d2+    1 3d0  
                                   1 3d2+    1 3d0     1 3d2+    1 3d0     1 3d2+    1 3d0     1 3d2+    1 3d0     1 3d2+    1 3d0  
                                   1 3d2+    1 3d0     1 3d2+    1 3d0     1 3d2+    1 3d0     1 3d2+    1 5g0     1 5g4+    1 5g2+ 
                                   1 5g0     1 5g4+    1 5g2+    1 5g0     1 5g4+    1 5g2+ 

   1.1  2.00000 -2984.010836     0.000012  0.000034  0.000094  0.000219  0.000464  0.000907  0.001690  0.003040  0.005362  0.009355
                                 0.016268  0.028296  0.049269  0.085284  0.143710  0.223766  0.288540  0.250476  0.104235  0.011392
                                 0.000764 -0.000466  0.000321 -0.000303  0.000280 -0.000420 -0.000567  0.000254  0.000049 -0.000004
                                 0.000002 -0.000001  0.000000  0.000724 -0.000174 -0.000000  0.000000  0.000000 -0.000000 -0.000000
                                 0.000000  0.000000  0.000000 -0.000000 -0.000000  0.000000  0.000000 -0.000000 -0.000000  0.000000
                                 0.000000 -0.000000 -0.000000  0.000000  0.000000 -0.000000 -0.000000  0.000000  0.000000 -0.000000
                                -0.000000 -0.000000 -0.000000  0.000000 -0.000000  0.000000 -0.000000 -0.000000  0.000000  0.000000
                                -0.000000 -0.000000 -0.000000  0.000000  0.000000 -0.000000  0.000000  0.000000  0.000000  0.000000
                                 0.000000  0.000000  0.000000  0.000000  0.000000  0.000000

   2.1  2.00000  -532.001552    -0.000005 -0.000013 -0.000037 -0.000085 -0.000180 -0.000352 -0.000657 -0.001184 -0.002095 -0.003674
                                -0.006442 -0.011351 -0.020163 -0.036028 -0.063907 -0.108310 -0.159712 -0.157532  0.020985  0.384039
                                 0.505889  0.209056  0.019238  0.000569 -0.000104 -0.000391 -0.000594  0.000311  0.000065 -0.000006
                                 0.000003 -0.000001  0.000000  0.000693 -0.000217  0.000000  0.000000 -0.000000 -0.000000  0.000000
                                 0.000000 -0.000000 -0.000000  0.000000 -0.000000 -0.000000 -0.000000  0.000000  0.000000 -0.000000
                                -0.000000  0.000000  0.000000 -0.000000 -0.000000  0.000000 -0.000000 -0.000000  0.000000  0.000000
                                -0.000000  0.000000 -0.000000 -0.000000  0.000000  0.000000  0.000000 -0.000000 -0.000000  0.000000
                                 0.000000 -0.000000 -0.000000 -0.000000  0.000000 -0.000000 -0.000000  0.000000  0.000000  0.000000
                                 0.000000  0.000000  0.000000  0.000000  0.000000  0.000000

   3.1  2.00000  -128.075127     0.000002  0.000006  0.000017  0.000041  0.000086  0.000169  0.000315  0.000567  0.001004  0.001763
                                 0.003096  0.005466  0.009743  0.017500  0.031324  0.053885  0.081541  0.082614 -0.024223 -0.317527
                                -0.550326 -0.143067  0.700696  0.590573  0.085096  0.021688  0.026733 -0.012598 -0.002529  0.000226
                                -0.000115  0.000047 -0.000013 -0.032929  0.008714 -0.000000 -0.000000  0.000000 -0.000000 -0.000000
                                 0.000000  0.000000 -0.000000 -0.000000  0.000000  0.000000 -0.000000 -0.000000  0.000000  0.000000
                                 0.000000 -0.000000 -0.000000 -0.000000  0.000000  0.000000 -0.000000 -0.000000  0.000000  0.000000
                                -0.000000  0.000000 -0.000000 -0.000000  0.000000 -0.000000  0.000000  0.000000 -0.000000 -0.000000
                                 0.000000  0.000000 -0.000000 -0.000000  0.000000  0.000000 -0.000000  0.000000  0.000000  0.000000
                                 0.000000  0.000000  0.000000  0.000000  0.000000  0.000000

   4.1  2.00000   -84.017407     0.000000  0.000000  0.000000  0.000000  0.000000  0.000000  0.000000  0.000000  0.000000 -0.000000
                                 0.000000 -0.000000  0.000000 -0.000000  0.000000 -0.000000  0.000000 -0.000000  0.000000 -0.000000
                                 0.000000 -0.000000  0.000000 -0.000000  0.000000 -0.000000 -0.000000  0.000000  0.000000 -0.000000
                                 0.000000 -0.000000  0.000000  0.000000 -0.000000  0.000019 -0.000000  0.000114 -0.000000  0.000620
                                -0.000000  0.002824 -0.000000  0.011003 -0.000001  0.035196 -0.000003  0.093161 -0.000007  0.195384
                                -0.000015  0.308301 -0.000024  0.328463 -0.000026  0.189621 -0.000015  0.049903 -0.000004  0.004290
                                -0.000000  0.000091 -0.000000  0.000142 -0.000000  0.000045 -0.000000 -0.000005  0.000000  0.000001
                                -0.000000 -0.000000  0.000000  0.000622 -0.000000 -0.000080  0.000000  0.000000  0.000000  0.000000
                                 0.000000  0.000000  0.000000  0.000000  0.000000  0.000000

   5.1  2.00000   -84.017407     0.000000 -0.000000  0.000000 -0.000000  0.000000 -0.000000  0.000000 -0.000000  0.000000 -0.000000
                                 0.000000 -0.000000  0.000000  0.000000  0.000000 -0.000000  0.000000 -0.000000  0.000000 -0.000000
                                 0.000000 -0.000000  0.000000 -0.000000  0.000000 -0.000000 -0.000000  0.000000  0.000000  0.000000
                                -0.000000  0.000000  0.000000  0.000000 -0.000000  0.000000  0.000019  0.000000  0.000114  0.000000
                                 0.000620  0.000000  0.002824  0.000001  0.011003  0.000003  0.035196  0.000007  0.093161  0.000015
                                 0.195384  0.000024  0.308301  0.000026  0.328463  0.000015  0.189621  0.000004  0.049903  0.000000
                                 0.004290  0.000000  0.000091  0.000000  0.000142  0.000000  0.000045 -0.000000 -0.000005  0.000000
                                 0.000001 -0.000000 -0.000000  0.000000  0.000622 -0.000000 -0.000080  0.000000  0.000000  0.000000
                                 0.000000  0.000000  0.000000  0.000000  0.000000  0.000000

   6.1  2.00000   -29.141214    -0.000001 -0.000003 -0.000009 -0.000020 -0.000043 -0.000084 -0.000157 -0.000283 -0.000502 -0.000881
                                -0.001548 -0.002733 -0.004878 -0.008769 -0.015742 -0.027149 -0.041424 -0.042079  0.013881  0.182723
                                 0.336656  0.093349 -0.738619 -0.810294  0.457357  0.970954  0.270338 -0.056758 -0.011351  0.001155
                                -0.000578  0.000230 -0.000062 -0.070859  0.043054  0.000000 -0.000000 -0.000000  0.000000  0.000000
                                -0.000000 -0.000000  0.000000  0.000000 -0.000000 -0.000000  0.000000  0.000000 -0.000000 -0.000000
                                 0.000000  0.000000 -0.000000 -0.000000  0.000000  0.000000 -0.000000 -0.000000  0.000000  0.000000
                                -0.000000  0.000000 -0.000000  0.000000  0.000000  0.000000  0.000000 -0.000000 -0.000000  0.000000
                                 0.000000 -0.000000  0.000000 -0.000000  0.000000 -0.000000 -0.000000  0.000000  0.000000  0.000000
                                 0.000000  0.000000  0.000000  0.000000  0.000000  0.000000

   7.1  2.00000   -13.450072    -0.000000 -0.000000 -0.000000 -0.000000 -0.000000  0.000000 -0.000000  0.000000 -0.000000  0.000000
                                -0.000000  0.000000 -0.000000  0.000000 -0.000000  0.000000 -0.000000  0.000000 -0.000000  0.000000
                                -0.000000  0.000000 -0.000000  0.000000 -0.000000  0.000000 -0.000000  0.000000  0.000000 -0.000000
                                 0.000000 -0.000000  0.000000 -0.000000 -0.000000 -0.000010  0.000000 -0.000059  0.000000 -0.000322
                                 0.000001 -0.001467  0.000003 -0.005764  0.000013 -0.018572  0.000041 -0.050060  0.000110 -0.105921
                                 0.000232 -0.164208  0.000360 -0.143281  0.000314  0.070585 -0.000155  0.348070 -0.000763  0.429949
                                -0.000942  0.240004 -0.000526  0.053093 -0.000116  0.004326 -0.000009  0.000159 -0.000000  0.000007
                                -0.000000  0.000002 -0.000000  0.000758 -0.000002 -0.001994  0.000004  0.000000  0.000000  0.000000
                                 0.000000  0.000000  0.000000  0.000000  0.000000  0.000000

   8.1  2.00000   -13.450072    -0.000000  0.000000 -0.000000  0.000000 -0.000000  0.000000 -0.000000  0.000000 -0.000000  0.000000
                                -0.000000  0.000000 -0.000000  0.000000 -0.000000  0.000000 -0.000000  0.000000 -0.000000  0.000000
                                -0.000000  0.000000 -0.000000  0.000000 -0.000000  0.000000  0.000000  0.000000  0.000000 -0.000000
                                 0.000000  0.000000 -0.000000 -0.000000 -0.000000 -0.000000 -0.000010 -0.000000 -0.000059 -0.000001
                                -0.000322 -0.000003 -0.001467 -0.000013 -0.005764 -0.000041 -0.018572 -0.000110 -0.050060 -0.000232
                                -0.105921 -0.000360 -0.164208 -0.000314 -0.143281  0.000155  0.070585  0.000763  0.348070  0.000942
                                 0.429949  0.000526  0.240004  0.000116  0.053093  0.000009  0.004326  0.000000  0.000159  0.000000
                                 0.000007  0.000000  0.000002  0.000002  0.000758 -0.000004 -0.001994  0.000000  0.000000  0.000000
                                 0.000000  0.000000  0.000000  0.000000  0.000000  0.000000

   9.1  2.00000    -4.683184     0.000000  0.000001  0.000004  0.000009  0.000019  0.000036  0.000068  0.000122  0.000216  0.000380
                                 0.000668  0.001179  0.002105  0.003785  0.006801  0.011734  0.017946  0.018227 -0.006158 -0.081641
                                -0.152468 -0.044399  0.386704  0.442771 -0.336945 -0.964341 -0.087547  0.873359  0.531231  0.037767
                                -0.009472  0.003896 -0.000951 -0.062300  0.022409 -0.000000 -0.000000  0.000000 -0.000000 -0.000000
                                -0.000000  0.000000 -0.000000 -0.000000  0.000000  0.000000 -0.000000 -0.000000 -0.000000  0.000000
                                -0.000000 -0.000000 -0.000000  0.000000 -0.000000 -0.000000  0.000000  0.000000  0.000000 -0.000000
                                -0.000000 -0.000000 -0.000000 -0.000000  0.000000 -0.000000  0.000000  0.000000 -0.000000 -0.000000
                                 0.000000  0.000000  0.000000  0.000000  0.000000  0.000000 -0.000000  0.000000  0.000000  0.000000
                                 0.000000  0.000000  0.000000  0.000000  0.000000  0.000000

  10.1  2.00000    -0.453291    -0.000000 -0.000000 -0.000000 -0.000000 -0.000000 -0.000000 -0.000000 -0.000000 -0.000000 -0.000000
                                -0.000000 -0.000000 -0.000000 -0.000000 -0.000000 -0.000000 -0.000000  0.000000 -0.000000  0.000000
                                -0.000000  0.000000 -0.000000  0.000000 -0.000000  0.000000  0.000000 -0.000000 -0.000000  0.000000
                                -0.000000  0.000000 -0.000000 -0.000000  0.000000  0.000000  0.000003  0.000000  0.000017  0.000000
                                 0.000095  0.000001  0.000432  0.000005  0.001699  0.000015  0.005480  0.000040  0.014822  0.000084
                                 0.031398  0.000130  0.048568  0.000107  0.040129 -0.000090 -0.033593 -0.000341 -0.127858 -0.000412
                                -0.154599 -0.000044 -0.016576  0.000619  0.231859  0.001019  0.381951  0.000936  0.350910  0.000552
                                 0.206875  0.000157  0.058667 -0.000014 -0.005270  0.000014  0.005306  0.000000  0.000000  0.000000
                                 0.000000  0.000000  0.000000  0.000000  0.000000  0.000000

  11.1  2.00000    -0.453291    -0.000000 -0.000000 -0.000000 -0.000000 -0.000000 -0.000000 -0.000000 -0.000000 -0.000000 -0.000000
                                -0.000000 -0.000000 -0.000000 -0.000000 -0.000000 -0.000000 -0.000000  0.000000 -0.000000  0.000000
                                -0.000000  0.000000 -0.000000  0.000000 -0.000000  0.000000  0.000000 -0.000000 -0.000000  0.000000
                                -0.000000  0.000000 -0.000000 -0.000000  0.000000  0.000003 -0.000000  0.000017 -0.000000  0.000095
                                -0.000000  0.000432 -0.000001  0.001699 -0.000005  0.005480 -0.000015  0.014822 -0.000040  0.031398
                                -0.000084  0.048568 -0.000130  0.040129 -0.000107 -0.033593  0.000090 -0.127858  0.000341 -0.154599
                                 0.000412 -0.016576  0.000044  0.231859 -0.000619  0.381951 -0.001019  0.350910 -0.000936  0.206875
                                -0.000552  0.058667 -0.000157 -0.005270  0.000014  0.005306 -0.000014  0.000000  0.000000  0.000000
                                 0.000000  0.000000  0.000000  0.000000  0.000000  0.000000

  12.1  1.00000    -0.142707    -0.000000 -0.000000 -0.000001 -0.000002 -0.000005 -0.000010 -0.000019 -0.000033 -0.000059 -0.000104
                                -0.000183 -0.000323 -0.000576 -0.001035 -0.001861 -0.003209 -0.004913 -0.004984  0.001683  0.022477
                                 0.041992  0.012433 -0.109421 -0.125515  0.098408  0.315790  0.032402 -0.410870 -0.347213  0.187857
                                 0.640409  0.364915  0.011220  0.009738  0.017011  0.000000  0.000000 -0.000000  0.000000  0.000000
                                -0.000000 -0.000000  0.000000  0.000000 -0.000000 -0.000000  0.000000  0.000000 -0.000000 -0.000000
                                 0.000000  0.000000 -0.000000 -0.000000  0.000000  0.000000 -0.000000 -0.000000  0.000000  0.000000
                                -0.000000  0.000000 -0.000000 -0.000000  0.000000 -0.000000  0.000000  0.000000 -0.000000 -0.000000
                                 0.000000 -0.000000 -0.000000 -0.000000  0.000000  0.000000 -0.000000  0.000000  0.000000  0.000000
                                 0.000000  0.000000  0.000000  0.000000  0.000000  0.000000

                                   1 2px     1 2px     1 2px     1 2px     1 2px     1 2px     1 2px     1 2px     1 2px     1 2px  
                                   1 2px     1 2px     1 2px     1 2px     1 2px     1 2px     1 2px     1 2px     1 2px     1 2px  
                                   1 2px     1 2px     1 2px     1 2px     1 2px     1 2px     1 2px     1 2px     1 2px     1 2px  
                                   1 2px     1 4f1+    1 4f3+    1 4f1+    1 4f3+    1 4f1+    1 4f3+    1 4f1+    1 4f3+    1 4f1+ 
                                   1 4f3+    1 4f1+    1 4f3+    1 4f1+    1 4f3+    1 4f1+    1 4f3+    1 4f1+    1 4f3+    1 4f1+ 
                                   1 4f3+    1 4f1+    1 4f3+    1 4f1+    1 4f3+    1 4f1+    1 4f3+    1 4f1+    1 4f3+    1 4f1+ 
                                   1 4f3+ 

   1.2  2.00000  -461.552459     0.000003  0.000008  0.000025  0.000065  0.000161  0.000385  0.000909  0.002156  0.005173  0.012548
                                 0.030281  0.070407  0.148010  0.258484  0.329274  0.249484  0.086512  0.008629  0.000454 -0.000327
                                 0.000241  0.001420 -0.000178 -0.000137  0.000012 -0.000003  0.000001 -0.000000  0.000000 -0.001500
                                 0.000211  0.000000 -0.000000  0.000000 -0.000000  0.000000 -0.000000  0.000000 -0.000000  0.000000
                                -0.000000  0.000000 -0.000000  0.000000 -0.000000  0.000000 -0.000000  0.000000 -0.000000  0.000000
                                -0.000000  0.000000 -0.000000  0.000000 -0.000000  0.000000 -0.000000 -0.000000  0.000000  0.000000
                                -0.000000

   2.2  2.00000  -107.229240    -0.000002 -0.000004 -0.000013 -0.000033 -0.000083 -0.000199 -0.000471 -0.001121 -0.002702 -0.006616
                                -0.016162 -0.038457 -0.083449 -0.152712 -0.198293 -0.088438  0.244331  0.510538  0.320842  0.064037
                                 0.005407  0.008934 -0.001316 -0.001050  0.000077 -0.000024  0.000009 -0.000004  0.000001 -0.008927
                                 0.001533 -0.000000  0.000000 -0.000000  0.000000 -0.000000  0.000000 -0.000000  0.000000 -0.000000
                                 0.000000 -0.000000  0.000000 -0.000000  0.000000 -0.000000  0.000000 -0.000000  0.000000 -0.000000
                                 0.000000 -0.000000  0.000000 -0.000000  0.000000 -0.000000  0.000000  0.000000 -0.000000 -0.000000
                                 0.000000

   3.2  2.00000   -22.163120     0.000001  0.000002  0.000006  0.000017  0.000041  0.000099  0.000234  0.000558  0.001346  0.003303
                                 0.008092  0.019365  0.042342  0.078461  0.102331  0.033744 -0.191732 -0.425498 -0.167841  0.421629
                                 0.586916  0.232435  0.011114 -0.007668  0.000965 -0.000220  0.000095 -0.000042  0.000012 -0.013664
                                 0.012238  0.000000 -0.000000  0.000000 -0.000000  0.000000 -0.000000  0.000000 -0.000000  0.000000
                                -0.000000  0.000000 -0.000000  0.000000 -0.000000  0.000000 -0.000000  0.000000 -0.000000  0.000000
                                -0.000000  0.000000 -0.000000  0.000000 -0.000000  0.000000 -0.000000 -0.000000  0.000000  0.000000
                                -0.000000

   4.2  2.00000    -3.789986     0.000000  0.000000  0.000000  0.000000  0.000000  0.000000  0.000000  0.000000  0.000000  0.000000
                                 0.000000  0.000000  0.000000  0.000000  0.000000  0.000000  0.000000  0.000000 -0.000000 -0.000000
                                -0.000000 -0.000000 -0.000000  0.000000 -0.000000  0.000000 -0.000000  0.000000 -0.000000  0.000000
                                -0.000000  0.000202  0.000000  0.001856  0.000000  0.010540  0.000000  0.039004  0.000000  0.106384
                                 0.000000  0.216453  0.000000  0.305803  0.000000  0.317654  0.000000  0.226158  0.000000  0.093733
                                 0.000000  0.017352  0.000000  0.004316  0.000000  0.003132  0.000000 -0.000070  0.000000  0.000669
                                 0.000000

   5.2  2.00000    -3.789986     0.000000  0.000000  0.000000  0.000000  0.000000  0.000000  0.000000  0.000000  0.000000  0.000000
                                 0.000000  0.000000  0.000000  0.000000  0.000000  0.000000 -0.000000 -0.000000 -0.000000  0.000000
                                 0.000000  0.000000  0.000000 -0.000000  0.000000 -0.000000  0.000000 -0.000000  0.000000 -0.000000
                                 0.000000 -0.000000  0.000202 -0.000000  0.001856 -0.000000  0.010540 -0.000000  0.039004 -0.000000
                                 0.106384 -0.000000  0.216453 -0.000000  0.305803 -0.000000  0.317654 -0.000000  0.226158 -0.000000
                                 0.093733 -0.000000  0.017352 -0.000000  0.004316 -0.000000  0.003132  0.000000 -0.000070 -0.000000
                                 0.000669

   6.2  2.00000    -2.743833    -0.000000 -0.000001 -0.000003 -0.000007 -0.000016 -0.000039 -0.000093 -0.000222 -0.000536 -0.001315
                                -0.003224 -0.007727 -0.016918 -0.031452 -0.041028 -0.012425  0.083989  0.189871  0.058666 -0.257526
                                -0.404562  0.060886  0.490907  0.487657  0.174841  0.014689  0.001112 -0.000147  0.000055 -0.092187
                                 0.025026  0.000000 -0.000000  0.000000 -0.000000  0.000000 -0.000000  0.000000 -0.000000  0.000000
                                -0.000000  0.000000 -0.000000  0.000000 -0.000000  0.000000 -0.000000  0.000000 -0.000000  0.000000
                                -0.000000  0.000000 -0.000000  0.000000 -0.000000  0.000000 -0.000000 -0.000000  0.000000  0.000000
                                -0.000000

                                   1 2py     1 2py     1 2py     1 2py     1 2py     1 2py     1 2py     1 2py     1 2py     1 2py  
                                   1 2py     1 2py     1 2py     1 2py     1 2py     1 2py     1 2py     1 2py     1 2py     1 2py  
                                   1 2py     1 2py     1 2py     1 2py     1 2py     1 2py     1 2py     1 2py     1 2py     1 2py  
                                   1 2py     1 4f1-    1 4f3-    1 4f1-    1 4f3-    1 4f1-    1 4f3-    1 4f1-    1 4f3-    1 4f1- 
                                   1 4f3-    1 4f1-    1 4f3-    1 4f1-    1 4f3-    1 4f1-    1 4f3-    1 4f1-    1 4f3-    1 4f1- 
                                   1 4f3-    1 4f1-    1 4f3-    1 4f1-    1 4f3-    1 4f1-    1 4f3-    1 4f1-    1 4f3-    1 4f1- 
                                   1 4f3- 

   1.3  2.00000  -461.552459     0.000003  0.000008  0.000025  0.000065  0.000161  0.000385  0.000909  0.002156  0.005173  0.012548
                                 0.030281  0.070407  0.148010  0.258484  0.329274  0.249484  0.086512  0.008629  0.000454 -0.000327
                                 0.000241  0.001420 -0.000178 -0.000137  0.000012 -0.000003  0.000001 -0.000000  0.000000 -0.001500
                                 0.000211 -0.000000 -0.000000 -0.000000 -0.000000 -0.000000 -0.000000 -0.000000 -0.000000 -0.000000
                                -0.000000 -0.000000 -0.000000 -0.000000 -0.000000 -0.000000 -0.000000 -0.000000 -0.000000 -0.000000
                                -0.000000 -0.000000 -0.000000 -0.000000 -0.000000 -0.000000 -0.000000  0.000000  0.000000 -0.000000
                                -0.000000

   2.3  2.00000  -107.229240    -0.000002 -0.000004 -0.000013 -0.000033 -0.000083 -0.000199 -0.000471 -0.001121 -0.002702 -0.006616
                                -0.016162 -0.038457 -0.083449 -0.152712 -0.198293 -0.088438  0.244331  0.510538  0.320842  0.064037
                                 0.005407  0.008934 -0.001316 -0.001050  0.000077 -0.000024  0.000009 -0.000004  0.000001 -0.008927
                                 0.001533  0.000000  0.000000  0.000000  0.000000  0.000000  0.000000  0.000000  0.000000  0.000000
                                 0.000000  0.000000  0.000000  0.000000  0.000000  0.000000  0.000000  0.000000  0.000000  0.000000
                                 0.000000  0.000000  0.000000  0.000000  0.000000  0.000000  0.000000 -0.000000 -0.000000  0.000000
                                 0.000000

   3.3  2.00000   -22.163120     0.000001  0.000002  0.000006  0.000017  0.000041  0.000099  0.000234  0.000558  0.001346  0.003303
                                 0.008092  0.019365  0.042342  0.078461  0.102331  0.033744 -0.191732 -0.425498 -0.167841  0.421629
                                 0.586916  0.232435  0.011114 -0.007668  0.000965 -0.000220  0.000095 -0.000042  0.000012 -0.013664
                                 0.012238 -0.000000 -0.000000 -0.000000 -0.000000 -0.000000 -0.000000 -0.000000 -0.000000 -0.000000
                                -0.000000 -0.000000 -0.000000 -0.000000 -0.000000 -0.000000 -0.000000 -0.000000 -0.000000 -0.000000
                                -0.000000 -0.000000 -0.000000 -0.000000 -0.000000 -0.000000 -0.000000  0.000000  0.000000 -0.000000
                                -0.000000

   4.3  2.00000    -3.789986     0.000000  0.000000  0.000000  0.000000  0.000000  0.000000  0.000000  0.000000  0.000000  0.000000
                                 0.000000  0.000000  0.000000  0.000000  0.000000  0.000000 -0.000000 -0.000000 -0.000000 -0.000000
                                -0.000000 -0.000000 -0.000000  0.000000 -0.000000  0.000000 -0.000000  0.000000 -0.000000  0.000000
                                -0.000000  0.000202 -0.000000  0.001856 -0.000000  0.010540 -0.000000  0.039004 -0.000000  0.106384
                                -0.000001  0.216453 -0.000001  0.305803 -0.000001  0.317654 -0.000002  0.226158 -0.000001  0.093733
                                -0.000000  0.017352 -0.000000  0.004316 -0.000000  0.003132 -0.000000 -0.000070  0.000000  0.000669
                                -0.000000

   5.3  2.00000    -3.789986     0.000000  0.000000  0.000000  0.000000  0.000000  0.000000  0.000000  0.000000  0.000000  0.000000
                                 0.000000  0.000000  0.000000  0.000000  0.000000  0.000000 -0.000000 -0.000000 -0.000000 -0.000000
                                -0.000000 -0.000000 -0.000000  0.000000 -0.000000  0.000000 -0.000000  0.000000 -0.000000  0.000000
                                -0.000000  0.000000  0.000202  0.000000  0.001856  0.000000  0.010540  0.000000  0.039004  0.000001
                                 0.106384  0.000001  0.216453  0.000001  0.305803  0.000002  0.317654  0.000001  0.226158  0.000000
                                 0.093733  0.000000  0.017352  0.000000  0.004316  0.000000  0.003132 -0.000000 -0.000070  0.000000
                                 0.000669

   6.3  2.00000    -2.743833    -0.000000 -0.000001 -0.000003 -0.000007 -0.000016 -0.000039 -0.000093 -0.000222 -0.000536 -0.001315
                                -0.003224 -0.007727 -0.016918 -0.031452 -0.041028 -0.012425  0.083989  0.189871  0.058666 -0.257526
                                -0.404562  0.060886  0.490907  0.487657  0.174841  0.014689  0.001112 -0.000147  0.000055 -0.092187
                                 0.025026 -0.000000 -0.000000 -0.000000 -0.000000 -0.000000 -0.000000 -0.000000 -0.000000 -0.000000
                                -0.000000 -0.000000 -0.000000 -0.000000 -0.000000 -0.000000 -0.000000 -0.000000 -0.000000 -0.000000
                                -0.000000 -0.000000 -0.000000 -0.000000 -0.000000 -0.000000 -0.000000  0.000000  0.000000 -0.000000
                                -0.000000

                                   1 3d2-    1 3d2-    1 3d2-    1 3d2-    1 3d2-    1 3d2-    1 3d2-    1 3d2-    1 3d2-    1 3d2- 
                                   1 3d2-    1 3d2-    1 3d2-    1 3d2-    1 3d2-    1 3d2-    1 3d2-    1 3d2-    1 3d2-    1 3d2- 
                                   1 3d2-    1 5g2-    1 5g4-    1 5g2-    1 5g4-    1 5g2-    1 5g4- 

   1.4  2.00000   -84.017407     0.000019  0.000114  0.000620  0.002824  0.011003  0.035196  0.093161  0.195384  0.308301  0.328463
                                 0.189621  0.049903  0.004290  0.000091  0.000142  0.000045 -0.000005  0.000001 -0.000000  0.000622
                                -0.000080  0.000000  0.000000  0.000000  0.000000  0.000000  0.000000

   2.4  2.00000   -13.450072    -0.000010 -0.000059 -0.000322 -0.001467 -0.005764 -0.018572 -0.050060 -0.105921 -0.164209 -0.143282
                                 0.070585  0.348071  0.429950  0.240005  0.053093  0.004326  0.000159  0.000007  0.000002  0.000758
                                -0.001994  0.000000  0.000000  0.000000  0.000000  0.000000  0.000000

   3.4  2.00000    -0.453291     0.000003  0.000017  0.000095  0.000432  0.001699  0.005480  0.014822  0.031398  0.048568  0.040129
                                -0.033593 -0.127858 -0.154600 -0.016576  0.231860  0.381952  0.350911  0.206875  0.058667 -0.005270
                                 0.005306  0.000000  0.000000  0.000000  0.000000  0.000000  0.000000

                                   1 2pz     1 2pz     1 2pz     1 2pz     1 2pz     1 2pz     1 2pz     1 2pz     1 2pz     1 2pz  
                                   1 2pz     1 2pz     1 2pz     1 2pz     1 2pz     1 2pz     1 2pz     1 2pz     1 2pz     1 2pz  
                                   1 2pz     1 2pz     1 2pz     1 2pz     1 2pz     1 2pz     1 2pz     1 2pz     1 2pz     1 2pz  
                                   1 2pz     1 4f0     1 4f2+    1 4f0     1 4f2+    1 4f0     1 4f2+    1 4f0     1 4f2+    1 4f0  
                                   1 4f2+    1 4f0     1 4f2+    1 4f0     1 4f2+    1 4f0     1 4f2+    1 4f0     1 4f2+    1 4f0  
                                   1 4f2+    1 4f0     1 4f2+    1 4f0     1 4f2+    1 4f0     1 4f2+    1 4f0     1 4f2+    1 4f0  
                                   1 4f2+ 

   1.5  2.00000  -461.552459     0.000003  0.000008  0.000025  0.000065  0.000161  0.000385  0.000909  0.002156  0.005173  0.012548
                                 0.030281  0.070407  0.148010  0.258484  0.329274  0.249484  0.086512  0.008629  0.000454 -0.000327
                                 0.000241  0.001420 -0.000178 -0.000137  0.000012 -0.000003  0.000001 -0.000000  0.000000 -0.001500
                                 0.000211  0.000000  0.000000  0.000000  0.000000  0.000000  0.000000  0.000000  0.000000  0.000000
                                 0.000000  0.000000  0.000000  0.000000  0.000000  0.000000  0.000000  0.000000  0.000000  0.000000
                                 0.000000  0.000000  0.000000  0.000000  0.000000  0.000000  0.000000 -0.000000 -0.000000  0.000000
                                 0.000000

   2.5  2.00000  -107.229240    -0.000002 -0.000004 -0.000013 -0.000033 -0.000083 -0.000199 -0.000471 -0.001121 -0.002702 -0.006616
                                -0.016162 -0.038457 -0.083449 -0.152712 -0.198293 -0.088438  0.244331  0.510538  0.320842  0.064037
                                 0.005407  0.008934 -0.001316 -0.001050  0.000077 -0.000024  0.000009 -0.000004  0.000001 -0.008927
                                 0.001533 -0.000000 -0.000000 -0.000000 -0.000000 -0.000000 -0.000000 -0.000000 -0.000000 -0.000000
                                -0.000000 -0.000000 -0.000000 -0.000000 -0.000000 -0.000000 -0.000000 -0.000000 -0.000000 -0.000000
                                -0.000000 -0.000000 -0.000000 -0.000000 -0.000000 -0.000000 -0.000000  0.000000  0.000000 -0.000000
                                -0.000000

   3.5  2.00000   -22.163120     0.000001  0.000002  0.000006  0.000017  0.000041  0.000099  0.000234  0.000558  0.001346  0.003303
                                 0.008092  0.019365  0.042342  0.078461  0.102331  0.033744 -0.191732 -0.425498 -0.167841  0.421629
                                 0.586916  0.232434  0.011114 -0.007668  0.000965 -0.000220  0.000095 -0.000042  0.000012 -0.013663
                                 0.012238  0.000000  0.000000  0.000000  0.000000  0.000000  0.000000  0.000000  0.000000  0.000000
                                 0.000000  0.000000  0.000000  0.000000  0.000000  0.000000  0.000000  0.000000  0.000000  0.000000
                                 0.000000  0.000000  0.000000  0.000000  0.000000  0.000000  0.000000 -0.000000 -0.000000  0.000000
                                 0.000000

   4.5  2.00000    -3.789986     0.000000  0.000000  0.000000  0.000000  0.000000  0.000000  0.000000  0.000000  0.000000  0.000000
                                 0.000000  0.000000  0.000000  0.000000  0.000000  0.000000 -0.000000 -0.000000 -0.000000  0.000000
                                 0.000000  0.000000  0.000000 -0.000000  0.000000 -0.000000  0.000000 -0.000000  0.000000 -0.000000
                                 0.000000  0.000202  0.000000  0.001856  0.000000  0.010540  0.000000  0.039004  0.000000  0.106384
                                 0.000000  0.216453  0.000000  0.305803  0.000000  0.317654  0.000000  0.226158  0.000000  0.093733
                                 0.000000  0.017352  0.000000  0.004316  0.000000  0.003132  0.000000 -0.000070  0.000000  0.000669
                                 0.000000

   5.5  2.00000    -3.789986     0.000000  0.000000  0.000000  0.000000  0.000000  0.000000  0.000000  0.000000  0.000000  0.000000
                                 0.000000  0.000000  0.000000  0.000000  0.000000  0.000000 -0.000000 -0.000000 -0.000000  0.000000
                                 0.000000  0.000000  0.000000 -0.000000  0.000000 -0.000000  0.000000 -0.000000  0.000000  0.000000
                                 0.000000 -0.000000  0.000202 -0.000000  0.001856 -0.000000  0.010540 -0.000000  0.039004 -0.000000
                                 0.106384 -0.000000  0.216453 -0.000000  0.305803 -0.000000  0.317654 -0.000000  0.226158 -0.000000
                                 0.093733 -0.000000  0.017352 -0.000000  0.004316 -0.000000  0.003132  0.000000 -0.000070 -0.000000
                                 0.000669

   6.5  2.00000    -2.743833    -0.000000 -0.000001 -0.000003 -0.000007 -0.000016 -0.000039 -0.000093 -0.000222 -0.000536 -0.001315
                                -0.003224 -0.007727 -0.016918 -0.031452 -0.041028 -0.012425  0.083989  0.189871  0.058666 -0.257526
                                -0.404562  0.060887  0.490907  0.487657  0.174841  0.014689  0.001112 -0.000147  0.000055 -0.092188
                                 0.025026  0.000000  0.000000  0.000000  0.000000  0.000000  0.000000  0.000000  0.000000  0.000000
                                 0.000000  0.000000  0.000000  0.000000  0.000000  0.000000  0.000000  0.000000  0.000000  0.000000
                                 0.000000  0.000000  0.000000  0.000000  0.000000  0.000000  0.000000 -0.000000 -0.000000  0.000000
                                 0.000000

                                   1 3d1+    1 3d1+    1 3d1+    1 3d1+    1 3d1+    1 3d1+    1 3d1+    1 3d1+    1 3d1+    1 3d1+ 
                                   1 3d1+    1 3d1+    1 3d1+    1 3d1+    1 3d1+    1 3d1+    1 3d1+    1 3d1+    1 3d1+    1 3d1+ 
                                   1 3d1+    1 5g1+    1 5g3+    1 5g1+    1 5g3+    1 5g1+    1 5g3+ 

   1.6  2.00000   -84.017407     0.000019  0.000114  0.000620  0.002824  0.011003  0.035196  0.093161  0.195384  0.308301  0.328463
                                 0.189621  0.049903  0.004290  0.000091  0.000142  0.000045 -0.000005  0.000001 -0.000000  0.000622
                                -0.000080  0.000000  0.000000  0.000000  0.000000  0.000000  0.000000

   2.6  2.00000   -13.450072    -0.000010 -0.000059 -0.000322 -0.001467 -0.005764 -0.018572 -0.050060 -0.105921 -0.164209 -0.143282
                                 0.070585  0.348071  0.429950  0.240005  0.053093  0.004326  0.000159  0.000007  0.000002  0.000758
                                -0.001994  0.000000  0.000000  0.000000  0.000000  0.000000  0.000000

   3.6  2.00000    -0.453291     0.000003  0.000017  0.000095  0.000432  0.001699  0.005480  0.014822  0.031398  0.048568  0.040129
                                -0.033593 -0.127858 -0.154600 -0.016576  0.231860  0.381952  0.350911  0.206875  0.058667 -0.005270
                                 0.005306  0.000000  0.000000  0.000000  0.000000  0.000000  0.000000

                                   1 3d1-    1 3d1-    1 3d1-    1 3d1-    1 3d1-    1 3d1-    1 3d1-    1 3d1-    1 3d1-    1 3d1- 
                                   1 3d1-    1 3d1-    1 3d1-    1 3d1-    1 3d1-    1 3d1-    1 3d1-    1 3d1-    1 3d1-    1 3d1- 
                                   1 3d1-    1 5g1-    1 5g3-    1 5g1-    1 5g3-    1 5g1-    1 5g3- 

   1.7  2.00000   -84.017407     0.000019  0.000114  0.000620  0.002824  0.011003  0.035196  0.093161  0.195384  0.308301  0.328463
                                 0.189621  0.049903  0.004290  0.000091  0.000142  0.000045 -0.000005  0.000001 -0.000000  0.000622
                                -0.000080  0.000000  0.000000  0.000000  0.000000  0.000000  0.000000

   2.7  2.00000   -13.450072    -0.000010 -0.000059 -0.000322 -0.001467 -0.005764 -0.018572 -0.050060 -0.105921 -0.164209 -0.143282
                                 0.070585  0.348071  0.429950  0.240005  0.053093  0.004326  0.000159  0.000007  0.000002  0.000758
                                -0.001994  0.000000  0.000000  0.000000  0.000000  0.000000  0.000000

   3.7  2.00000    -0.453291     0.000003  0.000017  0.000095  0.000432  0.001699  0.005480  0.014822  0.031398  0.048568  0.040129
                                -0.033593 -0.127858 -0.154600 -0.016576  0.231860  0.381952  0.350911  0.206875  0.058667 -0.005270
                                 0.005306  0.000000  0.000000  0.000000  0.000000  0.000000  0.000000

                                   1 4f2-    1 4f2-    1 4f2-    1 4f2-    1 4f2-    1 4f2-    1 4f2-    1 4f2-    1 4f2-    1 4f2- 
                                   1 4f2-    1 4f2-    1 4f2-    1 4f2-    1 4f2- 

   1.8  2.00000    -3.789986     0.000202  0.001856  0.010540  0.039004  0.106384  0.216453  0.305803  0.317654  0.226158  0.093733
                                 0.017352  0.004316  0.003132 -0.000070  0.000669
 

 EXTRA SYMMETRY OF MOS IN SYMMETRY 1:   1 1 1 1 1 1 1 1 1 1   1 1 1 1 1 1 1 1 1 3   4 2 1 1 1 1 1 2 3 4   1 4 2 3 1 1 1 1 1 1
                                        1 1 1 1 1 1 1 1 1 1   1 1 1 1 1 1 1 1 1 1   1 1 1 1 1 1 1 1 1 1   1 1 1 1 1 1 1 1 1 1
                                        1 1 1 1 1 1
 EXTRA SYMMETRY OF MOS IN SYMMETRY 2:   1 1 1 2 3 1 1 1 1 3   2 1 3 2 1 3 2 1 3 2   1 3 2 3 2 1 3 2 1 3   2 1 3 2 1 3 2 1 3 2
                                        1 3 2 1 2 3 1 2 3 1   1 1 1 1 1 1 1 1 1 1   1
 EXTRA SYMMETRY OF MOS IN SYMMETRY 3:   1 1 1 2 3 1 1 1 1 3   2 1 3 2 1 3 2 1 3 2   1 3 2 3 2 1 3 2 1 3   2 1 3 2 1 3 2 1 3 2
                                        1 3 2 1 2 3 1 2 3 1   1 1 1 1 1 1 1 1 1 1   1
 EXTRA SYMMETRY OF MOS IN SYMMETRY 4:   1 1 1 1 1 3 2 1 1 3   2 3 2 1 1 1 1 1 1 1   1 1 1 1 1 1 1
 EXTRA SYMMETRY OF MOS IN SYMMETRY 5:   1 1 1 2 3 1 1 1 1 2   3 1 2 3 1 2 3 1 2 3   1 2 3 2 3 1 2 3 1 2   3 1 2 3 1 2 3 1 2 3
                                        1 2 3 1 3 2 1 3 2 1   1 1 1 1 1 1 1 1 1 1   1
 EXTRA SYMMETRY OF MOS IN SYMMETRY 6:   1 1 1 1 1 3 2 1 1 3   2 3 2 1 1 1 1 1 1 1   1 1 1 1 1 1 1
 EXTRA SYMMETRY OF MOS IN SYMMETRY 7:   1 1 1 1 1 3 2 1 1 3   2 3 2 1 1 1 1 1 1 1   1 1 1 1 1 1 1

 Natural orbital dump at molpro section  5202.2    (Orbital set 2)


 CI vector
 =========

 /             1.0000000


 **********************************************************************************************************************************
 DATASETS  * FILE   NREC   LENGTH (MB)   RECORD NAMES
              1      23      191.79       500      610      700      900      950      970     1001      129      960     1700   
                                          VAR    BASINP    GEOM    SYMINP    ZMAT    AOBASIS   BASIS     P2S    ABASIS    OPER   
                                         1101     1401     1411     1412     1650     1100     1400     1410     1200     1210   
                                          SR      EKINR    POTR     PVPR    MOLCAS      S      EKIN      POT      H0       H01  
                                         1080     1600     1380   
                                         AOSYM     SMH     JKOP   

              2       7        8.50       200      700     1000      520     4202     1001     5202   
                                        OPTIONS   GEOM     BASIS   MCVARS     RHF     BASIS    MCSCF   

 PROGRAMS   *        TOTAL     MULTI       INT       POP       RHF       INT
 CPU TIMES  *       124.06     11.81    103.44      0.00      0.09      8.33
 REAL TIME  *       145.01 SEC
 DISK USED  *         3.43 GB      
 SF USED    *       654.64 MB      
 GA USED    *         0.00 MB       (max)       0.00 MB       (current)
 **********************************************************************************************************************************


 PROGRAM * RHF-SCF (OPEN SHELL)       Authors: W. Meyer, H.-J. Werner


 NUMBER OF ELECTRONS:      40+   39-    SPACE SYMMETRY=1    SPIN SYMMETRY: Doublet 
 CONVERGENCE THRESHOLDS:    1.00E-05 (Density)    1.58E-07 (Energy)
 MAX. NUMBER OF ITERATIONS:       60
 INTERPOLATION TYPE:            DIIS
 INTERPOLATION STEPS:              2 (START)      1 (STEP)
 LEVEL SHIFTS:                 -0.60 (CLOSED) -0.30 (OPEN) 


 Singly occupied orbitals:     12.1
 Molecular orbitals read from record     5202.2  Type=MCSCF/NATURAL (state 1.1)

 Molecular orbital dump at record        2103.2

 ITERATION    DDIFF          GRAD             ENERGY        2-EL.EN.            DIPOLE MOMENTS         DIIS   ORB.
    1      0.000D+00      0.000D+00    -19012.51199608  14123.997016    0.00000    0.00000    0.00000    0    start
    2      0.000D+00      0.969D-07    -19012.51199608  14123.997062    0.00000    0.00000    0.00000    0    orth

 Final alpha occupancy:  12   6   6   3   6   3   3   1
 Final beta  occupancy:  11   6   6   3   6   3   3   1

 !RHF STATE 1.1 Energy               -19012.5119960834    
 Nuclear energy                         0.00000000
 One-electron energy               -26074.51052726
 Two-electron energy                 7061.99853118
 Virial quotient                       -0.66044366
 !RHF STATE 1.1 Dipole moment           0.00000000     0.00000000     0.00000000
 Dipole moment /Debye                   0.00000000     0.00000000     0.00000000

 Orbital energies:

         1.1          2.1          3.1          4.1          5.1          6.1          7.1          8.1          9.1         10.1
  -2984.010836  -532.001552  -128.075127   -84.017407   -84.017407   -29.141214   -13.450072   -13.450072    -4.683184    -0.453291

        11.1         12.1         13.1         14.1
     -0.453291    -0.290250     0.039305     0.218265

         1.2          2.2          3.2          4.2          5.2          6.2          7.2          8.2
   -461.552459  -107.229240   -22.163120    -3.789986    -3.789986    -2.743833     0.023475     0.074519

         1.3          2.3          3.3          4.3          5.3          6.3          7.3          8.3
   -461.552459  -107.229240   -22.163120    -3.789986    -3.789986    -2.743833     0.023475     0.074519

         1.4          2.4          3.4          4.4          5.4
    -84.017407   -13.450072    -0.453291     0.272252     0.923716

         1.5          2.5          3.5          4.5          5.5          6.5          7.5          8.5
   -461.552459  -107.229240   -22.163120    -3.789986    -3.789986    -2.743833     0.023475     0.074519

         1.6          2.6          3.6          4.6          5.6
    -84.017407   -13.450072    -0.453291     0.272252     0.923716

         1.7          2.7          3.7          4.7          5.7
    -84.017407   -13.450072    -0.453291     0.272252     0.923716

         1.8          2.8          3.8
     -3.789986     0.655512     1.538814

 HOMO     12.1    -0.290250 =      -7.8981eV
 LUMO      7.5     0.023475 =       0.6388eV
 LUMO-HOMO         0.313725 =       8.5369eV


 **********************************************************************************************************************************
 DATASETS  * FILE   NREC   LENGTH (MB)   RECORD NAMES
              1      23      191.79       500      610      700      900      950      970     1001      129      960     1700   
                                          VAR    BASINP    GEOM    SYMINP    ZMAT    AOBASIS   BASIS     P2S    ABASIS    OPER   
                                         1101     1401     1411     1412     1650     1100     1400     1410     1200     1210   
                                          SR      EKINR    POTR     PVPR    MOLCAS      S      EKIN      POT      H0       H01  
                                         1080     1600     1380   
                                         AOSYM     SMH     JKOP   

              2       8       11.68       200      700     1000      520     4202     1001     5202     2103   
                                        OPTIONS   GEOM     BASIS   MCVARS     RHF     BASIS    MCSCF     RHF  

 PROGRAMS   *        TOTAL       RHF     MULTI       INT       POP       RHF       INT
 CPU TIMES  *       124.34      0.27     11.81    103.44      0.00      0.09      8.33
 REAL TIME  *       145.53 SEC
 DISK USED  *         3.43 GB      
 SF USED    *       654.64 MB      
 GA USED    *         0.00 MB       (max)       0.00 MB       (current)
 **********************************************************************************************************************************
 SETTING SCF(2)         =    -19012.51199608  AU                              
                                                                                                                                                                                                                                                                

 ERROR IN MAKETAB: STRING COLUMN "CCSD" SPECIFIED AFTER DATA COLUMN(S)

 RHF/USERDEF energy= -19012.511996083376

        RHF-SCF         MULTI           RHF-SCF 
 -19012.51199608 -19012.51199608 -19012.46257148
 **********************************************************************************************************************************
 Molpro calculation terminated
 Variable memory released
