
 Primary working directories    : /global/cscratch1/sd/haihan
 Secondary working directories  : /global/cscratch1/sd/haihan
 Wavefunction directory         : /global/homes/h/haihan/wfu/
 Main file repository           : /global/cscratch1/sd/haihan/

 SHA1      : 19cd028119e0e09f93f0674bd8af7968d9b3eff6
 NAME      : 2015.1.36
 ARCHNAME  : linux/x86_64
 FC        : /opt/cray/pe/craype/2.5.14/bin/ftn
 BLASLIB   : -L/opt/intel/compilers_and_libraries_2018.1.163/linux/mkl/lib/intel64 -Wl,-_start-group -lmkl_intel_ilp64 -lmkl_intel_thread -lmkl_core -Wl,-_end-group -liomp5
 id        : lbl

 Nodes     nprocs
 nid13031    15
 Number of processes for MPI-2 version of Molpro:   nprocs(total)=   16   nprocs(compute)=   15   nprocs(helper)=    1

 Using customized tuning parameters: mindgm=7; mindgv=16; mindgc=1; mindgr=1; noblas=0; minvec=7
 default implementation of scratch files=sf  

 ***,Pd
 memory,512,m
 
 gthresh,twoint=1.e-12
 gprint,basis,orbitals
 
 angstrom
 geometry={
 1                                                                               ! Number of atoms
 Pd 0.0 0.0 0.0
 }
 
                                                                                 !!! Initial guesses from STU
 s_par=[2.295600]
 p_par=[2.390000]
 d_par=[2.469900]
 f_par=[3.482100]
 
 proc opt_basis
 
 basis={
 Including file /global/u2/h/haihan/Research/HZECP/Pd_basis/core_dz/ecp.molpro
 Including file /global/u2/h/haihan/Research/HZECP/Pd_basis/core_dz/basis.molpro
 
 s,Pd,s_par(1)
 p,Pd,p_par(1)
 d,Pd,d_par(1)
 f,Pd,f_par(1)
 
 }
 
 {rhf
  start,atden
  print,orbitals=2
  wf,18,1,0
  occ,3,1,1,1,1,1,1,0
  closed,3,1,1,1,1,1,1,0
  sym,1,1,3,2
  natorb,ci,print
  orbital,4202.2
 }
 {rhf,nitord=1,maxit=0
  start,4202.2
  wf,18,1,0
  occ,3,1,1,1,1,1,1,0
  closed,3,1,1,1,1,1,1,0
  sym,1,1,3,2
 }
 
 data,rename,4202.2,4302.2
 
 {ci;maxit,100;core}
 eval=energy
 
 endproc
 
 {minimize,eval, s_par(1),p_par(1),d_par(1),f_par(1)
 method,bfgs,proc=opt_basis,thresh=5e-5,vstep=1e-3
 maxit,100}
 

 Variables initialized (889), CPU time= 0.00 sec
 Commands  initialized (702), CPU time= 0.01 sec, 572 directives.
 Default parameters read. Elapsed time= 0.16 sec

 Checking input...
 Passed
1


                                         ***  PROGRAM SYSTEM MOLPRO  ***
                                       Copyright, TTI GmbH Stuttgart, 2015
                                    Version 2015.1 linked Dec 29 2018 15:55:43


 **********************************************************************************************************************************
 LABEL *   Pd                                                                            
  64 bit mpp version                                                                     DATE: 21-Feb-22          TIME: 21:29:37  
 **********************************************************************************************************************************

 SHA1:             19cd028119e0e09f93f0674bd8af7968d9b3eff6
 **********************************************************************************************************************************

 THRESHOLDS:

 ZERO    =  1.00D-12  ONEINT  =  1.00D-12  TWOINT  =  1.00D-12  PREFAC  =  1.00D-14  LOCALI  =  1.00D-09  EORDER  =  1.00D-04
 ENERGY  =  0.00D+00  ETEST   =  0.00D+00  EDENS   =  0.00D+00  THRDEDEF=  1.00D-06  GRADIENT=  1.00D-02  STEP    =  1.00D-03
 ORBITAL =  1.00D-05  CIVEC   =  1.00D-05  COEFF   =  1.00D-04  PRINTCI =  5.00D-02  PUNCHCI =  9.90D+01  OPTGRAD =  3.00D-04
 OPTENERG=  1.00D-06  OPTSTEP =  3.00D-04  THRGRAD =  1.00D-10  COMPRESS=  1.00D-11  VARMIN  =  1.00D-07  VARMAX  =  1.00D-03
 THRDOUB =  0.00D+00  THRDIV  =  1.00D-05  THRRED  =  1.00D-07  THRPSP  =  1.00D+00  THRDC   =  1.00D-10  THRCS   =  1.00D-10
 THRNRM  =  1.00D-08  THREQ   =  0.00D+00  THRDE   =  1.00D+00  THRREF  =  1.00D-05  SPARFAC =  1.00D+00  THRDLP  =  1.00D-07
 THRDIA  =  1.00D-10  THRDLS  =  1.00D-07  THRGPS  =  0.00D+00  THRKEX  =  0.00D+00  THRDIS  =  2.00D-01  THRVAR  =  1.00D-10
 THRLOC  =  1.00D-06  THRGAP  =  1.00D-06  THRLOCT = -1.00D+00  THRGAPT = -1.00D+00  THRORB  =  1.00D-06  THRMLTP =  0.00D+00
 THRCPQCI=  1.00D-10  KEXTA   =  0.00D+00  THRCOARS=  0.00D+00  SYMTOL  =  1.00D-06  GRADTOL =  1.00D-06  THROVL  =  1.00D-08
 THRORTH =  1.00D-08  GRID    =  1.00D-06  GRIDMAX =  1.00D-03  DTMAX   =  0.00D+00  THROCCDE=  1.00D-01  THROCCDE=  1.00D-01



 ZUNIT=ANG
 

Geometry recognized as XYZ

 SETTING S_PAR          =         2.29560000                                  
 SETTING P_PAR          =         2.39000000                                  
 SETTING D_PAR          =         2.46990000                                  
 SETTING F_PAR          =         3.48210000                                  

 Variable memory set to  512000000 words,  buffer space   230000 words



 PROGRAM * MINIMIZE (General minimization)     Authors: H.-J. Werner, P.J. Knowles, K.A. Peterson

 Minimize EVAL with respect to:        S_PAR(1)  P_PAR(1)  D_PAR(1)  F_PAR(1)  
 Method BFGS will be used
 Variables are optimized in the space of (x/x0)


 Minimization using procedure=OPT_BASIS

 *** Long output written to logfile /global/u2/h/haihan/Research/HZECP/Pd_basis/core_dz/atom.log ***


 BFGS update of inverse hessian 

 PROGRAM * MINIMIZE (General minimization)     Authors: H.-J. Werner, P.J. Knowles, K.A. Peterson


 Results for BFGS iteration    1       Current function value  =       -126.971625309
                                     Previous function value =          0.000000000
 Current variables and gradients:
 BFGS       S_PAR(1)                  2.295600        0.0004109
 BFGS       P_PAR(1)                  2.390000       -0.0016269
 BFGS       D_PAR(1)                  2.469900        0.0209047
 BFGS       F_PAR(1)                  3.482100       -0.0117928

 BFGS update of inverse hessian 

 Results for BFGS iteration    2       Current function value  =       -126.973017356
                                     Previous function value =       -126.971625309
 Current variables and gradients:
 BFGS       S_PAR(1)                  2.286599        0.0003608
 BFGS       P_PAR(1)                  2.427101       -0.0012347
 BFGS       D_PAR(1)                  2.062631       -0.0288290
 BFGS       F_PAR(1)                  3.873925       -0.0060956

 BFGS update of inverse hessian 

 Results for BFGS iteration    3       Current function value  =       -126.974094391
                                     Previous function value =       -126.973017356
 Current variables and gradients:
 BFGS       S_PAR(1)                  2.280108        0.0003800
 BFGS       P_PAR(1)                  2.451408       -0.0011950
 BFGS       D_PAR(1)                  2.279302        0.0061573
 BFGS       F_PAR(1)                  4.077989       -0.0037291

 BFGS update of inverse hessian 

 Results for BFGS iteration    4       Current function value  =       -126.974306089
                                     Previous function value =       -126.974094391
 Current variables and gradients:
 BFGS       S_PAR(1)                  2.269875        0.0003659
 BFGS       P_PAR(1)                  2.486008       -0.0009985
 BFGS       D_PAR(1)                  2.248284        0.0026196
 BFGS       F_PAR(1)                  4.269023       -0.0013484

 BFGS update of inverse hessian 

 Results for BFGS iteration    5       Current function value  =       -126.974357941
                                     Previous function value =       -126.974306089
 Current variables and gradients:
 BFGS       S_PAR(1)                  2.254429        0.0003461
 BFGS       P_PAR(1)                  2.531195       -0.0007634
 BFGS       D_PAR(1)                  2.224848       -0.0002797
 BFGS       F_PAR(1)                  4.393873        0.0001349

 BFGS update of inverse hessian 

 Results for BFGS iteration    6       Current function value  =       -126.974366117
                                     Previous function value =       -126.974357941
 Current variables and gradients:
 BFGS       S_PAR(1)                  2.243829        0.0003335
 BFGS       P_PAR(1)                  2.556830       -0.0006405
 BFGS       D_PAR(1)                  2.223924       -0.0004076
 BFGS       F_PAR(1)                  4.406945        0.0002849

 BFGS update of inverse hessian 

 Results for BFGS iteration    7       Current function value  =       -126.974391626
                                     Previous function value =       -126.974366117
 Current variables and gradients:
 BFGS       S_PAR(1)                  2.187316        0.0002613
 BFGS       P_PAR(1)                  2.681074       -0.0001193
 BFGS       D_PAR(1)                  2.225509       -0.0002296
 BFGS       F_PAR(1)                  4.419457        0.0004244

 BFGS update of inverse hessian 

 Results for BFGS iteration    8       Current function value  =       -126.974397101
                                     Previous function value =       -126.974391626
 Current variables and gradients:
 BFGS       S_PAR(1)                  2.158351        0.0002205
 BFGS       P_PAR(1)                  2.731597        0.0000611
 BFGS       D_PAR(1)                  2.227071       -0.0000274
 BFGS       F_PAR(1)                  4.399603        0.0001951

 BFGS update of inverse hessian 

 Results for BFGS iteration    9       Current function value  =       -126.974398467
                                     Previous function value =       -126.974397101
 Current variables and gradients:
 BFGS       S_PAR(1)                  2.141831        0.0001960
 BFGS       P_PAR(1)                  2.747921        0.0001160
 BFGS       D_PAR(1)                  2.227461        0.0000278
 BFGS       F_PAR(1)                  4.383491        0.0000088

 BFGS update of inverse hessian 

 Results for BFGS iteration   10       Current function value  =       -126.974399306
                                     Previous function value =       -126.974398467
 Current variables and gradients:
 BFGS       S_PAR(1)                  2.128671        0.0001759
 BFGS       P_PAR(1)                  2.750461        0.0001244
 BFGS       D_PAR(1)                  2.227466        0.0000315
 BFGS       F_PAR(1)                  4.374967       -0.0000899

 BFGS update of inverse hessian 

 Results for BFGS iteration   11       Current function value  =       -126.974401264
                                     Previous function value =       -126.974399306
 Current variables and gradients:
 BFGS       S_PAR(1)                  2.092275        0.0001171
 BFGS       P_PAR(1)                  2.746345        0.0001110
 BFGS       D_PAR(1)                  2.227355        0.0000210
 BFGS       F_PAR(1)                  4.362598       -0.0002334

 BFGS update of inverse hessian 

 Results for BFGS iteration   12       Current function value  =       -126.974403128
                                     Previous function value =       -126.974401264
 Current variables and gradients:
 BFGS       S_PAR(1)                  2.050340        0.0000437
 BFGS       P_PAR(1)                  2.732775        0.0000657
 BFGS       D_PAR(1)                  2.227236        0.0000046
 BFGS       F_PAR(1)                  4.360919       -0.0002526

 BFGS update of inverse hessian 

 Results for BFGS iteration   13       Current function value  =       -126.974404184
                                     Previous function value =       -126.974403128
 Current variables and gradients:
 BFGS       S_PAR(1)                  2.024834       -0.0000041
 BFGS       P_PAR(1)                  2.717391        0.0000128
 BFGS       D_PAR(1)                  2.227205       -0.0000049
 BFGS       F_PAR(1)                  4.371497       -0.0001293

 BFGS update of inverse hessian 

 Results for BFGS iteration   14       Current function value  =       -126.974404392
                                     Previous function value =       -126.974404184
 Current variables and gradients:
 BFGS       S_PAR(1)                  2.024525       -0.0000047
 BFGS       P_PAR(1)                  2.712809       -0.0000034
 BFGS       D_PAR(1)                  2.227251       -0.0000033
 BFGS       F_PAR(1)                  4.380579       -0.0000239

 PROGRAM * MINIMIZE (General minimization)     Authors: H.-J. Werner, P.J. Knowles, K.A. Peterson


 Minimization of EVAL using the BFGS method has converged after   14 iterations


 Running procedure=OPT_BASIS
 SETTING BASIS          =    USERDEF


 Current variables in basis input:

 Set= 1  S_PAR(1)            =       2.02452508
 Set= 1  P_PAR(1)            =       2.71280895
 Set= 1  D_PAR(1)            =       2.22725060
 Set= 1  F_PAR(1)            =       4.38057949

 Recomputing integrals since basis changed


 Using spherical harmonics



 PROGRAM * SEWARD (Integral evaluation for generally contracted gaussian basis sets)     Author: Roland Lindh, 1990

 Geometry written to block  1 of record 700

 Orientation using atomic masses  
 Molecule type: Atom
 Symmetry elements: X,Y,Z
 Rotational constants:       0.0000000      0.0000000      0.0000000 GHz  (calculated with average atomic masses)

 Point group  D2h 



 ATOMIC COORDINATES

 NR  ATOM    CHARGE       X              Y              Z

   1  PD     18.00    0.000000000    0.000000000    0.000000000


          PD  CORE POTENTIAL

          f POTENTIAL

 POWERS             1              3              2              2
 EXPONENTIALS   15.99766       15.96401       16.12888       9.592539    
 COEFFICIENTS   18.00000       287.9579      -176.3826      -44.25362    

          s - f POTENTIAL

 POWERS             2              2              2
 EXPONENTIALS   12.45165       6.301508       9.656958    
 COEFFICIENTS   222.0049       55.83859       4.624354    

          p - f POTENTIAL

 POWERS             2              2              2
 EXPONENTIALS   12.37601       5.706187       9.850179    
 COEFFICIENTS   166.6450       42.68117       28.72135    

          d - f POTENTIAL

 POWERS             2              2              2
 EXPONENTIALS   7.923467       3.358692       9.195344    
 COEFFICIENTS   53.57659       4.674921       57.97681    


 BASIS DATA

   Nr Sym  Nuc  Type         Exponents   Contraction coefficients

    1.1 Ag    1  1s         226.982057    -0.000123    0.000117   -0.000063    0.000000
    2.1 Ag                  107.971612     0.000586   -0.000580    0.000309    0.000000
    3.1 Ag                   51.360311    -0.001037    0.001695   -0.000590    0.000000
    4.1 Ag                   24.431251    -0.013924   -0.002148   -0.007717    0.000000
                             11.621542     0.200098   -0.019262    0.119010    0.000000
                              5.528176    -0.676779    0.084919   -0.425622    0.000000
                              2.629662     0.045446    0.022876   -0.051799    0.000000
                              1.250887     0.857855   -0.244520    1.109581    0.000000
                              0.595026     0.366386    0.091710    0.219221    0.000000
                              0.283044     0.052708   -0.417493   -0.869582    0.000000
                              0.134639    -0.007355    0.856225   -0.507150    0.000000
                              0.064046     0.004478   -1.233857   -0.060316    0.000000
                              0.030465    -0.001187    1.683095    0.000652    1.000000
    5.1 Ag    1  1s           2.024525     1.000000
    6.1 Ag    1  3d0         24.858557     0.002857
                             13.807567     0.008324
                              7.669347    -0.032165
                              4.259902     0.041986
                              2.366142     0.187147
                              1.314262     0.274091
                              0.730001     0.274162
                              0.405475     0.223394
                              0.225219     0.156376
                              0.125097     0.088573
                              0.069485     0.033732
                              0.038595     0.005858
                              0.021437     0.000243
    7.1 Ag    1  3d2+        24.858557     0.002857
                             13.807567     0.008324
                              7.669347    -0.032165
                              4.259902     0.041986
                              2.366142     0.187147
                              1.314262     0.274091
                              0.730001     0.274162
                              0.405475     0.223394
                              0.225219     0.156376
                              0.125097     0.088573
                              0.069485     0.033732
                              0.038595     0.005858
                              0.021437     0.000243
    8.1 Ag    1  3d0         24.858557    -0.004007
                             13.807567    -0.009816
                              7.669347     0.040598
                              4.259902    -0.059887
                              2.366142    -0.292809
                              1.314262    -0.381848
                              0.730001    -0.112906
                              0.405475     0.234947
                              0.225219     0.363251
                              0.125097     0.275550
                              0.069485     0.128792
                              0.038595     0.028454
                              0.021437     0.001243
    9.1 Ag    1  3d2+        24.858557    -0.004007
                             13.807567    -0.009816
                              7.669347     0.040598
                              4.259902    -0.059887
                              2.366142    -0.292809
                              1.314262    -0.381848
                              0.730001    -0.112906
                              0.405475     0.234947
                              0.225219     0.363251
                              0.125097     0.275550
                              0.069485     0.128792
                              0.038595     0.028454
                              0.021437     0.001243
   10.1 Ag    1  3d0         24.858557     0.000000
                             13.807567     0.000000
                              7.669347     0.000000
                              4.259902     0.000000
                              2.366142     0.000000
                              1.314262     0.000000
                              0.730001     0.000000
                              0.405475     0.000000
                              0.225219     0.000000
                              0.125097     0.000000
                              0.069485     0.000000
                              0.038595     0.000000
                              0.021437     1.000000
   11.1 Ag    1  3d2+        24.858557     0.000000
                             13.807567     0.000000
                              7.669347     0.000000
                              4.259902     0.000000
                              2.366142     0.000000
                              1.314262     0.000000
                              0.730001     0.000000
                              0.405475     0.000000
                              0.225219     0.000000
                              0.125097     0.000000
                              0.069485     0.000000
                              0.038595     0.000000
                              0.021437     1.000000
   12.1 Ag    1  3d0          2.227251     1.000000
   13.1 Ag    1  3d2+         2.227251     1.000000
    1.2 B3u   1  2px         49.528556    -0.000125    0.000176   -0.000014    0.000000
    2.2 B3u                  26.116743    -0.001273    0.000339    0.002075    0.000000
    3.2 B3u                  13.771535     0.038171   -0.025564   -0.041847    0.000000
    4.2 B3u                   7.261824    -0.174047    0.127568    0.173144    0.000000
                              3.829209    -0.041692    0.040787    0.307947    0.000000
                              2.019168     0.413749   -0.439452   -1.596670    0.000000
                              1.064721     0.450821   -0.442802    0.190811    0.000000
                              0.561434     0.251837    0.193319    1.623239    0.000000
                              0.296048     0.051165    0.566241   -0.253493    0.000000
                              0.156108     0.011161    0.374898   -0.637836    0.000000
                              0.082317    -0.002018    0.092881   -0.260561    0.000000
                              0.043406     0.001463    0.007271   -0.000879    0.000000
                              0.022888    -0.000389    0.000254   -0.005207    1.000000
    5.2 B3u   1  2px          2.712809     1.000000
    6.2 B3u   1  4f1+         1.592833     1.000000
    7.2 B3u   1  4f3+         1.592833     1.000000
    8.2 B3u   1  4f1+         4.380579     1.000000
    9.2 B3u   1  4f3+         4.380579     1.000000
    1.3 B2u   1  2py         49.528556    -0.000125    0.000176   -0.000014    0.000000
    2.3 B2u                  26.116743    -0.001273    0.000339    0.002075    0.000000
    3.3 B2u                  13.771535     0.038171   -0.025564   -0.041847    0.000000
    4.3 B2u                   7.261824    -0.174047    0.127568    0.173144    0.000000
                              3.829209    -0.041692    0.040787    0.307947    0.000000
                              2.019168     0.413749   -0.439452   -1.596670    0.000000
                              1.064721     0.450821   -0.442802    0.190811    0.000000
                              0.561434     0.251837    0.193319    1.623239    0.000000
                              0.296048     0.051165    0.566241   -0.253493    0.000000
                              0.156108     0.011161    0.374898   -0.637836    0.000000
                              0.082317    -0.002018    0.092881   -0.260561    0.000000
                              0.043406     0.001463    0.007271   -0.000879    0.000000
                              0.022888    -0.000389    0.000254   -0.005207    1.000000
    5.3 B2u   1  2py          2.712809     1.000000
    6.3 B2u   1  4f1-         1.592833     1.000000
    7.3 B2u   1  4f3-         1.592833     1.000000
    8.3 B2u   1  4f1-         4.380579     1.000000
    9.3 B2u   1  4f3-         4.380579     1.000000
    1.4 B1g   1  3d2-        24.858557     0.002857   -0.004007    0.000000
    2.4 B1g                  13.807567     0.008324   -0.009816    0.000000
    3.4 B1g                   7.669347    -0.032165    0.040598    0.000000
                              4.259902     0.041986   -0.059887    0.000000
                              2.366142     0.187147   -0.292809    0.000000
                              1.314262     0.274091   -0.381848    0.000000
                              0.730001     0.274162   -0.112906    0.000000
                              0.405475     0.223394    0.234947    0.000000
                              0.225219     0.156376    0.363251    0.000000
                              0.125097     0.088573    0.275550    0.000000
                              0.069485     0.033732    0.128792    0.000000
                              0.038595     0.005858    0.028454    0.000000
                              0.021437     0.000243    0.001243    1.000000
    4.4 B1g   1  3d2-         2.227251     1.000000
    1.5 B1u   1  2pz         49.528556    -0.000125    0.000176   -0.000014    0.000000
    2.5 B1u                  26.116743    -0.001273    0.000339    0.002075    0.000000
    3.5 B1u                  13.771535     0.038171   -0.025564   -0.041847    0.000000
    4.5 B1u                   7.261824    -0.174047    0.127568    0.173144    0.000000
                              3.829209    -0.041692    0.040787    0.307947    0.000000
                              2.019168     0.413749   -0.439452   -1.596670    0.000000
                              1.064721     0.450821   -0.442802    0.190811    0.000000
                              0.561434     0.251837    0.193319    1.623239    0.000000
                              0.296048     0.051165    0.566241   -0.253493    0.000000
                              0.156108     0.011161    0.374898   -0.637836    0.000000
                              0.082317    -0.002018    0.092881   -0.260561    0.000000
                              0.043406     0.001463    0.007271   -0.000879    0.000000
                              0.022888    -0.000389    0.000254   -0.005207    1.000000
    5.5 B1u   1  2pz          2.712809     1.000000
    6.5 B1u   1  4f0          1.592833     1.000000
    7.5 B1u   1  4f2+         1.592833     1.000000
    8.5 B1u   1  4f0          4.380579     1.000000
    9.5 B1u   1  4f2+         4.380579     1.000000
    1.6 B2g   1  3d1+        24.858557     0.002857   -0.004007    0.000000
    2.6 B2g                  13.807567     0.008324   -0.009816    0.000000
    3.6 B2g                   7.669347    -0.032165    0.040598    0.000000
                              4.259902     0.041986   -0.059887    0.000000
                              2.366142     0.187147   -0.292809    0.000000
                              1.314262     0.274091   -0.381848    0.000000
                              0.730001     0.274162   -0.112906    0.000000
                              0.405475     0.223394    0.234947    0.000000
                              0.225219     0.156376    0.363251    0.000000
                              0.125097     0.088573    0.275550    0.000000
                              0.069485     0.033732    0.128792    0.000000
                              0.038595     0.005858    0.028454    0.000000
                              0.021437     0.000243    0.001243    1.000000
    4.6 B2g   1  3d1+         2.227251     1.000000
    1.7 B3g   1  3d1-        24.858557     0.002857   -0.004007    0.000000
    2.7 B3g                  13.807567     0.008324   -0.009816    0.000000
    3.7 B3g                   7.669347    -0.032165    0.040598    0.000000
                              4.259902     0.041986   -0.059887    0.000000
                              2.366142     0.187147   -0.292809    0.000000
                              1.314262     0.274091   -0.381848    0.000000
                              0.730001     0.274162   -0.112906    0.000000
                              0.405475     0.223394    0.234947    0.000000
                              0.225219     0.156376    0.363251    0.000000
                              0.125097     0.088573    0.275550    0.000000
                              0.069485     0.033732    0.128792    0.000000
                              0.038595     0.005858    0.028454    0.000000
                              0.021437     0.000243    0.001243    1.000000
    4.7 B3g   1  3d1-         2.227251     1.000000
    1.8 Au    1  4f2-         1.592833     1.000000
    2.8 Au    1  4f2-         4.380579     1.000000

 NUCLEAR CHARGE:                   18
 NUMBER OF PRIMITIVE AOS:         160
 NUMBER OF SYMMETRY AOS:          140
 NUMBER OF CONTRACTIONS:           54   (  13Ag  +   9B3u +   9B2u +   4B1g +   9B1u +   4B2g +   4B3g +   2Au  )
 NUMBER OF CORE ORBITALS:           4   (   1Ag  +   1B3u +   1B2u +   0B1g +   1B1u +   0B2g +   0B3g +   0Au  )
 NUMBER OF VALENCE ORBITALS:        6   (   3Ag  +   0B3u +   0B2u +   1B1g +   0B1u +   1B2g +   1B3g +   0Au  )


 NUCLEAR REPULSION ENERGY    0.00000000


 Maximum number of basis and dump records reached. Truncating dump files before previous basis set!

 EXTRA SYMMETRY OF AOS IN SYMMETRY 1:   1 1 1 1 1 2 3 2 3 2   3 2 3
 EXTRA SYMMETRY OF AOS IN SYMMETRY 2:   1 1 1 1 1 2 3 2 3
 EXTRA SYMMETRY OF AOS IN SYMMETRY 3:   1 1 1 1 1 2 3 2 3
 EXTRA SYMMETRY OF AOS IN SYMMETRY 5:   1 1 1 1 1 2 3 2 3

 Eigenvalues of metric

         1 0.113E-01 0.805E-01 0.805E-01 0.226E+00 0.573E+00 0.755E+00 0.755E+00 0.124E+01
         2 0.106E+00 0.425E+00 0.425E+00 0.566E+00 0.100E+01 0.143E+01 0.158E+01 0.158E+01
         3 0.106E+00 0.425E+00 0.425E+00 0.566E+00 0.100E+01 0.143E+01 0.158E+01 0.158E+01
         4 0.805E-01 0.755E+00 0.124E+01 0.193E+01
         5 0.106E+00 0.425E+00 0.425E+00 0.566E+00 0.100E+01 0.143E+01 0.158E+01 0.158E+01
         6 0.805E-01 0.755E+00 0.124E+01 0.193E+01
         7 0.805E-01 0.755E+00 0.124E+01 0.193E+01
         8 0.425E+00 0.158E+01


 Contracted 2-electron integrals neglected if value below      1.0D-12
 AO integral compression algorithm  1   Integral accuracy      1.0D-12

     4.194 MB (compressed) written to integral file (100.0%)

     Node minimum: 0.262 MB, node maximum: 0.524 MB


 NUMBER OF SORTED TWO-ELECTRON INTEGRALS:      10776.     BUFFER LENGTH:  32768
 NUMBER OF SEGMENTS:   1  SEGMENT LENGTH:      10776      RECORD LENGTH: 524288

 Memory used in sort:       0.57 MW

 SORT1 READ      321044. AND WROTE        8795. INTEGRALS IN      1 RECORDS. CPU TIME:     0.11 SEC, REAL TIME:     0.11 SEC
 SORT2 READ      125920. AND WROTE      153544. INTEGRALS IN     15 RECORDS. CPU TIME:     0.00 SEC, REAL TIME:     0.11 SEC

 Node minimum:        7623.  Node maximum:       13019. integrals

 OPERATOR DM      FOR CENTER  0  COORDINATES:    0.000000    0.000000    0.000000


 **********************************************************************************************************************************
 DATASETS  * FILE   NREC   LENGTH (MB)   RECORD NAMES
              1      19       19.91       500      610      700      900      950      970     1029      129      960     1100   
                                          VAR    BASINP    GEOM    SYMINP    ZMAT    AOBASIS   BASIS     P2S    ABASIS      S 
                                         1400     1410     1420     1200     1210     1080     1600     1650     1700   
                                           T        V       ECP      H0       H01     AOSYM     SMH    MOLCAS    OPER   

              2      91      146.77       200      700     1000      520     4302     2101     1001     4302     2102     1002   
                                        OPTIONS   GEOM     BASIS   MCVARS     RHF      RHF     BASIS     RHF      RHF     BASIS   
                                         4302     2103     1003     4302     2104     1004     4302     2105     1005     4302   
                                          RHF      RHF     BASIS     RHF      RHF     BASIS     RHF      RHF     BASIS     RHF  
                                         2106     1006     4302     2107     1007     4302     2108     1008     4302     2109   
                                          RHF     BASIS     RHF      RHF     BASIS     RHF      RHF     BASIS     RHF      RHF  
                                         1009     4302     2110     1010     4302     2111     1011     4302     2112     1012   
                                         BASIS     RHF      RHF     BASIS     RHF      RHF     BASIS     RHF      RHF     BASIS   
                                         4302     2113     1013     4302     2114     1014     4302     2115     1015     4302   
                                          RHF      RHF     BASIS     RHF      RHF     BASIS     RHF      RHF     BASIS     RHF  
                                         2116     1016     4302     2117     1017     4302     2118     1018     4302     2119   
                                          RHF     BASIS     RHF      RHF     BASIS     RHF      RHF     BASIS     RHF      RHF  
                                         1019     4302     2120     1020     4302     2121     1021     4302     2122     1022   
                                         BASIS     RHF      RHF     BASIS     RHF      RHF     BASIS     RHF      RHF     BASIS   
                                         4302     2123     1023     4302     2124     1024     4302     2125     1025     4302   
                                          RHF      RHF     BASIS     RHF      RHF     BASIS     RHF      RHF     BASIS     RHF  
                                         2126     1026     4302     2127     1027     4302     2128     1028     4302     2129   
                                          RHF     BASIS     RHF      RHF     BASIS     RHF      RHF     BASIS     RHF      RHF  
                                         1029   
                                         BASIS   

 PROGRAMS   *        TOTAL       INT        CI      DATA       RHF       RHF       INT        CI      DATA       RHF       RHF
 CPU TIMES  *       285.38      1.46      0.50      0.00      0.18      0.10      1.12      0.26      0.00      0.20      0.21
 REAL TIME  *       434.79 SEC
 DISK USED  *         2.64 GB      
 SF USED    *         1.77 MB      
 GA USED    *         0.00 MB       (max)       0.00 MB       (current)
 **********************************************************************************************************************************


 PROGRAM * RHF-SCF (CLOSED SHELL)       Authors: W. Meyer, H.-J. Werner


 NUMBER OF ELECTRONS:       9+    9-    SPACE SYMMETRY=1    SPIN SYMMETRY: Singlet 
 CONVERGENCE THRESHOLDS:    1.00E-05 (Density)    1.00E-07 (Energy)
 MAX. NUMBER OF ITERATIONS:       60
 INTERPOLATION TYPE:            DIIS
 INTERPOLATION STEPS:              2 (START)      1 (STEP)
 LEVEL SHIFTS:                  0.00 (CLOSED)  0.00 (OPEN) 

 Number of closed-shell orbitals:    9 (   3   1   1   1   1   1   1   0 )


 
 Extra symmetries of mos in symmetry 1:   1   3   2

   Atom=PD basis=cc-pVTZ-PP        lmin=0  lmax=2

 Orbital guess generated from atomic densities. Full valence occupancy:    4   1   1   1   1   1   1   0


 Molecular orbital dump at record        4202.2

 ITERATION    DDIFF          GRAD             ENERGY        2-EL.EN.            DIPOLE MOMENTS         DIIS   ORB.
    1      0.000D+00      0.000D+00      -126.46696050    206.444981    0.00000    0.00000    0.00000    0    start
    2      0.000D+00      0.279D-01      -126.47160122    198.462223    0.00000    0.00000    0.00000    1    diag
    3      0.252D-01      0.295D-01      -126.49834589    202.081552    0.00000    0.00000    0.00000    2    diag
    4      0.964D-02      0.141D-02      -126.49839910    202.232558    0.00000    0.00000    0.00000    3    diag
    5      0.358D-03      0.598D-04      -126.49839922    202.238862    0.00000    0.00000    0.00000    4    diag
    6      0.305D-04      0.431D-05      -126.49839922    202.239016    0.00000    0.00000    0.00000    5    diag
    7      0.553D-05      0.391D-06      -126.49839922    202.239060    0.00000    0.00000    0.00000    0    orth

 Final occupancy:   3   1   1   1   1   1   1   0

 !RHF STATE 1.1 Energy               -126.498399223945
 Nuclear energy                         0.00000000
 One-electron energy                 -227.61792927
 Two-electron energy                  101.11953004
 Virial quotient                       -2.61642783
 !RHF STATE 1.1 Dipole moment           0.00000000     0.00000000     0.00000000
 Dipole moment /Debye                   0.00000000     0.00000000     0.00000000

 ELECTRON ORBITALS
 =================


   Orb  Occ    Energy  Couls-En    Coefficients

                                   1 1s      1 1s      1 1s      1 1s      1 1s      1 3d0     1 3d2+    1 3d0     1 3d2+    1 3d0  
                                   1 3d2+    1 3d0     1 3d2+ 

   1.1   2    -3.8402  -20.1006  1.000006  0.000044 -0.000008 -0.000050  0.000009  0.000000 -0.000000 -0.000000 -0.000000  0.000000
                                 0.000000 -0.000000  0.000000

   2.1   2    -0.3285  -11.1259  0.000000  0.000000 -0.000000 -0.000000  0.000000  0.000024  1.000001 -0.000000 -0.000000  0.000000
                                 0.000001 -0.000000 -0.000001

   3.1   2    -0.3285  -11.1259  0.000000  0.000000 -0.000000 -0.000000  0.000000  1.000001 -0.000024 -0.000000  0.000000  0.000001
                                -0.000000 -0.000001  0.000000

   4.1   0     0.0187   -3.9083  0.000338  1.001564 -0.000051 -0.001662  0.000089  0.000000 -0.000000  0.000000 -0.000000  0.000000
                                -0.000000  0.000000 -0.000000

   5.1   0     0.0755   -2.0906  0.000000  0.000000 -0.000000 -0.000000  0.000000 -0.081392  0.000044 -0.031358  0.000017  1.010451
                                -0.000547 -0.017357  0.000009

                                   1 2px     1 2px     1 2px     1 2px     1 2px     1 4f1+    1 4f3+    1 4f1+    1 4f3+ 

   1.2   2    -2.4023  -16.9228  0.999992  0.000003  0.000005  0.000001  0.000011  0.000000  0.000000 -0.000000  0.000000

   2.2   0     0.0518   -2.7654 -0.063385  0.000131  0.005271  1.003643 -0.001709 -0.000000  0.000000  0.000000 -0.000000

   3.2   0     0.4452   -5.8008  0.047365  1.014224 -0.374165 -0.424300 -0.027218 -0.000000 -0.000000  0.000000  0.000000

                                   1 2py     1 2py     1 2py     1 2py     1 2py     1 4f1-    1 4f3-    1 4f1-    1 4f3- 

   1.3   2    -2.4023  -16.9228  0.999992  0.000003  0.000005  0.000001  0.000011  0.000000 -0.000000 -0.000000 -0.000000

   2.3   0     0.0518   -2.7654 -0.063385  0.000131  0.005271  1.003643 -0.001709 -0.000000  0.000000  0.000000  0.000000

   3.3   0     0.4452   -5.8008  0.047365  1.014224 -0.374165 -0.424300 -0.027218 -0.000000  0.000000  0.000000 -0.000000

                                   1 3d2-    1 3d2-    1 3d2-    1 3d2- 

   1.4   2    -0.3285  -11.1259  1.000001 -0.000000  0.000001 -0.000001

   2.4   0     0.0755   -2.0906 -0.081392 -0.031358  1.010451 -0.017357

   3.4   0     0.8320   -5.7830 -0.428774  1.382613 -0.266642  0.655137

                                   1 2pz     1 2pz     1 2pz     1 2pz     1 2pz     1 4f0     1 4f2+    1 4f0     1 4f2+ 

   1.5   2    -2.4023  -16.9228  0.999992  0.000003  0.000005  0.000001  0.000011  0.000000  0.000000 -0.000000  0.000000

   2.5   0     0.0518   -2.7654 -0.063385  0.000131  0.005271  1.003643 -0.001709  0.000000  0.000000 -0.000000  0.000000

   3.5   0     0.4452   -5.8008  0.047365  1.014224 -0.374165 -0.424300 -0.027218 -0.000000  0.000000  0.000000 -0.000000

                                   1 3d1+    1 3d1+    1 3d1+    1 3d1+ 

   1.6   2    -0.3285  -11.1259  1.000001 -0.000000  0.000001 -0.000001

   2.6   0     0.0755   -2.0906 -0.081392 -0.031358  1.010451 -0.017357

   3.6   0     0.8320   -5.7830 -0.428774  1.382613 -0.266642  0.655137

                                   1 3d1-    1 3d1-    1 3d1-    1 3d1- 

   1.7   2    -0.3285  -11.1259  1.000001 -0.000000  0.000001 -0.000001

   2.7   0     0.0755   -2.0906 -0.081392 -0.031358  1.010451 -0.017357

   3.7   0     0.8320   -5.7830 -0.428774  1.382613 -0.266642  0.655137

                                   1 4f2-    1 4f2- 

   1.8   0     3.0729   -7.1573  0.847829  0.232700

   2.8   0     9.0816    3.7045 -0.880977  1.200327

 HOMO      3.1    -0.328488 =      -8.9386eV
 LUMO      4.1     0.018733 =       0.5098eV
 LUMO-HOMO         0.347221 =       9.4484eV


 **********************************************************************************************************************************
 DATASETS  * FILE   NREC   LENGTH (MB)   RECORD NAMES
              1      19       19.91       500      610      700      900      950      970     1029      129      960     1100   
                                          VAR    BASINP    GEOM    SYMINP    ZMAT    AOBASIS   BASIS     P2S    ABASIS      S 
                                         1400     1410     1420     1200     1210     1080     1600     1650     1700   
                                           T        V       ECP      H0       H01     AOSYM     SMH    MOLCAS    OPER   

              2      92      149.27       200      700     1000      520     4302     2101     1001     4302     2102     1002   
                                        OPTIONS   GEOM     BASIS   MCVARS     RHF      RHF     BASIS     RHF      RHF     BASIS   
                                         4302     2103     1003     4302     2104     1004     4302     2105     1005     4302   
                                          RHF      RHF     BASIS     RHF      RHF     BASIS     RHF      RHF     BASIS     RHF  
                                         2106     1006     4302     2107     1007     4302     2108     1008     4302     2109   
                                          RHF     BASIS     RHF      RHF     BASIS     RHF      RHF     BASIS     RHF      RHF  
                                         1009     4302     2110     1010     4302     2111     1011     4302     2112     1012   
                                         BASIS     RHF      RHF     BASIS     RHF      RHF     BASIS     RHF      RHF     BASIS   
                                         4302     2113     1013     4302     2114     1014     4302     2115     1015     4302   
                                          RHF      RHF     BASIS     RHF      RHF     BASIS     RHF      RHF     BASIS     RHF  
                                         2116     1016     4302     2117     1017     4302     2118     1018     4302     2119   
                                          RHF     BASIS     RHF      RHF     BASIS     RHF      RHF     BASIS     RHF      RHF  
                                         1019     4302     2120     1020     4302     2121     1021     4302     2122     1022   
                                         BASIS     RHF      RHF     BASIS     RHF      RHF     BASIS     RHF      RHF     BASIS   
                                         4302     2123     1023     4302     2124     1024     4302     2125     1025     4302   
                                          RHF      RHF     BASIS     RHF      RHF     BASIS     RHF      RHF     BASIS     RHF  
                                         2126     1026     4302     2127     1027     4302     2128     1028     4302     2129   
                                          RHF     BASIS     RHF      RHF     BASIS     RHF      RHF     BASIS     RHF      RHF  
                                         1029     4202   
                                         BASIS     RHF  

 PROGRAMS   *        TOTAL       RHF       INT        CI      DATA       RHF       RHF       INT        CI      DATA       RHF
 CPU TIMES  *       285.64      0.26      1.46      0.50      0.00      0.18      0.10      1.12      0.26      0.00      0.20
 REAL TIME  *       435.29 SEC
 DISK USED  *         2.64 GB      
 SF USED    *         1.77 MB      
 GA USED    *         0.00 MB       (max)       0.00 MB       (current)
 **********************************************************************************************************************************


 Current variables in basis input:

 Set= 1  S_PAR(1)            =       2.02452508
 Set= 1  P_PAR(1)            =       2.71280895
 Set= 1  D_PAR(1)            =       2.22725060
 Set= 1  F_PAR(1)            =       4.38057949

 PROGRAM * RHF-SCF (CLOSED SHELL)       Authors: W. Meyer, H.-J. Werner


 NUMBER OF ELECTRONS:       9+    9-    SPACE SYMMETRY=1    SPIN SYMMETRY: Singlet 
 CONVERGENCE THRESHOLDS:    1.00E-05 (Density)    1.00E-07 (Energy)
 MAX. NUMBER OF ITERATIONS:        0
 INTERPOLATION TYPE:            DIIS
 INTERPOLATION STEPS:              2 (START)      1 (STEP)
 LEVEL SHIFTS:                  0.00 (CLOSED)  0.00 (OPEN) 

 Number of closed-shell orbitals:    9 (   3   1   1   1   1   1   1   0 )


 
 Extra symmetries of mos in symmetry 1:   1   3   2
 Molecular orbitals read from record     4202.2  Type=RHF/CANONICAL (state 1.1)

 Molecular orbital dump at record        2130.2

 ITERATION    DDIFF          GRAD             ENERGY        2-EL.EN.            DIPOLE MOMENTS         DIIS   ORB.
    1      0.000D+00      0.000D+00      -126.49839922    202.239060    0.00000    0.00000    0.00000    0    start

 Final occupancy:   3   1   1   1   1   1   1   0

 !RHF STATE 1.1 Energy               -126.498399223945
 Nuclear energy                         0.00000000
 One-electron energy                 -227.61792927
 Two-electron energy                  101.11953004
 Virial quotient                       -2.61642783
 !RHF STATE 1.1 Dipole moment           0.00000000     0.00000000     0.00000000
 Dipole moment /Debye                   0.00000000     0.00000000     0.00000000

 ELECTRON ORBITALS
 =================


   Orb  Occ    Energy  Couls-En    Coefficients

                                   1 1s      1 1s      1 1s      1 1s      1 1s      1 3d0     1 3d2+    1 3d0     1 3d2+    1 3d0  
                                   1 3d2+    1 3d0     1 3d2+ 

   1.1   2    -3.8402  -20.1006  1.000006  0.000044 -0.000008 -0.000050  0.000009  0.000000 -0.000000 -0.000000 -0.000000  0.000000
                                 0.000000 -0.000000  0.000000

   2.1   2    -0.3285  -11.1259  0.000000  0.000000 -0.000000 -0.000000  0.000000  0.000024  1.000001 -0.000000 -0.000000  0.000000
                                 0.000001 -0.000000 -0.000001

   3.1   2    -0.3285  -11.1259  0.000000  0.000000 -0.000000 -0.000000  0.000000  1.000001 -0.000024 -0.000000  0.000000  0.000001
                                -0.000000 -0.000001  0.000000

                                   1 2px     1 2px     1 2px     1 2px     1 2px     1 4f1+    1 4f3+    1 4f1+    1 4f3+ 

   1.2   2    -2.4023  -16.9228  0.999992  0.000003  0.000005  0.000001  0.000011  0.000000  0.000000 -0.000000  0.000000

                                   1 2py     1 2py     1 2py     1 2py     1 2py     1 4f1-    1 4f3-    1 4f1-    1 4f3- 

   1.3   2    -2.4023  -16.9228  0.999992  0.000003  0.000005  0.000001  0.000011  0.000000 -0.000000 -0.000000 -0.000000

                                   1 3d2-    1 3d2-    1 3d2-    1 3d2- 

   1.4   2    -0.3285  -11.1259  1.000001 -0.000000  0.000001 -0.000001

                                   1 2pz     1 2pz     1 2pz     1 2pz     1 2pz     1 4f0     1 4f2+    1 4f0     1 4f2+ 

   1.5   2    -2.4023  -16.9228  0.999992  0.000003  0.000005  0.000001  0.000011  0.000000  0.000000 -0.000000  0.000000

                                   1 3d1+    1 3d1+    1 3d1+    1 3d1+ 

   1.6   2    -0.3285  -11.1259  1.000001 -0.000000  0.000001 -0.000001

                                   1 3d1-    1 3d1-    1 3d1-    1 3d1- 

   1.7   2    -0.3285  -11.1259  1.000001 -0.000000  0.000001 -0.000001

 HOMO      3.1    -0.328488 =      -8.9386eV
 LUMO      4.1     0.018733 =       0.5098eV
 LUMO-HOMO         0.347221 =       9.4484eV


 **********************************************************************************************************************************
 DATASETS  * FILE   NREC   LENGTH (MB)   RECORD NAMES
              1      19       19.91       500      610      700      900      950      970     1029      129      960     1100   
                                          VAR    BASINP    GEOM    SYMINP    ZMAT    AOBASIS   BASIS     P2S    ABASIS      S 
                                         1400     1410     1420     1200     1210     1080     1600     1650     1700   
                                           T        V       ECP      H0       H01     AOSYM     SMH    MOLCAS    OPER   

              2      93      151.78       200      700     1000      520     4302     2101     1001     4302     2102     1002   
                                        OPTIONS   GEOM     BASIS   MCVARS     RHF      RHF     BASIS     RHF      RHF     BASIS   
                                         4302     2103     1003     4302     2104     1004     4302     2105     1005     4302   
                                          RHF      RHF     BASIS     RHF      RHF     BASIS     RHF      RHF     BASIS     RHF  
                                         2106     1006     4302     2107     1007     4302     2108     1008     4302     2109   
                                          RHF     BASIS     RHF      RHF     BASIS     RHF      RHF     BASIS     RHF      RHF  
                                         1009     4302     2110     1010     4302     2111     1011     4302     2112     1012   
                                         BASIS     RHF      RHF     BASIS     RHF      RHF     BASIS     RHF      RHF     BASIS   
                                         4302     2113     1013     4302     2114     1014     4302     2115     1015     4302   
                                          RHF      RHF     BASIS     RHF      RHF     BASIS     RHF      RHF     BASIS     RHF  
                                         2116     1016     4302     2117     1017     4302     2118     1018     4302     2119   
                                          RHF     BASIS     RHF      RHF     BASIS     RHF      RHF     BASIS     RHF      RHF  
                                         1019     4302     2120     1020     4302     2121     1021     4302     2122     1022   
                                         BASIS     RHF      RHF     BASIS     RHF      RHF     BASIS     RHF      RHF     BASIS   
                                         4302     2123     1023     4302     2124     1024     4302     2125     1025     4302   
                                          RHF      RHF     BASIS     RHF      RHF     BASIS     RHF      RHF     BASIS     RHF  
                                         2126     1026     4302     2127     1027     4302     2128     1028     4302     2129   
                                          RHF     BASIS     RHF      RHF     BASIS     RHF      RHF     BASIS     RHF      RHF  
                                         1029     4202     2130   
                                         BASIS     RHF      RHF  

 PROGRAMS   *        TOTAL       RHF       RHF       INT        CI      DATA       RHF       RHF       INT        CI      DATA
 CPU TIMES  *       285.70      0.06      0.26      1.46      0.50      0.00      0.18      0.10      1.12      0.26      0.00
 REAL TIME  *       435.50 SEC
 DISK USED  *         2.64 GB      
 SF USED    *         1.77 MB      
 GA USED    *         0.00 MB       (max)       0.00 MB       (current)
 **********************************************************************************************************************************

 
 RECORD   4202.2 RENAMED TO   4302.2


 **********************************************************************************************************************************
 DATASETS  * FILE   NREC   LENGTH (MB)   RECORD NAMES
              1      19       19.91       500      610      700      900      950      970     1029      129      960     1100   
                                          VAR    BASINP    GEOM    SYMINP    ZMAT    AOBASIS   BASIS     P2S    ABASIS      S 
                                         1400     1410     1420     1200     1210     1080     1600     1650     1700   
                                           T        V       ECP      H0       H01     AOSYM     SMH    MOLCAS    OPER   

              2      93      151.78       200      700     1000      520     4302     2101     1001     4302     2102     1002   
                                        OPTIONS   GEOM     BASIS   MCVARS     RHF      RHF     BASIS     RHF      RHF     BASIS   
                                         4302     2103     1003     4302     2104     1004     4302     2105     1005     4302   
                                          RHF      RHF     BASIS     RHF      RHF     BASIS     RHF      RHF     BASIS     RHF  
                                         2106     1006     4302     2107     1007     4302     2108     1008     4302     2109   
                                          RHF     BASIS     RHF      RHF     BASIS     RHF      RHF     BASIS     RHF      RHF  
                                         1009     4302     2110     1010     4302     2111     1011     4302     2112     1012   
                                         BASIS     RHF      RHF     BASIS     RHF      RHF     BASIS     RHF      RHF     BASIS   
                                         4302     2113     1013     4302     2114     1014     4302     2115     1015     4302   
                                          RHF      RHF     BASIS     RHF      RHF     BASIS     RHF      RHF     BASIS     RHF  
                                         2116     1016     4302     2117     1017     4302     2118     1018     4302     2119   
                                          RHF     BASIS     RHF      RHF     BASIS     RHF      RHF     BASIS     RHF      RHF  
                                         1019     4302     2120     1020     4302     2121     1021     4302     2122     1022   
                                         BASIS     RHF      RHF     BASIS     RHF      RHF     BASIS     RHF      RHF     BASIS   
                                         4302     2123     1023     4302     2124     1024     4302     2125     1025     4302   
                                          RHF      RHF     BASIS     RHF      RHF     BASIS     RHF      RHF     BASIS     RHF  
                                         2126     1026     4302     2127     1027     4302     2128     1028     4302     2129   
                                          RHF     BASIS     RHF      RHF     BASIS     RHF      RHF     BASIS     RHF      RHF  
                                         1029     4302     2130   
                                         BASIS     RHF      RHF  

 PROGRAMS   *        TOTAL      DATA       RHF       RHF       INT        CI      DATA       RHF       RHF       INT        CI
 CPU TIMES  *       285.70      0.00      0.06      0.26      1.46      0.50      0.00      0.18      0.10      1.12      0.26
 REAL TIME  *       435.52 SEC
 DISK USED  *         2.64 GB      
 SF USED    *         1.77 MB      
 GA USED    *         0.00 MB       (max)       0.00 MB       (current)
 **********************************************************************************************************************************


 Current variables in basis input:

 Set= 1  S_PAR(1)            =       2.02452508
 Set= 1  P_PAR(1)            =       2.71280895
 Set= 1  D_PAR(1)            =       2.22725060
 Set= 1  F_PAR(1)            =       4.38057949

 PROGRAM * CI (Multireference internally contracted CI)     Authors: H.-J. Werner, P.J. Knowles, 1987


 Convergence thresholds:  THRVAR = 1.00D-08  THRDEN = 1.00D-06

 Number of optimized states:  1  Roots:   1
 Number of reference states:  1  Roots:   1

 Reference symmetry:                   1   Singlet 
 Number of electrons:                 18
 Maximum number of shells:             3
 Maximum number of spin couplings:     2

 Reference space:        1 conf        1 CSFs
 N elec internal:        1 conf        1 CSFs
 N-1 el internal:        9 conf        9 CSFs
 N-2 el internal:       45 conf       81 CSFs

 Number of electrons in valence space:                     18
 Maximum number of open shell orbitals in reference space:  0
 Maximum number of open shell orbitals in internal spaces:  4


 Number of closed-shell orbitals:   9 (   3   1   1   1   1   1   1   0 )
 Number of external orbitals:      45 (  10   8   8   3   8   3   3   2 )

 Molecular orbitals read from record     2130.2  Type=RHF/CANONICAL (state 1.1)

 Integral transformation finished. Total CPU:   0.01 sec, npass=  1  Memory used:   0.08 MW

 Number of p-space configurations:   1

 Reference wavefunction optimized for reference space (refopt=1)

 State     Reference Energy 
   1        -126.49839922

 Number of blocks in overlap matrix:    81   Smallest eigenvalue:  0.10D+01
 Number of N-2 electron functions:      81
 Number of N-1 electron functions:       9

 Number of internal configurations:                    1
 Number of singly external configurations:            63
 Number of doubly external configurations:         10767
 Total number of contracted configurations:        10831
 Total number of uncontracted configurations:      10831

 Diagonal Coupling coefficients finished.               Storage:    5811 words, CPU-Time:      0.00 seconds.
 Energy denominators for pairs finished in 1 passes.    Storage:   10934 words, CPU-time:      0.00 seconds.

  ITER. STATE  ROOT     SQ.NORM     CORR.ENERGY   TOTAL ENERGY   ENERGY CHANGE       DEN1      VAR(S)    VAR(P)      TIME
    1     1     1     1.00000000     0.00000000  -126.49839922    -0.00000000    -0.60233685  0.70D-11  0.13D+00     0.09
    2     1     1     1.07437431    -0.46262387  -126.96102310    -0.46262387    -0.01450596  0.60D-03  0.30D-02     0.11
    3     1     1     1.07131368    -0.47559712  -126.97399634    -0.01297325    -0.00041921  0.23D-04  0.87D-04     0.12
    4     1     1     1.07249492    -0.47597672  -126.97437594    -0.00037960    -0.00002475  0.61D-05  0.45D-05     0.14
    5     1     1     1.07285510    -0.47600273  -126.97440196    -0.00002601    -0.00000203  0.36D-06  0.48D-06     0.15
    6     1     1     1.07292059    -0.47600502  -126.97440424    -0.00000229    -0.00000013  0.57D-08  0.32D-07     0.16
    7     1     1     1.07291402    -0.47600517  -126.97440439    -0.00000015    -0.00000001  0.10D-09  0.14D-08     0.17


 =====================================
 Analysis of CPU times by interactions
 =====================================

       I      S      P

 I   0.0%
 S   0.0%  17.6%
 P   0.0%  17.6%   0.0%

 Initialization:  52.9%
 Other:           11.8%

 Total CPU:        0.2 seconds
 =====================================



 Reference coefficients greater than 0.0500000
 =============================================
 222222222           0.9654228



 RESULTS FOR STATE 1.1
 =====================

 Coefficient of reference function:   C(0) = 0.96542278 (fixed)   0.96542278 (relaxed)

 Energy contributions of configuration classes

 CLASS          SQ.NORM        ECORR1        ECORR2
 +++++++++++++++++++++++++++++++++++++++++++++++++++
 Internals    0.00000000    0.00000000   -0.00000000
 Singles      0.00051785   -0.00000000   -0.00022976
 Pairs        0.07239617   -0.47600516   -0.47577540
 Total        1.07291402   -0.47600517   -0.47600517
 +++++++++++++++++++++++++++++++++++++++++++++++++++


 Reference energy                    -126.49839922
 Nuclear energy                         0.00000000
 Kinetic energy                        48.79909239
 One electron energy                 -227.15232398
 Two electron energy                  100.17791959
 Virial quotient                       -2.60198291
 Correlation energy                    -0.47600517
 !CI(SD) STATE 1.1 Energy            -126.974404392216

 Properties without orbital relaxation:

 !CI(SD) STATE 1.1 Dipole moment        0.00000000     0.00000000     0.00000000
 Dipole moment /Debye                   0.00000000     0.00000000     0.00000000

 Cluster corrected energies          -127.00911184 (Davidson, fixed reference)
 Cluster corrected energies          -127.00911184 (Davidson, relaxed reference)

 Cluster corrected energies          -127.00709096 (Pople, fixed reference)
 Cluster corrected energies          -127.00709096 (Pople, relaxed reference)



 **********************************************************************************************************************************
 DATASETS  * FILE   NREC   LENGTH (MB)   RECORD NAMES
              1      20       20.15       500      610      700      900      950      970     1029      129      960     1100   
                                          VAR    BASINP    GEOM    SYMINP    ZMAT    AOBASIS   BASIS     P2S    ABASIS      S 
                                         1400     1410     1420     1200     1210     1080     1600     1650     1700     1380   
                                           T        V       ECP      H0       H01     AOSYM     SMH    MOLCAS    OPER     JKOP   

              2      93      151.78       200      700     1000      520     4302     2101     1001     4302     2102     1002   
                                        OPTIONS   GEOM     BASIS   MCVARS     RHF      RHF     BASIS     RHF      RHF     BASIS   
                                         4302     2103     1003     4302     2104     1004     4302     2105     1005     4302   
                                          RHF      RHF     BASIS     RHF      RHF     BASIS     RHF      RHF     BASIS     RHF  
                                         2106     1006     4302     2107     1007     4302     2108     1008     4302     2109   
                                          RHF     BASIS     RHF      RHF     BASIS     RHF      RHF     BASIS     RHF      RHF  
                                         1009     4302     2110     1010     4302     2111     1011     4302     2112     1012   
                                         BASIS     RHF      RHF     BASIS     RHF      RHF     BASIS     RHF      RHF     BASIS   
                                         4302     2113     1013     4302     2114     1014     4302     2115     1015     4302   
                                          RHF      RHF     BASIS     RHF      RHF     BASIS     RHF      RHF     BASIS     RHF  
                                         2116     1016     4302     2117     1017     4302     2118     1018     4302     2119   
                                          RHF     BASIS     RHF      RHF     BASIS     RHF      RHF     BASIS     RHF      RHF  
                                         1019     4302     2120     1020     4302     2121     1021     4302     2122     1022   
                                         BASIS     RHF      RHF     BASIS     RHF      RHF     BASIS     RHF      RHF     BASIS   
                                         4302     2123     1023     4302     2124     1024     4302     2125     1025     4302   
                                          RHF      RHF     BASIS     RHF      RHF     BASIS     RHF      RHF     BASIS     RHF  
                                         2126     1026     4302     2127     1027     4302     2128     1028     4302     2129   
                                          RHF     BASIS     RHF      RHF     BASIS     RHF      RHF     BASIS     RHF      RHF  
                                         1029     4302     2130   
                                         BASIS     RHF      RHF  

 PROGRAMS   *        TOTAL        CI      DATA       RHF       RHF       INT        CI      DATA       RHF       RHF       INT
 CPU TIMES  *       286.42      0.72      0.00      0.06      0.26      1.46      0.50      0.00      0.18      0.10      1.12
 REAL TIME  *       436.60 SEC
 DISK USED  *         2.64 GB      
 SF USED    *         1.77 MB      
 GA USED    *         0.00 MB       (max)       0.00 MB       (current)
 **********************************************************************************************************************************
 SETTING EVAL           =      -126.97440439  AU                              

 BFGS final minimum    =      -126.974404392       maximum gradient =           -0.24E-04

           variable                 value           gradient
 BFGS       S_PAR(1)                2.024525       -0.0000047
 BFGS       P_PAR(1)                2.712809       -0.0000034
 BFGS       D_PAR(1)                2.227251       -0.0000033
 BFGS       F_PAR(1)                4.380579       -0.0000239


 **********************************************************************************************************************************
 DATASETS  * FILE   NREC   LENGTH (MB)   RECORD NAMES
              1      20       20.15       500      610      700      900      950      970     1029      129      960     1100   
                                          VAR    BASINP    GEOM    SYMINP    ZMAT    AOBASIS   BASIS     P2S    ABASIS      S 
                                         1400     1410     1420     1200     1210     1080     1600     1650     1700     1380   
                                           T        V       ECP      H0       H01     AOSYM     SMH    MOLCAS    OPER     JKOP   

              2      93      151.78       200      700     1000      520     4302     2101     1001     4302     2102     1002   
                                        OPTIONS   GEOM     BASIS   MCVARS     RHF      RHF     BASIS     RHF      RHF     BASIS   
                                         4302     2103     1003     4302     2104     1004     4302     2105     1005     4302   
                                          RHF      RHF     BASIS     RHF      RHF     BASIS     RHF      RHF     BASIS     RHF  
                                         2106     1006     4302     2107     1007     4302     2108     1008     4302     2109   
                                          RHF     BASIS     RHF      RHF     BASIS     RHF      RHF     BASIS     RHF      RHF  
                                         1009     4302     2110     1010     4302     2111     1011     4302     2112     1012   
                                         BASIS     RHF      RHF     BASIS     RHF      RHF     BASIS     RHF      RHF     BASIS   
                                         4302     2113     1013     4302     2114     1014     4302     2115     1015     4302   
                                          RHF      RHF     BASIS     RHF      RHF     BASIS     RHF      RHF     BASIS     RHF  
                                         2116     1016     4302     2117     1017     4302     2118     1018     4302     2119   
                                          RHF     BASIS     RHF      RHF     BASIS     RHF      RHF     BASIS     RHF      RHF  
                                         1019     4302     2120     1020     4302     2121     1021     4302     2122     1022   
                                         BASIS     RHF      RHF     BASIS     RHF      RHF     BASIS     RHF      RHF     BASIS   
                                         4302     2123     1023     4302     2124     1024     4302     2125     1025     4302   
                                          RHF      RHF     BASIS     RHF      RHF     BASIS     RHF      RHF     BASIS     RHF  
                                         2126     1026     4302     2127     1027     4302     2128     1028     4302     2129   
                                          RHF     BASIS     RHF      RHF     BASIS     RHF      RHF     BASIS     RHF      RHF  
                                         1029     4302     2130   
                                         BASIS     RHF      RHF  

 PROGRAMS   *        TOTAL  MINIMIZE      DATA       RHF       RHF       INT        CI      DATA       RHF       RHF       INT
 CPU TIMES  *       286.43      0.73      0.00      0.06      0.26      1.46      0.50      0.00      0.18      0.10      1.12
 REAL TIME  *       436.61 SEC
 DISK USED  *         2.64 GB      
 SF USED    *         1.77 MB      
 GA USED    *         0.00 MB       (max)       0.00 MB       (current)
 **********************************************************************************************************************************

 MINIMIZE/USERDEF energy=   -126.974404392216

        CI              RHF-SCF         RHF-SCF         CI              RHF-SCF         CI              RHF-SCF         CI      
   -126.97440439   -126.49839922   -126.49839922   -126.97440433   -126.49839922   -126.97440439   -126.49839922   -126.97440426
 **********************************************************************************************************************************
 Molpro calculation terminated
 Variable memory released
