<?xml version="1.0"?>
<molpro xmlns="http://www.molpro.net/schema/molpro-output"
  xmlns:xsd="http://www.w3.org/1999/XMLSchema"
  xmlns:cml="http://www.xml-cml.org/schema"
  xmlns:stm="http://www.xml-cml.org/schema"
  xmlns:xhtml="http://www.w3.org/1999/xhtml">
 <!--

 Nodes     nprocs
 nid12889    11
 Number of processes for MPI-2 version of Molpro:   nprocs(total)=   12   nprocs(compute)=   11   nprocs(helper)=    1

 Using customized tuning parameters: mindgm=7; mindgv=16; mindgc=1; mindgr=1; noblas=0; minvec=7
 default implementation of scratch files=sf

 --><job>
  <!--

 Variables initialized (889), CPU time= 0.02 sec
 Commands  initialized (702), CPU time= 0.01 sec, 572 directives.
 Default parameters read. Elapsed time= 0.15 sec

 Checking input...
 Passed
1


                                         ***  PROGRAM SYSTEM MOLPRO  ***
                                       Copyright, TTI GmbH Stuttgart, 2015
                                    Version 2015.1 linked Dec 29 2018 15:55:43


 **********************************************************************************************************************************
 LABEL *   Calculation for IrO groundstate
  64 bit mpp version                                                                     DATE: 14-Jun-21          TIME: 12:59:53
 **********************************************************************************************************************************

 SHA1:             19cd028119e0e09f93f0674bd8af7968d9b3eff6
 **********************************************************************************************************************************
  -->
  <!--

 THRESHOLDS:

 ZERO    =  1.00D-12  ONEINT  =  1.00D-12  TWOINT  =  1.00D-15  PREFAC  =  1.00D-14  LOCALI  =  1.00D-09  EORDER  =  1.00D-04
 ENERGY  =  0.00D+00  ETEST   =  0.00D+00  EDENS   =  0.00D+00  THRDEDEF=  1.00D-06  GRADIENT=  1.00D-02  STEP    =  1.00D-03
 ORBITAL =  1.00D-05  CIVEC   =  1.00D-05  COEFF   =  1.00D-04  PRINTCI =  5.00D-02  PUNCHCI =  9.90D+01  OPTGRAD =  3.00D-04
 OPTENERG=  1.00D-06  OPTSTEP =  3.00D-04  THRGRAD =  1.00D-10  COMPRESS=  1.00D-11  VARMIN  =  1.00D-07  VARMAX  =  1.00D-03
 THRDOUB =  0.00D+00  THRDIV  =  1.00D-05  THRRED  =  1.00D-07  THRPSP  =  1.00D+00  THRDC   =  1.00D-10  THRCS   =  1.00D-10
 THRNRM  =  1.00D-08  THREQ   =  0.00D+00  THRDE   =  1.00D+00  THRREF  =  1.00D-05  SPARFAC =  1.00D+00  THRDLP  =  1.00D-07
 THRDIA  =  1.00D-10  THRDLS  =  1.00D-07  THRGPS  =  0.00D+00  THRKEX  =  0.00D+00  THRDIS  =  2.00D-01  THRVAR  =  1.00D-10
 THRLOC  =  1.00D-06  THRGAP  =  1.00D-06  THRLOCT = -1.00D+00  THRGAPT = -1.00D+00  THRORB  =  1.00D-06  THRMLTP =  0.00D+00
 THRCPQCI=  1.00D-10  KEXTA   =  0.00D+00  THRCOARS=  0.00D+00  SYMTOL  =  1.00D-06  GRADTOL =  1.00D-06  THROVL  =  1.00D-08
 THRORTH =  1.00D-08  GRID    =  1.00D-06  GRIDMAX =  1.00D-03  DTMAX   =  0.00D+00  THROCCDE=  1.00D-01  THROCCDE=  1.00D-01



 THRESHOLDS:

 ZERO    =  1.00D-12  ONEINT  =  1.00D-12  TWOINT  =  1.00D-15  PREFAC  =  1.00D-14  LOCALI  =  1.00D-09  EORDER  =  1.00D-04
 ENERGY  =  0.00D+00  ETEST   =  0.00D+00  EDENS   =  0.00D+00  THRDEDEF=  1.00D-06  GRADIENT=  1.00D-02  STEP    =  1.00D-03
 ORBITAL =  1.00D-05  CIVEC   =  1.00D-05  COEFF   =  1.00D-04  PRINTCI =  5.00D-02  PUNCHCI =  9.90D+01  OPTGRAD =  3.00D-04
 OPTENERG=  1.00D-06  OPTSTEP =  3.00D-04  THRGRAD =  1.00D-10  COMPRESS=  1.00D-11  VARMIN  =  1.00D-07  VARMAX  =  1.00D-03
 THRDOUB =  0.00D+00  THRDIV  =  1.00D-05  THRRED  =  1.00D-07  THRPSP  =  1.00D+00  THRDC   =  1.00D-10  THRCS   =  1.00D-10
 THRNRM  =  1.00D-08  THREQ   =  0.00D+00  THRDE   =  1.00D+00  THRREF  =  1.00D-05  SPARFAC =  1.00D+00  THRDLP  =  1.00D-07
 THRDIA  =  1.00D-10  THRDLS  =  1.00D-07  THRGPS  =  0.00D+00  THRKEX  =  0.00D+00  THRDIS  =  2.00D-01  THRVAR  =  1.00D-10
 THRLOC  =  1.00D-06  THRGAP  =  1.00D-06  THRLOCT = -1.00D+00  THRGAPT = -1.00D+00  THRORB  =  1.00D-06  THRMLTP =  0.00D+00
 THRCPQCI=  1.00D-10  KEXTA   =  0.00D+00  THRCOARS=  0.00D+00  SYMTOL  =  1.00D-06  GRADTOL =  1.00D-06  THROVL  =  1.00D-15
 THRORTH =  1.00D-08  GRID    =  1.00D-06  GRIDMAX =  1.00D-03  DTMAX   =  0.00D+00  THROCCDE=  1.00D-01  THROCCDE=  1.00D-01



 Variable memory set to 1024000000 words,  buffer space   230000 words

 SETTING BASIS          =    USERDEF
 SETTING NE             =        23.00000000
 SETTING A1             =         6.00000000
 SETTING B1             =         3.00000000
 SETTING B2             =         3.00000000
 SETTING A2             =         1.00000000

 DO I                   =         5.00000000
 SETTING Z(5)           =         1.80000000

Geometry recognized as XYZ

  --><jobstep command="RHF-SCF" commandset="SCFPRO">
   <!--


 Recomputing integrals since basis changed


 Using spherical harmonics



 PROGRAM * SEWARD (Integral evaluation for generally contracted gaussian basis sets)     Author: Roland Lindh, 1990

 Geometry written to block  1 of record 700


 Point group  C2v


   --><cml:molecule>
    <cml:symmetry pointGroup="C2v"/>
    <cml:atomArray>
     <cml:atom id="a1" elementType="Ir" x3="0.0" y3="0.0" z3="0.0"/>
     <cml:atom id="a2" elementType="O" x3="0.0" y3="0.0" z3="1.8"/>
    </cml:atomArray>
    <cml:bondArray>
     <cml:bond atomRefs2="a1 a2"/>
    </cml:bondArray>
   </cml:molecule><!--

 ATOMIC COORDINATES

 NR  ATOM    CHARGE       X              Y              Z

   1  IR     17.00    0.000000000    0.000000000    0.000000000
   2  O       6.00    0.000000000    0.000000000    3.401507024

 Bond lengths in Bohr (Angstrom)

 1-2  3.401507024
     ( 1.800000000)

 NUCLEAR CHARGE:                   23
 NUMBER OF PRIMITIVE AOS:         541
 NUMBER OF SYMMETRY AOS:          446
 NUMBER OF CONTRACTIONS:          446   ( 185A1  + 106B1  + 106B2  +  49A2  )
 NUMBER OF CORE ORBITALS:           4   (   2A1  +   1B1  +   1B2  +   0A2  )
 NUMBER OF VALENCE ORBITALS:       10   (   5A1  +   2B1  +   2B2  +   1A2  )


 NUCLEAR REPULSION ENERGY   29.98670862

 EXTRA SYMMETRY OF AOS IN SYMMETRY 1:   1 1 1 1 1 1 1 1 1 1   1 1 1 1 1 1 1 1 1 1   1 1 1 1 1 1 1 1 1 1   1 1 1 1 1 1 1 1 1 1
                                        1 1 1 1 1 1 1 1 1 1   1 1 1 1 1 1 1 1 1 1   1 1 1 1 1 1 1 1 1 1   2 1 2 1 2 1 2 1 2 1
                                        2 1 2 1 2 1 2 1 2 1   2 1 2 1 2 1 2 1 2 1   2 1 2 1 2 1 2 1 2 1   2 1 2 1 2 1 2 1 2 1
                                        2 1 2 1 2 1 2 1 2 1   2 1 2 1 2 1 2 1 2 1   2 1 2 1 3 2 1 3 2 1   3 2 1 1 1 1 1 1 1 1
                                        1 1 1 1 1 1 1 1 1 1   1 1 1 1 2 1 2 1 2 1   2 1 2 1 2
 EXTRA SYMMETRY OF AOS IN SYMMETRY 2:   1 1 1 1 1 1 1 1 1 1   1 1 1 1 1 1 1 1 1 1   1 1 1 1 1 1 1 1 1 1   1 1 1 1 1 1 1 1 1 1
                                        1 1 1 1 1 1 1 1 1 1   1 1 1 1 1 2 1 2 1 2   1 2 1 2 1 2 1 2 1 2   1 2 1 2 1 2 1 2 1 2
                                        1 2 1 2 1 2 1 2 1 2   1 1 1 1 1 1 1 1 1 1   1 1 1 2 1 2
 EXTRA SYMMETRY OF AOS IN SYMMETRY 3:   1 1 1 1 1 1 1 1 1 1   1 1 1 1 1 1 1 1 1 1   1 1 1 1 1 1 1 1 1 1   1 1 1 1 1 1 1 1 1 1
                                        1 1 1 1 1 1 1 1 1 1   1 1 1 1 1 2 1 2 1 2   1 2 1 2 1 2 1 2 1 2   1 2 1 2 1 2 1 2 1 2
                                        1 2 1 2 1 2 1 2 1 2   1 1 1 1 1 1 1 1 1 1   1 1 1 2 1 2
 EXTRA SYMMETRY OF AOS IN SYMMETRY 4:   1 1 1 1 1 1 1 1 1 1   1 1 1 1 1 1 1 1 1 1   1 1 1 1 1 1 1 1 1 1   1 1 1 1 1 1 1 1 2 1
                                        2 1 2 1 1 1 1 1 1

 Eigenvalues of metric

         1 0.166E-06 0.353E-06 0.769E-06 0.805E-06 0.142E-05 0.487E-05 0.508E-05 0.116E-04
         2 0.172E-06 0.801E-06 0.511E-05 0.116E-04 0.264E-04 0.520E-04 0.547E-04 0.556E-04
         3 0.172E-06 0.801E-06 0.511E-05 0.116E-04 0.264E-04 0.520E-04 0.547E-04 0.556E-04
         4 0.805E-06 0.267E-04 0.542E-04 0.166E-03 0.628E-03 0.978E-03 0.214E-02 0.553E-02


 Contracted 2-electron integrals neglected if value below      1.0D-15
 AO integral compression algorithm  1   Integral accuracy      1.0D-15

     4463.264 MB (compressed) written to integral file ( 38.1%)

     Node minimum: 207.618 MB, node maximum: 838.337 MB


 NUMBER OF SORTED TWO-ELECTRON INTEGRALS:  115647292.     BUFFER LENGTH:  32768
 NUMBER OF SEGMENTS:   4  SEGMENT LENGTH:   31984351      RECORD LENGTH: 524288

 Memory used in sort:      32.54 MW

 SORT1 READ  1465035727. AND WROTE    44774940. INTEGRALS IN    131 RECORDS. CPU TIME:    22.49 SEC, REAL TIME:    30.21 SEC
 SORT2 READ   484860778. AND WROTE  1273302750. INTEGRALS IN   8712 RECORDS. CPU TIME:     1.81 SEC, REAL TIME:     7.96 SEC

 Node minimum:   115641882.  Node maximum:   115920125. integrals

 OPERATOR DM      FOR CENTER  0  COORDINATES:    0.000000    0.000000    0.000000


 **********************************************************************************************************************************
 DATASETS  * FILE   NREC   LENGTH (MB)   RECORD NAMES
              1      19       22.42       500      610      700      900      950      970     1000      129      960     1100
                                          VAR    BASINP    GEOM    SYMINP    ZMAT    AOBASIS   BASIS     P2S    ABASIS      S
                                         1400     1410     1420     1200     1210     1080     1600     1650     1700
                                           T        V       ECP      H0       H01     AOSYM     SMH    MOLCAS    OPER

 PROGRAMS   *        TOTAL       INT
 CPU TIMES  *       171.25    170.86
 REAL TIME  *       187.10 SEC
 DISK USED  *        10.37 GB
 GA USED    *         0.00 MB       (max)       0.00 MB       (current)
 **********************************************************************************************************************************


 PROGRAM * RHF-SCF (CLOSED SHELL)       Authors: W. Meyer, H.-J. Werner


 NUMBER OF ELECTRONS:      10+   10-    SPACE SYMMETRY=1    SPIN SYMMETRY: Singlet
 CONVERGENCE THRESHOLDS:    1.00E-05 (Density)    1.00E-07 (Energy)
 MAX. NUMBER OF ITERATIONS:       60
 INTERPOLATION TYPE:            DIIS
 INTERPOLATION STEPS:              2 (START)      1 (STEP)
 LEVEL SHIFTS:                 -1.00 (CLOSED) -0.50 (OPEN)

 Number of closed-shell orbitals:   10 (   6   2   2   0 )


 Orbital guess generated from atomic densities. Full valence occupancy:    7   3   3   1

 Molecular orbital dump at record        2100.2

 ITERATION    DDIFF          GRAD             ENERGY        2-EL.EN.            DIPOLE MOMENTS         DIIS   ORB.
    1      0.000D+00      0.000D+00      -117.02952730    179.148953    0.00000    0.00000   -0.14850    0    start
    2      0.000D+00      0.162D-01      -117.38217754    188.240203    0.00000    0.00000    1.52052    1    diag
    3      0.130D-01      0.673D-02      -117.44512464    188.781366    0.00000    0.00000    0.97672    2    diag
    4      0.501D-02      0.333D-02      -117.47844117    190.067944    0.00000    0.00000    1.19009    3    diag
    5      0.304D-02      0.217D-02      -117.50190796    190.734769    0.00000    0.00000    1.15260    4    diag
    6      0.324D-02      0.149D-02      -117.52206762    191.333565    0.00000    0.00000    1.19496    5    diag
    7      0.259D-02      0.844D-03      -117.52863600    191.624516    0.00000    0.00000    1.25599    6    diag
    8      0.206D-02      0.300D-03      -117.52913323    191.699200    0.00000    0.00000    1.26447    7    diag
    9      0.591D-03      0.115D-03      -117.52919979    191.733394    0.00000    0.00000    1.28185    8    diag
   10      0.218D-03      0.572D-04      -117.52921199    191.732496    0.00000    0.00000    1.27825    9    orth
   11      0.503D-04      0.336D-04      -117.52921740    191.734103    0.00000    0.00000    1.27835   10    diag
   12      0.474D-04      0.257D-04      -117.52921861    191.733889    0.00000    0.00000    1.27731   11    diag
   13      0.401D-04      0.169D-04      -117.52921982    191.733289    0.00000    0.00000    1.27543   12    diag
   14      0.221D-04      0.125D-04      -117.52921994    191.733226    0.00000    0.00000    1.27508   13    diag
   15      0.182D-04      0.155D-04      -117.52921997    191.733220    0.00000    0.00000    1.27484   14    diag
   16      0.286D-04      0.113D-04      -117.52921998    191.733219    0.00000    0.00000    1.27480   15    diag
   17      0.184D-04      0.113D-04      -117.52921999    191.733243    0.00000    0.00000    1.27479   16    diag
   18      0.436D-04      0.111D-04      -117.52921999    191.733240    0.00000    0.00000    1.27473   17    diag
   19      0.362D-05      0.956D-05      -117.52922000    191.733216    0.00000    0.00000    1.27465    0    orth

 Final occupancy:   6   2   2   0

 !RHF STATE 1.1 Energy               -117.529220001987
   --><property name="Energy" method="RHF" principal="true" stateSymmetry="1" stateNumber="1"
     value="-117.529220001987"/><!--
 Nuclear energy                        29.98670862
 One-electron energy                 -243.38253653
 Two-electron energy                   95.86660791
 Virial quotient                       -2.73771902
 !RHF STATE 1.1 Dipole moment           0.00000000     0.00000000     1.27464951
 Dipole moment /Debye                   0.00000000     0.00000000     3.23962370
   --><property name="Dipole moment" method="RHF" principal="true" stateSymmetry="1"
     stateNumber="1" value="0.0 0.0 1.27464950910074"/><!--

 Orbital energies:

         1.1          2.1          3.1          4.1          5.1          6.1          7.1          8.1
     -5.348055    -3.572532    -2.283095    -1.657326    -1.525177    -1.385727    -0.813844    -0.515821

         1.2          2.2          3.2          4.2
     -3.562668    -1.463707    -0.998273    -0.609954

         1.3          2.3          3.3          4.3
     -3.562666    -1.463707    -0.998273    -0.609953

         1.4          2.4
     -0.983642    -0.366057

 HOMO      6.1    -1.385727 =     -37.7076eV
 LUMO      3.2    -0.998273 =     -27.1644eV
 LUMO-HOMO         0.387454 =      10.5432eV


 **********************************************************************************************************************************
 DATASETS  * FILE   NREC   LENGTH (MB)   RECORD NAMES
              1      19       22.50       500      610      700      900      950      970     1000      129      960     1100
                                          VAR    BASINP    GEOM    SYMINP    ZMAT    AOBASIS   BASIS     P2S    ABASIS      S
                                         1400     1410     1420     1200     1210     1080     1600     1650     1700
                                           T        V       ECP      H0       H01     AOSYM     SMH    MOLCAS    OPER

              2       4        4.02       700     1000      520     2100
                                         GEOM     BASIS   MCVARS     RHF

 PROGRAMS   *        TOTAL       RHF       INT
 CPU TIMES  *       182.64     11.39    170.86
 REAL TIME  *       199.62 SEC
 DISK USED  *        10.79 GB
 SF USED    *         0.24 MB
 GA USED    *         0.00 MB       (max)       0.00 MB       (current)
 **********************************************************************************************************************************
   -->
   <time start="12:59:54" end="13:03:13" cpu="182.64" system="10.77" real="199.62"/>
   <storage units="megabyte" memory="8193.84" sf="0.24" df="426.48" eaf="10365.18" ga="0.0"/>
  </jobstep><!--
  --><jobstep command="RHF-SCF" commandset="SCFPRO">
   <!--


 PROGRAM * RHF-SCF (OPEN SHELL)       Authors: W. Meyer, H.-J. Werner


 NUMBER OF ELECTRONS:      13+   10-    SPACE SYMMETRY=1    SPIN SYMMETRY: Quartet
 CONVERGENCE THRESHOLDS:    1.00E-05 (Density)    1.00E-07 (Energy)
 MAX. NUMBER OF ITERATIONS:       60
 INTERPOLATION TYPE:            DIIS
 INTERPOLATION STEPS:              2 (START)      1 (STEP)
 LEVEL SHIFTS:                 -1.00 (CLOSED) -0.50 (OPEN)

 Number of closed-shell orbitals:   10 (   6   2   2   0 )
 Number of open-shell orbitals:      3 (   0   1   1   1 )


 Molecular orbitals read from record     2100.2  Type=RHF/CANONICAL (state 1.1)

 Molecular orbital dump at record        2101.2

 ITERATION    DDIFF          GRAD             ENERGY        2-EL.EN.            DIPOLE MOMENTS         DIIS   ORB.
    1      0.000D+00      0.000D+00      -119.29201864    249.418550    0.00000    0.00000   -2.04199    0    start
    2      0.000D+00      0.137D-01      -119.53769079    229.395824    0.00000    0.00000   -1.50178    1    diag,B
    3      0.132D-01      0.984D-02      -119.64718243    236.383651    0.00000    0.00000   -1.86716    2    diag,B
    4      0.612D-02      0.113D-02      -119.65485445    235.736710    0.00000    0.00000   -2.04467    3    diag,B
    5      0.140D-02      0.107D-02      -119.65728093    235.869612    0.00000    0.00000   -1.98091    4    diag,B
    6      0.590D-03      0.542D-03      -119.65895533    235.859681    0.00000    0.00000   -2.00564    5    diag,B
    7      0.403D-03      0.431D-03      -119.66100771    235.750163    0.00000    0.00000   -2.03070    6    diag,B
    8      0.458D-03      0.364D-03      -119.66484493    235.315525    0.00000    0.00000   -2.07977    7    orth
    9      0.931D-03      0.302D-03      -119.66740501    234.898623    0.00000    0.00000   -2.08322    8    diag,B
   10      0.788D-03      0.260D-03      -119.66847751    234.762724    0.00000    0.00000   -2.07799    9    diag,B
   11      0.475D-03      0.192D-03      -119.66924393    234.648778    0.00000    0.00000   -2.07357   10    diag,B
   12      0.320D-03      0.152D-03      -119.66974332    234.563612    0.00000    0.00000   -2.08757   11    diag,B
   13      0.193D-03      0.150D-03      -119.67014267    234.530058    0.00000    0.00000   -2.11347   12    diag,B
   14      0.180D-03      0.136D-03      -119.67090800    234.404630    0.00000    0.00000   -2.14969   13    diag,B
   15      0.396D-03      0.913D-04      -119.67136301    234.323401    0.00000    0.00000   -2.19901   14    diag,B
   16      0.348D-03      0.587D-04      -119.67145866    234.262403    0.00000    0.00000   -2.20685   15    diag,B
   17      0.193D-03      0.435D-04      -119.67146792    234.282972    0.00000    0.00000   -2.21638   16    diag,B
   18      0.125D-03      0.335D-04      -119.67147550    234.249537    0.00000    0.00000   -2.21412   17    orth
   19      0.110D-03      0.293D-04      -119.67148069    234.276008    0.00000    0.00000   -2.21547   18    diag,B
   20      0.834D-04      0.127D-04      -119.67148196    234.266191    0.00000    0.00000   -2.21273   19    diag,B
   21      0.520D-04      0.106D-04      -119.67148230    234.268434    0.00000    0.00000   -2.21259   20    diag,B
   22      0.397D-04      0.770D-05      -119.67148235    234.267812    0.00000    0.00000   -2.21236   21    diag,B
   23      0.487D-04      0.179D-04      -119.67148224    234.267654    0.00000    0.00000   -2.21356   22    diag,B
   24      0.411D-04      0.106D-04      -119.67148236    234.267278    0.00000    0.00000   -2.21228   23    diag,B
   25      0.556D-04      0.118D-04      -119.67148230    234.268542    0.00000    0.00000   -2.21220   24    diag,B
   26      0.617D-04      0.946D-05      -119.67148240    234.267766    0.00000    0.00000   -2.21222   25    diag,B
   27      0.453D-04      0.771D-05      -119.67148245    234.268043    0.00000    0.00000   -2.21222   26    fixocc
   28      0.221D-04      0.199D-04      -119.67148229    234.267269    0.00000    0.00000   -2.21269   27    orth
   29      0.498D-04      0.105D-04      -119.67148246    234.268324    0.00000    0.00000   -2.21216   28    diag,B
   30      0.615D-04      0.897D-05      -119.67148245    234.267547    0.00000    0.00000   -2.21206   29    diag,B
   31      0.383D-04      0.182D-04      -119.67148246    234.267568    0.00000    0.00000   -2.21206   30    diag,B
   32      0.227D-04      0.649D-05      -119.67148241    234.266672    0.00000    0.00000   -2.21172   31    diag,B
   33      0.411D-04      0.170D-04      -119.67148242    234.266460    0.00000    0.00000   -2.21173   32    diag,B
   34      0.784D-04      0.243D-04      -119.67148243    234.266484    0.00000    0.00000   -2.21173   33    diag,B
   35      0.569D-04      0.182D-04      -119.67148244    234.266467    0.00000    0.00000   -2.21172   34    diag,B
   36      0.381D-04      0.121D-04      -119.67148244    234.266477    0.00000    0.00000   -2.21171   34    diag,B
   37      0.473D-04      0.128D-04      -119.67148189    234.263429    0.00000    0.00000   -2.21406   34    diag,B
   38      0.877D-04      0.173D-04      -119.67148242    234.265880    0.00000    0.00000   -2.21152   34    orth
   39      0.754D-04      0.121D-04      -119.67148245    234.265983    0.00000    0.00000   -2.21154   34    diag,B
   40      0.264D-04      0.191D-04      -119.67148240    234.266475    0.00000    0.00000   -2.21162   34    diag,B
   41      0.271D-04      0.188D-04      -119.67148246    234.266056    0.00000    0.00000   -2.21158   34    diag,B
   42      0.379D-04      0.223D-04      -119.67148246    234.265977    0.00000    0.00000   -2.21155   34    diag,B
   43      0.447D-04      0.681D-05      -119.67148246    234.266487    0.00000    0.00000   -2.21161   34    diag,B
   44      0.243D-04      0.788D-05      -119.67148250    234.266673    0.00000    0.00000   -2.21164   34    diag,B
   45      0.217D-04      0.181D-04      -119.67148247    234.266241    0.00000    0.00000   -2.21147   34    diag,B
   46      0.473D-04      0.156D-04      -119.67148249    234.266356    0.00000    0.00000   -2.21149   34    diag,B
   47      0.428D-04      0.841D-05      -119.67148250    234.266433    0.00000    0.00000   -2.21145   34    diag,B
   48      0.458D-04      0.101D-04      -119.67148252    234.267767    0.00000    0.00000   -2.21156   34    orth
   49      0.812D-04      0.103D-04      -119.67148250    234.267723    0.00000    0.00000   -2.21161   34    diag,B
   50      0.528D-04      0.152D-04      -119.67148230    234.267875    0.00000    0.00000   -2.21142   34    diag,B
   51      0.817D-04      0.130D-04      -119.67148215    234.266109    0.00000    0.00000   -2.21339   34    diag,B
   52      0.115D-03      0.126D-04      -119.67148243    234.268065    0.00000    0.00000   -2.21172   34    diag,B
   53      0.816D-04      0.148D-04      -119.67148253    234.267522    0.00000    0.00000   -2.21180   34    diag,B
   54      0.462D-04      0.823D-05      -119.67148251    234.267504    0.00000    0.00000   -2.21177   34    diag,B
   55      0.814D-04      0.289D-04      -119.67148252    234.267582    0.00000    0.00000   -2.21178   34    diag,B
   56      0.704D-04      0.202D-04      -119.67148248    234.267785    0.00000    0.00000   -2.21180   34    diag,B
   57      0.371D-04      0.113D-04      -119.67148227    234.266851    0.00000    0.00000   -2.21180   34    diag,B
   58      0.187D-03      0.159D-04      -119.67148239    234.267620    0.00000    0.00000   -2.21178   34    orth
   59      0.243D-03      0.193D-04      -119.67148240    234.267814    0.00000    0.00000   -2.21162   34    orth
   60      0.525D-04      0.158D-04      -119.67148251    234.267620    0.00000    0.00000   -2.21160    0    orth

 Final alpha occupancy:   6   3   3   1
 Final beta  occupancy:   6   2   2   0

 !RHF STATE 1.1 Energy               -119.671482512255
   --><property name="Energy" method="RHF" principal="true" stateSymmetry="1" stateNumber="1"
     value="-119.671482512255"/><!--
 Nuclear energy                        29.98670862
 One-electron energy                 -266.79200128
 Two-electron energy                  117.13381014
 Virial quotient                       -2.64990034
 !RHF STATE 1.1 Dipole moment           0.00000000     0.00000000    -2.21160318
 Dipole moment /Debye                   0.00000000     0.00000000    -5.62096642
   --><property name="Dipole moment" method="RHF" principal="true" stateSymmetry="1"
     stateNumber="1" value="0.0 0.0 -2.21160318461796"/><!--

 ELECTRON ORBITALS
 =================


   Orb  Occ    Energy  Couls-En    Coefficients

                                   1 1s      1 1s      1 1s      1 1s      1 1s      1 1s      1 1s      1 1s      1 1s      1 1s
                                   1 1s      1 1s      1 1s      1 1s      1 1s      1 1s      1 1s      1 1s      1 1s      1 1s
                                   1 1s      1 1s      1 1s      1 1s      1 1s      1 1s      1 1s      1 1s      1 1s      1 1s
                                   1 1s      1 1s      1 1s      1 1s      1 1s      1 1s      1 1s      1 2pz     1 2pz     1 2pz
                                   1 2pz     1 2pz     1 2pz     1 2pz     1 2pz     1 2pz     1 2pz     1 2pz     1 2pz     1 2pz
                                   1 2pz     1 2pz     1 2pz     1 2pz     1 2pz     1 2pz     1 2pz     1 2pz     1 2pz     1 2pz
                                   1 2pz     1 2pz     1 2pz     1 2pz     1 2pz     1 2pz     1 2pz     1 2pz     1 2pz     1 3d0
                                   1 3d2+    1 3d0     1 3d2+    1 3d0     1 3d2+    1 3d0     1 3d2+    1 3d0     1 3d2+    1 3d0
                                   1 3d2+    1 3d0     1 3d2+    1 3d0     1 3d2+    1 3d0     1 3d2+    1 3d0     1 3d2+    1 3d0
                                   1 3d2+    1 3d0     1 3d2+    1 3d0     1 3d2+    1 3d0     1 3d2+    1 3d0     1 3d2+    1 3d0
                                   1 3d2+    1 3d0     1 3d2+    1 3d0     1 3d2+    1 3d0     1 3d2+    1 3d0     1 3d2+    1 3d0
                                   1 3d2+    1 3d0     1 3d2+    1 4f0     1 4f2+    1 4f0     1 4f2+    1 4f0     1 4f2+    1 4f0
                                   1 4f2+    1 4f0     1 4f2+    1 4f0     1 4f2+    1 4f0     1 4f2+    1 4f0     1 4f2+    1 4f0
                                   1 4f2+    1 4f0     1 4f2+    1 4f0     1 4f2+    1 4f0     1 4f2+    1 4f0     1 4f2+    1 4f0
                                   1 4f2+    1 4f0     1 4f2+    1 5g0     1 5g4+    1 5g2+    1 5g0     1 5g4+    1 5g2+    1 5g0
                                   1 5g4+    1 5g2+    2 1s      2 1s      2 1s      2 1s      2 1s      2 1s      2 1s      2 1s
                                   2 1s      2 1s      2 1s      2 1s      2 1s      2 2pz     2 2pz     2 2pz     2 2pz     2 2pz
                                   2 2pz     2 2pz     2 2pz     2 3d0     2 3d2+    2 3d0     2 3d2+    2 3d0     2 3d2+    2 3d0
                                   2 3d2+    2 4f0     2 4f2+    2 4f0     2 4f2+

   1.1   2    -4.2999  -20.7303  0.000000 -0.000000  0.000000 -0.000000  0.000000 -0.000000  0.000000 -0.000000  0.000000 -0.000000
                                 0.000001 -0.000002  0.000007 -0.000018  0.000054 -0.000198  0.001487 -0.003228  0.003161 -0.003214
                                 0.006185 -0.015127  0.049606 -0.307739  0.794089 -0.811635  0.633748 -0.544601 -1.107490  0.849607
                                 0.557732  0.353048  0.322668  0.047069 -0.017705  0.002780 -0.000875 -0.000000  0.000000 -0.000000
                                 0.000000 -0.000000  0.000000 -0.000000  0.000000 -0.000000  0.000000 -0.000000  0.000000 -0.000003
                                 0.000012 -0.000013  0.000010 -0.000014  0.000027 -0.000044  0.000082 -0.000027  0.001995 -0.006894
                                 0.022184 -0.025908  0.014724 -0.022392  0.024243 -0.020947  0.005264 -0.004386  0.000111 -0.000000
                                -0.000000  0.000000 -0.000000 -0.000000  0.000000  0.000000 -0.000000 -0.000001  0.000000  0.000002
                                -0.000000 -0.000007  0.000000  0.000017 -0.000000 -0.000043  0.000000  0.000105 -0.000000 -0.000328
                                 0.000000  0.001833 -0.000000 -0.010572  0.000001  0.016277 -0.000001 -0.017204 -0.000000  0.011967
                                 0.000001 -0.002936  0.000000  0.011663  0.000001 -0.005800 -0.000001 -0.000324 -0.000000  0.000669
                                -0.000000 -0.001177  0.000000 -0.000000 -0.000000  0.000000  0.000000 -0.000002 -0.000000  0.000005
                                 0.000000 -0.000016 -0.000000  0.000042  0.000000 -0.000102 -0.000000  0.000297  0.000001 -0.001976
                                -0.000005  0.005038  0.000007 -0.008702 -0.000006  0.007947  0.000004 -0.005848 -0.000001  0.002736
                                 0.000000 -0.000303 -0.000000 -0.000045  0.000469 -0.000000  0.000068 -0.000869  0.000000  0.000358
                                 0.001451 -0.000000  0.000000 -0.000000  0.000001 -0.000004  0.000039  0.000975  0.001332  0.003511
                                -0.000625 -0.000454 -0.002201 -0.000576  0.004896 -0.000062 -0.000455 -0.000765 -0.002903  0.000292
                                 0.000039  0.000019 -0.001404  0.000244  0.000000  0.001775 -0.000000  0.000013  0.000000 -0.000307
                                -0.000000 -0.000342  0.000000 -0.000683  0.000000

   2.1   2    -2.5407  -16.9526  0.000000 -0.000000  0.000000 -0.000000  0.000000 -0.000000  0.000000 -0.000000  0.000000 -0.000000
                                 0.000000 -0.000000  0.000000 -0.000000  0.000000 -0.000001  0.000011 -0.000024  0.000024 -0.000024
                                 0.000048 -0.000119  0.000409 -0.002690  0.007224 -0.007685  0.006559 -0.006391 -0.013714  0.010274
                                 0.014718 -0.002009  0.004519 -0.016429 -0.004172 -0.004499  0.000794 -0.000000  0.000000 -0.000000
                                 0.000000 -0.000000  0.000000 -0.000000  0.000000 -0.000000  0.000001 -0.000003  0.000013 -0.000087
                                 0.000320 -0.000362  0.000295 -0.000579  0.001282 -0.004738  0.015128 -0.091613  0.758312 -1.079610
                                 0.395156 -0.327691  0.475803  0.488429  0.090260  0.223010  0.018104 -0.006129 -0.000076  0.000000
                                 0.000000 -0.000000 -0.000000  0.000000  0.000000 -0.000000 -0.000000  0.000000 -0.000000 -0.000000
                                 0.000000  0.000001  0.000000 -0.000003 -0.000000  0.000008  0.000000 -0.000016 -0.000000  0.000073
                                 0.000000 -0.000459 -0.000000  0.004007  0.000001 -0.006726 -0.000001  0.008285  0.000001 -0.006379
                                -0.000001  0.001836  0.000001 -0.017975  0.000000  0.010082  0.000000 -0.008283  0.000000 -0.000946
                                -0.000000 -0.000934  0.000000 -0.000000  0.000000  0.000000  0.000000 -0.000001 -0.000000  0.000003
                                 0.000000 -0.000010 -0.000000  0.000024  0.000000 -0.000077 -0.000000  0.000201  0.000000 -0.001457
                                -0.000003  0.004569  0.000006 -0.004480 -0.000006  0.005870  0.000004  0.002438 -0.000002 -0.001962
                                 0.000000  0.000018 -0.000000  0.000306 -0.000002 -0.000000 -0.000597 -0.000011  0.000000  0.000573
                                 0.000017 -0.000000 -0.000000  0.000000 -0.000002  0.000012 -0.000126 -0.001553 -0.006283  0.024927
                                 0.005660  0.018406 -0.001606  0.001769  0.009898 -0.000329 -0.003187 -0.009175 -0.018676 -0.013190
                                -0.000124  0.000089 -0.002182  0.001483  0.000000  0.005840 -0.000000  0.000067  0.000000  0.003094
                                 0.000000 -0.001097  0.000000 -0.001195  0.000000

   3.1   2    -1.2227  -11.2821 -0.000000  0.000000 -0.000000  0.000000 -0.000000  0.000000 -0.000000  0.000000 -0.000000  0.000000
                                -0.000000  0.000000 -0.000000  0.000001 -0.000002  0.000008 -0.000064  0.000138 -0.000136  0.000140
                                -0.000277  0.000692 -0.002425  0.016283 -0.044335  0.047757 -0.041520  0.035727  0.144000 -0.145765
                                 0.020661 -0.240119  0.132313  0.025220 -0.046644 -0.011235  0.001083  0.000000 -0.000000  0.000000
                                -0.000000  0.000000 -0.000000  0.000000 -0.000000  0.000000 -0.000000  0.000000 -0.000002  0.000013
                                -0.000046  0.000052 -0.000043  0.000084 -0.000183  0.000677 -0.002147  0.013388 -0.118869  0.179619
                                -0.098819  0.085565 -0.088648 -0.064545 -0.050166  0.020662 -0.031810 -0.024411 -0.001618  0.000000
                                -0.000000 -0.000000  0.000000  0.000000 -0.000000 -0.000000  0.000000  0.000001 -0.000000 -0.000002
                                 0.000000  0.000007 -0.000000 -0.000020  0.000000  0.000052 -0.000000 -0.000171  0.000000  0.000292
                                -0.000000 -0.001466  0.000003 -0.003541 -0.000013  0.007200  0.000021 -0.004449 -0.000023 -0.005430
                                 0.000018  0.044175 -0.000013 -0.033612  0.000031  0.090323 -0.000030  0.041396  0.000010 -0.013173
                                -0.000005 -0.003361  0.000002 -0.000000  0.000000  0.000000 -0.000000 -0.000001  0.000000  0.000003
                                -0.000000 -0.000010  0.000000  0.000023 -0.000000 -0.000085  0.000000  0.000203 -0.000000 -0.001947
                                 0.000001  0.007549 -0.000002 -0.009599  0.000002  0.011005 -0.000002  0.004244  0.000000  0.003894
                                -0.000000 -0.006612 -0.000001  0.001778 -0.000048 -0.000000 -0.002670  0.000157  0.000000  0.005457
                                -0.000167 -0.000000 -0.000001  0.000006 -0.000048  0.000320 -0.003329 -0.050133 -0.163586  0.546271
                                 0.157219  0.410281 -0.001362  0.048189  0.065567 -0.000685 -0.006270 -0.017722 -0.040735 -0.065935
                                -0.000159  0.000190 -0.012131  0.001533  0.000000  0.012169  0.000001  0.000034  0.000000  0.013884
                                 0.000001 -0.001416 -0.000000 -0.002703 -0.000000

   4.1   2    -0.5464  -10.6372  0.000000 -0.000000  0.000000 -0.000000  0.000000 -0.000000  0.000000 -0.000000  0.000000 -0.000000
                                 0.000000 -0.000000  0.000000 -0.000000  0.000001 -0.000003  0.000025 -0.000054  0.000054 -0.000056
                                 0.000116 -0.000300  0.001138 -0.008277  0.023551 -0.026258  0.023404 -0.011119 -0.156146  0.165526
                                -0.065775  0.280051 -0.179940 -0.001852  0.076287  0.024148 -0.004068  0.000000 -0.000000  0.000000
                                -0.000000  0.000000 -0.000000  0.000000 -0.000000  0.000000 -0.000000  0.000001 -0.000003  0.000017
                                -0.000062  0.000070 -0.000050  0.000070 -0.000123  0.000100  0.000013 -0.003795  0.032908 -0.038871
                                -0.046319  0.062346 -0.003776  0.083577 -0.002860 -0.014937  0.030154  0.022594  0.000667 -0.000000
                                -0.000000  0.000000  0.000000 -0.000000 -0.000000  0.000001  0.000000 -0.000002 -0.000000  0.000007
                                 0.000000 -0.000021 -0.000000  0.000066  0.000000 -0.000175 -0.000000  0.000639  0.000001 -0.000871
                                -0.000003  0.004258  0.000017  0.032455 -0.000088 -0.060168  0.000136  0.057582 -0.000152 -0.008004
                                 0.000118 -0.187652 -0.000089  0.060102  0.000201 -0.325683 -0.000200 -0.226068  0.000061 -0.073135
                                -0.000037 -0.005651  0.000009  0.000000  0.000000 -0.000001 -0.000000  0.000004  0.000000 -0.000016
                                -0.000000  0.000047  0.000000 -0.000118 -0.000000  0.000325  0.000000 -0.000872 -0.000001  0.005242
                                 0.000011 -0.013804 -0.000021  0.014966  0.000023 -0.012162 -0.000015 -0.006705  0.000007  0.001560
                                -0.000001  0.010131 -0.000002 -0.003985  0.000564 -0.000001  0.006595 -0.000899  0.000001 -0.010204
                                 0.000933 -0.000001 -0.000000  0.000002 -0.000012  0.000076 -0.000796 -0.012554 -0.039895  0.139594
                                 0.041515  0.104376  0.001433  0.011708 -0.021580  0.005885  0.061092  0.195271  0.317340  0.247785
                                 0.003433 -0.001551  0.032914 -0.007362  0.000000 -0.024906 -0.000001 -0.000360  0.000000 -0.020145
                                 0.000003  0.003933 -0.000001  0.004186  0.000000

   5.1   2    -0.4912  -11.2507 -0.000000 -0.000000 -0.000000  0.000000 -0.000000  0.000000 -0.000000  0.000000 -0.000000  0.000000
                                -0.000000  0.000000 -0.000000  0.000000 -0.000000  0.000000 -0.000000  0.000000 -0.000000  0.000000
                                -0.000000  0.000000 -0.000001  0.000005 -0.000014  0.000015 -0.000013  0.000020 -0.000016  0.000020
                                -0.000035  0.000024 -0.000033  0.000028  0.000027  0.000002  0.000000  0.000000 -0.000000 -0.000000
                                 0.000000 -0.000000  0.000000 -0.000000  0.000000 -0.000000  0.000000 -0.000000 -0.000000  0.000000
                                 0.000000 -0.000000  0.000000 -0.000000  0.000000 -0.000000  0.000000 -0.000002  0.000015 -0.000025
                                 0.000019 -0.000018  0.000016 -0.000000  0.000021 -0.000013 -0.000012 -0.000016 -0.000001  0.000000
                                 0.000000 -0.000000 -0.000000  0.000000  0.000000 -0.000000 -0.000000  0.000000  0.000001 -0.000000
                                -0.000005  0.000000  0.000015 -0.000000 -0.000054  0.000000  0.000148 -0.000000 -0.000672  0.000000
                                 0.000409 -0.000001 -0.001144  0.000003 -0.080038 -0.000004  0.140968  0.000004 -0.148988 -0.000003
                                 0.063929  0.000004  0.250425 -0.000008  0.009458  0.000009  0.396506 -0.000002  0.351491  0.000005
                                 0.172644  0.000001  0.025328 -0.000000 -0.000000  0.000000  0.000000 -0.000000 -0.000001  0.000000
                                 0.000003 -0.000000 -0.000009  0.000000  0.000027 -0.000000 -0.000056  0.000000  0.000210 -0.000001
                                -0.001084  0.000002  0.001175 -0.000004 -0.002967  0.000004  0.001029 -0.000005 -0.006143  0.000001
                                -0.004622 -0.000001 -0.011817 -0.000000  0.000001  0.001134  0.000001 -0.000001 -0.002377 -0.000001
                                 0.000002  0.003580  0.000000 -0.000000  0.000000 -0.000000  0.000000  0.000000  0.000001  0.000001
                                -0.000000 -0.000003 -0.000001 -0.000000  0.000004  0.000000  0.000003  0.000010  0.000016  0.000014
                                 0.000000 -0.000000  0.000002 -0.000000  0.000838 -0.000000  0.003652 -0.000000  0.000047 -0.000000
                                 0.002082  0.000000 -0.000619 -0.000000 -0.001484

   6.1   2    -0.3655   -8.9705 -0.000000  0.000000 -0.000000  0.000000 -0.000000  0.000000 -0.000000  0.000000 -0.000000  0.000000
                                -0.000000  0.000001 -0.000002  0.000005 -0.000013  0.000049 -0.000370  0.000804 -0.000788  0.000805
                                -0.001568  0.003867 -0.013048  0.084105 -0.223818  0.237145 -0.208013  0.260260  0.168606 -0.130966
                                -0.316144 -0.124690 -0.248509  0.311392  0.504855  0.115726 -0.000363  0.000000 -0.000000  0.000000
                                -0.000000  0.000000 -0.000000  0.000000 -0.000000  0.000000 -0.000000  0.000000 -0.000001  0.000004
                                -0.000016  0.000018 -0.000015  0.000030 -0.000065  0.000249 -0.000796  0.005125 -0.047622  0.074716
                                -0.052347  0.051824 -0.049728 -0.005379 -0.052895  0.034927 -0.003307 -0.040755 -0.009403 -0.000000
                                 0.000000  0.000000 -0.000000 -0.000000  0.000000  0.000000 -0.000000 -0.000000  0.000000  0.000002
                                -0.000000 -0.000005  0.000000  0.000020 -0.000000 -0.000056  0.000000  0.000278 -0.000000 -0.000088
                                 0.000001 -0.000053 -0.000003  0.040467  0.000020 -0.070783 -0.000031  0.075577  0.000034 -0.034629
                                -0.000025 -0.114540  0.000012 -0.005558 -0.000041 -0.186369  0.000032 -0.156919 -0.000018 -0.100493
                                 0.000005 -0.029175 -0.000002  0.000000  0.000000 -0.000000 -0.000000  0.000000  0.000000 -0.000001
                                -0.000000  0.000003  0.000000 -0.000014 -0.000000  0.000002  0.000000 -0.000115 -0.000000  0.000513
                                 0.000001  0.001572 -0.000002  0.001419  0.000001  0.003407  0.000000  0.008157 -0.000002  0.013253
                                 0.000001  0.010257 -0.000001  0.000673  0.000897 -0.000001 -0.000589 -0.000691  0.000001  0.000309
                                 0.000851 -0.000001  0.000000 -0.000001  0.000005 -0.000034  0.000342  0.005843  0.016141 -0.048417
                                -0.015262 -0.046196 -0.003329 -0.005023 -0.008024 -0.003321 -0.034327 -0.109984 -0.176869 -0.150177
                                -0.001853  0.000878 -0.027588  0.000493 -0.000000  0.001815 -0.000001  0.000040 -0.000000  0.003790
                                 0.000000  0.000025  0.000000  0.000097  0.000001

   7.1   0    -0.0336   -6.3488 -0.000000  0.000000 -0.000000  0.000000 -0.000000  0.000000 -0.000000  0.000000 -0.000000  0.000000
                                -0.000000  0.000000 -0.000000  0.000000 -0.000001  0.000003 -0.000026  0.000056 -0.000055  0.000058
                                -0.000122  0.000317 -0.001232  0.009155 -0.026371  0.029732 -0.027276  0.016584  0.162647 -0.170063
                                 0.047140 -0.227836  0.117945 -0.104966  0.247727  0.173736  0.338265  0.000000 -0.000000  0.000000
                                -0.000000  0.000000 -0.000000  0.000000 -0.000000  0.000000 -0.000000  0.000002 -0.000007  0.000044
                                -0.000161  0.000179 -0.000128  0.000177 -0.000309  0.000218  0.000186 -0.010819  0.095023 -0.116672
                                -0.105346  0.148698 -0.007762  0.257021 -0.123316  0.139532 -0.242437 -0.144050 -0.348798  0.000000
                                 0.000000 -0.000000 -0.000000  0.000000  0.000000 -0.000000 -0.000000  0.000000  0.000000 -0.000000
                                -0.000000  0.000001  0.000000 -0.000009 -0.000000  0.000027  0.000000 -0.000173 -0.000000 -0.000057
                                 0.000000  0.000770 -0.000002 -0.035173  0.000012  0.060658 -0.000019 -0.064749  0.000021  0.031384
                                -0.000014  0.085059 -0.000003  0.012320 -0.000019  0.136453  0.000000  0.120186 -0.000022  0.089129
                                -0.000005  0.138114 -0.000004  0.000000 -0.000000 -0.000000  0.000000  0.000000 -0.000000 -0.000000
                                 0.000000  0.000002 -0.000000 -0.000000  0.000000  0.000027 -0.000000  0.000013  0.000001  0.000262
                                -0.000009 -0.003376  0.000024  0.002128 -0.000038 -0.004579  0.000043 -0.004668 -0.000038 -0.016112
                                 0.000032 -0.015471 -0.000011 -0.003059  0.000485  0.000001  0.005274 -0.000024 -0.000001 -0.006868
                                 0.000636  0.000001  0.000000 -0.000000  0.000002 -0.000015  0.000162  0.002300  0.007881 -0.037411
                                -0.007374 -0.028512  0.001368 -0.002361 -0.006524  0.003203  0.032954  0.105413  0.174171  0.118484
                                 0.001700 -0.000849  0.102810  0.000376 -0.000000  0.002064  0.000003  0.000035 -0.000000  0.022592
                                -0.000003  0.000190 -0.000000 -0.002902 -0.000003

   8.1   0     0.0348   -2.8894  0.000000 -0.000000  0.000000 -0.000000  0.000000 -0.000000  0.000000 -0.000000  0.000000 -0.000000
                                 0.000000 -0.000001  0.000001 -0.000004  0.000012 -0.000042  0.000316 -0.000686  0.000670 -0.000676
                                 0.001274 -0.003056  0.009498 -0.055098  0.136401 -0.135220  0.111006 -0.216901  0.570723 -0.652344
                                 0.577876 -1.009425  0.922618 -0.394612 -0.162097 -3.904676  2.671201 -0.000000  0.000000 -0.000000
                                 0.000000 -0.000000  0.000000 -0.000000  0.000000 -0.000000  0.000001 -0.000004  0.000016 -0.000102
                                 0.000373 -0.000416  0.000308 -0.000477  0.000908 -0.001770  0.004097 -0.009425  0.097225 -0.208591
                                 0.463688 -0.522314  0.260423 -0.392282  0.483664 -0.353262  0.077613 -0.843638 -0.274819 -0.000000
                                 0.000000  0.000000 -0.000000 -0.000000  0.000000  0.000000 -0.000000 -0.000002  0.000000  0.000006
                                -0.000000 -0.000019  0.000000  0.000051 -0.000000 -0.000129  0.000000  0.000349 -0.000000 -0.000908
                                 0.000000  0.004994 -0.000000 -0.019523  0.000001  0.028140 -0.000001 -0.030247  0.000001  0.026552
                                -0.000002 -0.039404  0.000006  0.027004 -0.000004 -0.043887  0.000010 -0.066974  0.000004 -0.136641
                                 0.000004 -0.393537  0.000002 -0.000001 -0.000000  0.000004  0.000000 -0.000016 -0.000000  0.000058
                                 0.000000 -0.000172 -0.000000  0.000454  0.000000 -0.001191 -0.000000  0.003579  0.000000 -0.023100
                                -0.000003  0.061217  0.000007 -0.102113 -0.000012  0.116370  0.000013 -0.099696 -0.000011  0.059135
                                 0.000010 -0.066724 -0.000003 -0.002882  0.000042 -0.000000  0.007507 -0.000568  0.000000 -0.006400
                                 0.000608 -0.000000  0.000000 -0.000000  0.000001 -0.000004  0.000030  0.000790  0.000196 -0.019744
                                 0.002525  0.116719 -0.002176 -0.000391  2.156461 -0.000921 -0.010920 -0.038840 -0.045858 -0.296989
                                -0.001081  0.000224 -0.784377 -0.001662 -0.000000  0.011319  0.000001  0.000027 -0.000000  0.068938
                                -0.000001  0.000185  0.000000 -0.013634 -0.000001

                                   1 2px     1 2px     1 2px     1 2px     1 2px     1 2px     1 2px     1 2px     1 2px     1 2px
                                   1 2px     1 2px     1 2px     1 2px     1 2px     1 2px     1 2px     1 2px     1 2px     1 2px
                                   1 2px     1 2px     1 2px     1 2px     1 2px     1 2px     1 2px     1 2px     1 2px     1 2px
                                   1 2px     1 2px     1 3d1+    1 3d1+    1 3d1+    1 3d1+    1 3d1+    1 3d1+    1 3d1+    1 3d1+
                                   1 3d1+    1 3d1+    1 3d1+    1 3d1+    1 3d1+    1 3d1+    1 3d1+    1 3d1+    1 3d1+    1 3d1+
                                   1 3d1+    1 3d1+    1 3d1+    1 3d1+    1 4f1+    1 4f3+    1 4f1+    1 4f3+    1 4f1+    1 4f3+
                                   1 4f1+    1 4f3+    1 4f1+    1 4f3+    1 4f1+    1 4f3+    1 4f1+    1 4f3+    1 4f1+    1 4f3+
                                   1 4f1+    1 4f3+    1 4f1+    1 4f3+    1 4f1+    1 4f3+    1 4f1+    1 4f3+    1 4f1+    1 4f3+
                                   1 4f1+    1 4f3+    1 4f1+    1 4f3+    1 5g1+    1 5g3+    1 5g1+    1 5g3+    1 5g1+    1 5g3+
                                   2 2px     2 2px     2 2px     2 2px     2 2px     2 2px     2 2px     2 2px     2 3d1+    2 3d1+
                                   2 3d1+    2 3d1+    2 4f1+    2 4f3+    2 4f1+    2 4f3+

   1.2   2    -2.5230  -16.7988 -0.000000  0.000000 -0.000000  0.000000 -0.000000  0.000000 -0.000000  0.000000 -0.000000  0.000001
                                -0.000003  0.000012 -0.000077  0.000282 -0.000319  0.000263 -0.000529  0.001185 -0.004533  0.014621
                                -0.089965  0.741260 -1.046445  0.337426 -0.263494  0.440381  0.522894  0.044858  0.250836  0.031453
                                -0.001086  0.000629  0.000000 -0.000000  0.000000 -0.000000  0.000000 -0.000000  0.000001 -0.000002
                                 0.000005 -0.000011  0.000045 -0.000272  0.002131 -0.003401  0.003543 -0.002152 -0.000334 -0.002036
                                -0.003273 -0.004665 -0.001080 -0.000092  0.000000  0.000000 -0.000000 -0.000000  0.000000  0.000000
                                -0.000000 -0.000000  0.000001  0.000000 -0.000003 -0.000004  0.000006 -0.000012 -0.000004 -0.000041
                                -0.000215  0.000536  0.000183  0.000640  0.000764  0.000684 -0.000426  0.002257  0.001309  0.001853
                                -0.001500  0.001806 -0.000317  0.000585  0.000274 -0.000075 -0.000618  0.000125  0.000135 -0.000138
                                 0.000080  0.000743  0.002099  0.004035  0.001892  0.000013 -0.000022 -0.000017 -0.000347 -0.001579
                                -0.000019 -0.000321  0.000356  0.000005  0.000436 -0.000008

   2.2   2    -0.4996   -9.8313  0.000000 -0.000000  0.000000 -0.000000  0.000000 -0.000000  0.000000 -0.000000  0.000000 -0.000000
                                 0.000000 -0.000001  0.000006 -0.000023  0.000025 -0.000021  0.000040 -0.000086  0.000314 -0.000989
                                 0.006203 -0.057111  0.089068 -0.059130  0.054197 -0.050353 -0.016727 -0.046665  0.020392  0.009505
                                 0.021602 -0.001447  0.000000 -0.000000  0.000000 -0.000000  0.000001 -0.000003  0.000010 -0.000032
                                 0.000086 -0.000336  0.000362 -0.001530 -0.026001  0.046618 -0.046616  0.013866  0.106768 -0.014534
                                 0.173930  0.151258  0.049083  0.008031 -0.000000  0.000000  0.000000 -0.000000 -0.000000  0.000000
                                 0.000001 -0.000000 -0.000004  0.000000  0.000005 -0.000001 -0.000039  0.000003  0.000042 -0.000007
                                -0.000788  0.000009  0.004553 -0.000040 -0.003324  0.000091  0.003714 -0.000049  0.008273  0.000156
                                 0.009877  0.000032 -0.008523  0.000170  0.005026  0.000242 -0.009842 -0.000353  0.012934  0.000387
                                 0.007242  0.074918  0.240141  0.382672  0.325890  0.004043 -0.001913  0.043495 -0.005023 -0.023861
                                -0.000304 -0.032919  0.002872 -0.000004  0.009320  0.000022

   3.2   +    -0.4743  -10.8779 -0.000000  0.000000 -0.000000  0.000000 -0.000000  0.000000 -0.000000  0.000000 -0.000000  0.000000
                                -0.000000  0.000000 -0.000003  0.000009 -0.000011  0.000010 -0.000028  0.000068 -0.000342  0.001167
                                -0.008380  0.077321 -0.117976  0.060748 -0.050013  0.058878  0.056369  0.025079 -0.003361 -0.081677
                                -0.058334  0.003733  0.000000 -0.000000  0.000000 -0.000000  0.000001 -0.000005  0.000014 -0.000049
                                 0.000135 -0.000616  0.000363 -0.000961 -0.074560  0.131271 -0.138574  0.058918  0.231794  0.011960
                                 0.371171  0.321054  0.146691  0.021366 -0.000000 -0.000000  0.000000  0.000000 -0.000001 -0.000000
                                 0.000004  0.000000 -0.000011 -0.000000  0.000038  0.000001 -0.000055 -0.000002  0.000269  0.000010
                                -0.000965 -0.000010 -0.002068 -0.000044  0.001135 -0.000180 -0.006981  0.000006 -0.008490  0.000091
                                -0.019101  0.000432 -0.016590  0.000288 -0.000563 -0.001300  0.000492  0.001518 -0.000442 -0.002778
                                -0.004129 -0.043046 -0.139775 -0.219505 -0.203995 -0.002390  0.001087 -0.046782 -0.000959 -0.000158
                                -0.000017  0.010588  0.000879  0.000011 -0.001743 -0.000039

   4.2   0     0.0409   -4.1757 -0.000000  0.000000 -0.000000  0.000000 -0.000000  0.000000 -0.000000  0.000000 -0.000001  0.000003
                                -0.000010  0.000038 -0.000249  0.000912 -0.001019  0.000756 -0.001183  0.002267 -0.004646  0.011139
                                -0.031652  0.313130 -0.617434  1.144357 -1.253018  0.635429 -0.750609  0.901106 -0.619994  0.370047
                                -0.199703  1.199101  0.000000 -0.000000  0.000000 -0.000001  0.000004 -0.000012  0.000037 -0.000101
                                 0.000253 -0.000678  0.001816 -0.010093  0.042775 -0.062770  0.067647 -0.056996  0.074987 -0.095784
                                 0.142310  0.016785  0.057332 -0.070711  0.000000 -0.000000 -0.000001  0.000000  0.000005 -0.000000
                                -0.000019  0.000001  0.000058 -0.000003 -0.000149  0.000007  0.000404 -0.000019 -0.001168  0.000053
                                 0.007647 -0.000391 -0.021401  0.001057  0.033231 -0.001444 -0.038986  0.001810  0.028434 -0.001785
                                -0.028751  0.000442  0.018008 -0.002058 -0.000268 -0.000101  0.000488  0.000019 -0.000461 -0.000212
                                -0.001720 -0.016480 -0.049549 -0.086630 -0.070554 -0.000374  0.000473 -0.265968 -0.000440 -0.004442
                                -0.000039  0.020279  0.000631 -0.000017 -0.001780  0.000072

   5.2   0     0.1611   -4.4609 -0.000000  0.000000 -0.000000  0.000000 -0.000000  0.000000 -0.000000  0.000001 -0.000003  0.000009
                                -0.000032  0.000129 -0.000835  0.003058 -0.003421  0.002553 -0.004067  0.007887 -0.017456  0.044048
                                -0.157354  1.523524 -2.786967  4.163142 -4.449599  2.467404 -2.131753  3.114338 -1.957596  0.832496
                                -2.076869  1.591248 -0.000000  0.000000 -0.000001  0.000004 -0.000014  0.000049 -0.000145  0.000389
                                -0.000970  0.002493 -0.007218  0.040584 -0.205129  0.310852 -0.336361  0.260984 -0.213123  0.410699
                                -0.438697  0.077358 -0.205733  0.544521  0.000000  0.000000 -0.000001 -0.000000  0.000003  0.000000
                                -0.000010 -0.000001  0.000029  0.000004 -0.000078 -0.000010  0.000188  0.000027 -0.000595 -0.000075
                                 0.003412  0.000562 -0.007111 -0.001498  0.012152  0.001970 -0.009088 -0.002465  0.009174  0.002558
                                 0.001108 -0.000172 -0.024458  0.003406 -0.000746  0.000072  0.001618  0.000089 -0.001720  0.000148
                                 0.000693  0.009708  0.038895  0.043971  0.142925  0.001431 -0.000149 -0.265570  0.001487  0.011026
                                 0.000109 -0.023401 -0.000232  0.000023 -0.000376 -0.000096

                                   1 2py     1 2py     1 2py     1 2py     1 2py     1 2py     1 2py     1 2py     1 2py     1 2py
                                   1 2py     1 2py     1 2py     1 2py     1 2py     1 2py     1 2py     1 2py     1 2py     1 2py
                                   1 2py     1 2py     1 2py     1 2py     1 2py     1 2py     1 2py     1 2py     1 2py     1 2py
                                   1 2py     1 2py     1 3d1-    1 3d1-    1 3d1-    1 3d1-    1 3d1-    1 3d1-    1 3d1-    1 3d1-
                                   1 3d1-    1 3d1-    1 3d1-    1 3d1-    1 3d1-    1 3d1-    1 3d1-    1 3d1-    1 3d1-    1 3d1-
                                   1 3d1-    1 3d1-    1 3d1-    1 3d1-    1 4f1-    1 4f3-    1 4f1-    1 4f3-    1 4f1-    1 4f3-
                                   1 4f1-    1 4f3-    1 4f1-    1 4f3-    1 4f1-    1 4f3-    1 4f1-    1 4f3-    1 4f1-    1 4f3-
                                   1 4f1-    1 4f3-    1 4f1-    1 4f3-    1 4f1-    1 4f3-    1 4f1-    1 4f3-    1 4f1-    1 4f3-
                                   1 4f1-    1 4f3-    1 4f1-    1 4f3-    1 5g1-    1 5g3-    1 5g1-    1 5g3-    1 5g1-    1 5g3-
                                   2 2py     2 2py     2 2py     2 2py     2 2py     2 2py     2 2py     2 2py     2 3d1-    2 3d1-
                                   2 3d1-    2 3d1-    2 4f1-    2 4f3-    2 4f1-    2 4f3-

   1.3   2    -2.5230  -16.7988 -0.000000  0.000000 -0.000000  0.000000 -0.000000  0.000000 -0.000000  0.000000 -0.000000  0.000001
                                -0.000003  0.000012 -0.000077  0.000282 -0.000319  0.000263 -0.000529  0.001185 -0.004533  0.014621
                                -0.089965  0.741261 -1.046448  0.337433 -0.263500  0.440384  0.522891  0.044859  0.250836  0.031453
                                -0.001085  0.000629  0.000000 -0.000000  0.000000 -0.000000  0.000000 -0.000000  0.000001 -0.000002
                                 0.000005 -0.000011  0.000045 -0.000272  0.002131 -0.003400  0.003541 -0.002151 -0.000336 -0.002036
                                -0.003275 -0.004665 -0.001081 -0.000092  0.000000 -0.000000 -0.000000  0.000000  0.000000 -0.000000
                                -0.000000  0.000000  0.000001 -0.000000 -0.000003  0.000004  0.000006  0.000012 -0.000004  0.000040
                                -0.000215 -0.000535  0.000184 -0.000640  0.000764 -0.000683 -0.000426 -0.002257  0.001310 -0.001852
                                -0.001499 -0.001806 -0.000317 -0.000585  0.000274  0.000075 -0.000618 -0.000125  0.000135  0.000138
                                 0.000080  0.000743  0.002100  0.004036  0.001893  0.000013 -0.000022 -0.000017 -0.000347 -0.001580
                                -0.000019 -0.000322  0.000356 -0.000005  0.000436  0.000008

   2.3   2    -0.4996   -9.8319  0.000000 -0.000000  0.000000 -0.000000  0.000000 -0.000000  0.000000 -0.000000  0.000000 -0.000000
                                 0.000000 -0.000001  0.000006 -0.000023  0.000025 -0.000021  0.000040 -0.000086  0.000314 -0.000989
                                 0.006201 -0.057094  0.089042 -0.059114  0.054182 -0.050340 -0.016718 -0.046660  0.020394  0.009493
                                 0.021593 -0.001445  0.000000 -0.000000  0.000000 -0.000000  0.000001 -0.000003  0.000010 -0.000032
                                 0.000086 -0.000336  0.000362 -0.001531 -0.026024  0.046659 -0.046660  0.013883  0.106848 -0.014535
                                 0.174059  0.151371  0.049145  0.008043 -0.000000 -0.000000  0.000000  0.000000 -0.000000 -0.000000
                                 0.000001  0.000000 -0.000004 -0.000000  0.000005  0.000001 -0.000039 -0.000003  0.000042  0.000007
                                -0.000788 -0.000009  0.004552  0.000040 -0.003321 -0.000092  0.003710  0.000050  0.008275 -0.000156
                                 0.009872 -0.000032 -0.008526 -0.000170  0.005026 -0.000241 -0.009843  0.000352  0.012936 -0.000387
                                 0.007240  0.074900  0.240082  0.382584  0.325820  0.004042 -0.001913  0.043483 -0.005024 -0.023864
                                -0.000304 -0.032919  0.002872  0.000003  0.009320 -0.000023

   3.3   +    -0.4743  -10.8772 -0.000000  0.000000 -0.000000  0.000000 -0.000000  0.000000 -0.000000  0.000000 -0.000000  0.000000
                                -0.000000  0.000000 -0.000003  0.000009 -0.000011  0.000010 -0.000028  0.000068 -0.000342  0.001168
                                -0.008382  0.077337 -0.118000  0.060761 -0.050024  0.058890  0.056375  0.025090 -0.003362 -0.081671
                                -0.058341  0.003733  0.000000 -0.000000  0.000000 -0.000000  0.000001 -0.000005  0.000013 -0.000049
                                 0.000135 -0.000616  0.000363 -0.000960 -0.074551  0.131256 -0.138558  0.058915  0.231752  0.011967
                                 0.371101  0.321003  0.146685  0.021368 -0.000000  0.000000  0.000000 -0.000000 -0.000001  0.000000
                                 0.000004 -0.000000 -0.000011  0.000000  0.000038 -0.000001 -0.000055  0.000002  0.000269 -0.000010
                                -0.000965  0.000010 -0.002069  0.000044  0.001135  0.000181 -0.006980 -0.000007 -0.008493 -0.000091
                                -0.019102 -0.000433 -0.016587 -0.000288 -0.000564  0.001302  0.000495 -0.001520 -0.000445  0.002781
                                -0.004131 -0.043073 -0.139863 -0.219645 -0.204108 -0.002391  0.001088 -0.046798 -0.000958 -0.000152
                                -0.000017  0.010597  0.000879 -0.000010 -0.001744  0.000040

   4.3   0     0.0409   -4.1757 -0.000000  0.000000 -0.000000  0.000000 -0.000000  0.000000 -0.000000  0.000000 -0.000001  0.000003
                                -0.000010  0.000038 -0.000249  0.000912 -0.001019  0.000756 -0.001183  0.002267 -0.004646  0.011139
                                -0.031653  0.313138 -0.617449  1.144376 -1.253038  0.635441 -0.750616  0.901120 -0.620002  0.370047
                                -0.199714  1.199110  0.000000 -0.000000  0.000000 -0.000001  0.000004 -0.000012  0.000037 -0.000101
                                 0.000253 -0.000678  0.001816 -0.010092  0.042776 -0.062771  0.067648 -0.056996  0.074984 -0.095783
                                 0.142304  0.016782  0.057332 -0.070708  0.000000  0.000000 -0.000001 -0.000000  0.000005  0.000000
                                -0.000019 -0.000001  0.000058  0.000003 -0.000149 -0.000007  0.000404  0.000019 -0.001168 -0.000053
                                 0.007647  0.000391 -0.021401 -0.001058  0.033231  0.001445 -0.038986 -0.001811  0.028435  0.001787
                                -0.028751 -0.000442  0.018009  0.002060 -0.000268  0.000101  0.000488 -0.000019 -0.000461  0.000213
                                -0.001721 -0.016481 -0.049553 -0.086637 -0.070558 -0.000374  0.000473 -0.265968 -0.000440 -0.004442
                                -0.000039  0.020278  0.000631  0.000017 -0.001780 -0.000072

   5.3   0     0.1611   -4.4609 -0.000000  0.000000 -0.000000  0.000000 -0.000000  0.000000 -0.000000  0.000001 -0.000003  0.000009
                                -0.000032  0.000129 -0.000835  0.003058 -0.003421  0.002553 -0.004067  0.007887 -0.017456  0.044048
                                -0.157354  1.523529 -2.786976  4.163159 -4.449618  2.467413 -2.131765  3.114351 -1.957604  0.832507
                                -2.076877  1.591241 -0.000000  0.000000 -0.000001  0.000004 -0.000014  0.000049 -0.000145  0.000389
                                -0.000970  0.002493 -0.007219  0.040585 -0.205136  0.310863 -0.336373  0.260992 -0.213125  0.410712
                                -0.438705  0.077365 -0.205741  0.544529  0.000000 -0.000000 -0.000001  0.000000  0.000003 -0.000000
                                -0.000010  0.000001  0.000029 -0.000004 -0.000078  0.000010  0.000188 -0.000027 -0.000595  0.000075
                                 0.003412 -0.000563 -0.007110  0.001500  0.012150 -0.001973 -0.009086  0.002468  0.009172 -0.002562
                                 0.001109  0.000173 -0.024460 -0.003410 -0.000746 -0.000073  0.001618 -0.000089 -0.001720 -0.000149
                                 0.000693  0.009708  0.038898  0.043976  0.142928  0.001431 -0.000149 -0.265564  0.001487  0.011026
                                 0.000109 -0.023401 -0.000232 -0.000024 -0.000376  0.000096

                                   1 3d2-    1 3d2-    1 3d2-    1 3d2-    1 3d2-    1 3d2-    1 3d2-    1 3d2-    1 3d2-    1 3d2-
                                   1 3d2-    1 3d2-    1 3d2-    1 3d2-    1 3d2-    1 3d2-    1 3d2-    1 3d2-    1 3d2-    1 3d2-
                                   1 3d2-    1 3d2-    1 4f2-    1 4f2-    1 4f2-    1 4f2-    1 4f2-    1 4f2-    1 4f2-    1 4f2-
                                   1 4f2-    1 4f2-    1 4f2-    1 4f2-    1 4f2-    1 4f2-    1 4f2-    1 5g2-    1 5g4-    1 5g2-
                                   1 5g4-    1 5g2-    1 5g4-    2 3d2-    2 3d2-    2 3d2-    2 3d2-    2 4f2-    2 4f2-

   1.4   +    -0.5523  -11.3925  0.000000 -0.000000  0.000000 -0.000000  0.000002 -0.000005  0.000016 -0.000056  0.000155 -0.000691
                                 0.000447 -0.001299 -0.080162  0.141296 -0.148221  0.061231  0.254753  0.008627  0.409042  0.351635
                                 0.154714  0.017563 -0.000000  0.000000 -0.000001  0.000003 -0.000008  0.000023 -0.000045  0.000167
                                -0.000849  0.000722 -0.001556 -0.000393 -0.006329 -0.007841 -0.012701  0.002763  0.000001 -0.004298
                                -0.000001  0.006475  0.000002  0.000758  0.003095  0.000041  0.002358 -0.000519 -0.001521

   2.4   0     0.1905   -3.8825 -0.000000  0.000001 -0.000003  0.000014 -0.000054  0.000186 -0.000555  0.001480 -0.003683  0.009337
                                -0.027674  0.155928 -0.824346  1.257380 -1.358989  1.032360 -0.709553  1.561677 -1.481525  0.427697
                                -0.645275  1.319656 -0.000001  0.000005 -0.000021  0.000074 -0.000218  0.000578 -0.001500  0.004522
                                -0.028451  0.072834 -0.119513  0.130277 -0.113582  0.083715 -0.059722 -0.000100 -0.000000 -0.000154
                                 0.000000 -0.000422 -0.000000 -0.000371  0.012201  0.000096 -0.018970  0.001039 -0.003564

   3.4   0     0.5517   -4.9566 -0.000000  0.000000 -0.000002  0.000008 -0.000032  0.000109 -0.000326  0.000866 -0.002151  0.005393
                                -0.016336  0.092434 -0.508246  0.780956 -0.848651  0.637862 -0.380013  0.976530 -0.843166  0.362215
                                -0.451366  0.201842  0.000010 -0.000068  0.000315 -0.001120  0.003293 -0.008748  0.022625 -0.068780
                                 0.434574 -1.108242  1.851379 -2.042267  1.894095 -1.404650  1.357732 -0.004176  0.000000  0.009253
                                 0.000000 -0.008031  0.000000  0.012634 -0.007749  0.000179  0.132393 -0.005848  0.008975

 HOMO      6.1    -0.365494 =      -9.9456eV
 LUMO      7.1    -0.033593 =      -0.9141eV
 LUMO-HOMO         0.331901 =       9.0315eV

 No convergence



 **********************************************************************************************************************************
 DATASETS  * FILE   NREC   LENGTH (MB)   RECORD NAMES
              1      19       22.50       500      610      700      900      950      970     1000      129      960     1100
                                          VAR    BASINP    GEOM    SYMINP    ZMAT    AOBASIS   BASIS     P2S    ABASIS      S
                                         1400     1410     1420     1200     1210     1080     1600     1650     1700
                                           T        V       ECP      H0       H01     AOSYM     SMH    MOLCAS    OPER

              2       5        9.37       700     1000      520     2100     2101
                                         GEOM     BASIS   MCVARS     RHF      RHF

 PROGRAMS   *        TOTAL       RHF       RHF       INT
 CPU TIMES  *       217.20     34.50     11.39    170.86
 REAL TIME  *       237.00 SEC
 DISK USED  *        11.07 GB
 SF USED    *         0.24 MB
 GA USED    *         0.00 MB       (max)       0.00 MB       (current)
 **********************************************************************************************************************************
   -->
   <time start="13:03:13" end="13:03:50" cpu="34.56" system="2.7" real="37.38"/>
   <storage units="megabyte" memory="8193.84" sf="0.24" df="708.07" eaf="10365.18" ga="0.0"/>
  </jobstep><!--
 SETTING SCF(5)         =      -119.67148251  AU
  --><jobstep command="RCCSD(T)" commandset="CCSD">
   <!--


 PROGRAM * CCSD (Restricted open-shell coupled cluster)     Authors: C. Hampel, H.-J. Werner, 1991, M. Deegan, P.J. Knowles, 1992


 Convergence thresholds:  THRVAR = 1.00D-08  THRDEN = 1.00D-06

 CCSD(T)     terms to be evaluated (factor= 1.000)


 Number of closed-shell orbitals:  10 (   6   2   2   0 )
 Number of active  orbitals:        3 (   0   1   1   1 )
 Number of external orbitals:     433 ( 179 103 103  48 )

 Memory could be reduced to 441.23 Mwords without degradation in triples

 Number of N-1 electron functions:              23
 Number of N-2 electron functions:             253
 Number of singly external CSFs:              3237
 Number of doubly external CSFs:           9426087
 Total number of CSFs:                     9429324

 Molecular orbitals read from record     2101.2  Type=RHF/CANONICAL (state 1.1)

 ?Error: RHF not converged. This error exit can be avoided using the IGNORE_ERROR option on the ORBITAL directive
   --><error/><!--
  --></jobstep><!--
  -->
  <input>
  <!--
 --></job><!--
--></molpro>
