/global/cscratch1/sd/bkincaid/cutoffs/Mo/250-610/runs/scf_560

     Program PWSCF v.6.4.1 starts on 17Jan2022 at 15:38:24 

     This program is part of the open-source Quantum ESPRESSO suite
     for quantum simulation of materials; please cite
         "P. Giannozzi et al., J. Phys.:Condens. Matter 21 395502 (2009);
         "P. Giannozzi et al., J. Phys.:Condens. Matter 29 465901 (2017);
          URL http://www.quantum-espresso.org", 
     in publications or presentations arising from this work. More details at
     http://www.quantum-espresso.org/quote

     Parallel version (MPI & OpenMP), running on      32 processor cores
     Number of MPI processes:                32
     Threads/MPI process:                     1

     MPI processes distributed on     1 nodes
     R & G space division:  proc/nbgrp/npool/nimage =      32
     Reading input from scf_560.in

     Current dimensions of program PWSCF are:
     Max number of different atomic species (ntypx) = 10
     Max number of k-points (npk) =  40000
     Max angular momentum in pseudopotentials (lmaxx) =  3

     IMPORTANT: XC functional enforced from input :
     Exchange-correlation      = PBE ( 1  4  3  4 0 0)
     Any further DFT definition will be discarded
     Please, verify this is what you really want


     gamma-point specific algorithms are used

     Subspace diagonalization in iterative solution of the eigenvalue problem:
     one sub-group per band group will be used
     scalapack distributed-memory algorithm (size of sub-group:  4*  4 procs)

     Message from routine setup:
     DEPRECATED: symmetry with ibrav=0, use correct ibrav instead
 
     Parallelization info
     --------------------
     sticks:   dense  smooth     PW     G-vecs:    dense   smooth      PW
     Min        2862    2862    714               652382   652382   81546
     Max        2864    2864    716               652392   652392   81565
     Sum       91625   91625  22901             20876405 20876405 2609847
 


     bravais-lattice index     =            0
     lattice parameter (alat)  =      22.6767  a.u.
     unit-cell volume          =   11661.1222 (a.u.)^3
     number of atoms/cell      =            1
     number of atomic types    =            1
     number of electrons       =        14.00 (up:  10.00, down:   4.00)
     number of Kohn-Sham states=           12
     kinetic-energy cutoff     =     560.0000  Ry
     charge density cutoff     =    2240.0000  Ry
     convergence threshold     =      1.0E-06
     mixing beta               =       0.7000
     number of iterations used =            8  plain     mixing
     Exchange-correlation      = PBE ( 1  4  3  4 0 0)

     celldm(1)=  22.676714  celldm(2)=   0.000000  celldm(3)=   0.000000
     celldm(4)=   0.000000  celldm(5)=   0.000000  celldm(6)=   0.000000

     crystal axes: (cart. coord. in units of alat)
               a(1) = (   1.000000   0.000000   0.000000 )  
               a(2) = (   0.000000   1.000000   0.000000 )  
               a(3) = (   0.000000   0.000000   1.000000 )  

     reciprocal axes: (cart. coord. in units 2 pi/alat)
               b(1) = (  1.000000  0.000000  0.000000 )  
               b(2) = (  0.000000  1.000000  0.000000 )  
               b(3) = (  0.000000  0.000000  1.000000 )  


     PseudoPot. # 1 for Mo read from file:
     ./Mo.upf
     MD5 check sum: 8a384037cce4b47caa47c893dc3d0248
     Pseudo is Norm-conserving, Zval = 14.0
     Generated by new atomic code, or converted to UPF format
     Using radial grid of 1172 points,  2 beta functions with: 
                l(1) =   1
                l(2) =   2

     atomic species   valence    mass     pseudopotential
        Mo            14.00    95.94000     Mo( 1.00)

     Starting magnetic structure 
     atomic species   magnetization
        Mo           0.500

     48 Sym. Ops., with inversion, found


                                    s                        frac. trans.

      isym =  1     identity                                     

 cryst.   s( 1) = (     1          0          0      )
                  (     0          1          0      )
                  (     0          0          1      )

 cart.    s( 1) = (  1.0000000  0.0000000  0.0000000 )
                  (  0.0000000  1.0000000  0.0000000 )
                  (  0.0000000  0.0000000  1.0000000 )


      isym =  2     180 deg rotation - cart. axis [0,0,1]        

 cryst.   s( 2) = (    -1          0          0      )
                  (     0         -1          0      )
                  (     0          0          1      )

 cart.    s( 2) = ( -1.0000000  0.0000000  0.0000000 )
                  (  0.0000000 -1.0000000  0.0000000 )
                  (  0.0000000  0.0000000  1.0000000 )


      isym =  3     180 deg rotation - cart. axis [0,1,0]        

 cryst.   s( 3) = (    -1          0          0      )
                  (     0          1          0      )
                  (     0          0         -1      )

 cart.    s( 3) = ( -1.0000000  0.0000000  0.0000000 )
                  (  0.0000000  1.0000000  0.0000000 )
                  (  0.0000000  0.0000000 -1.0000000 )


      isym =  4     180 deg rotation - cart. axis [1,0,0]        

 cryst.   s( 4) = (     1          0          0      )
                  (     0         -1          0      )
                  (     0          0         -1      )

 cart.    s( 4) = (  1.0000000  0.0000000  0.0000000 )
                  (  0.0000000 -1.0000000  0.0000000 )
                  (  0.0000000  0.0000000 -1.0000000 )


      isym =  5     180 deg rotation - cart. axis [1,1,0]        

 cryst.   s( 5) = (     0          1          0      )
                  (     1          0          0      )
                  (     0          0         -1      )

 cart.    s( 5) = (  0.0000000  1.0000000  0.0000000 )
                  (  1.0000000  0.0000000  0.0000000 )
                  (  0.0000000  0.0000000 -1.0000000 )


      isym =  6     180 deg rotation - cart. axis [1,-1,0]       

 cryst.   s( 6) = (     0         -1          0      )
                  (    -1          0          0      )
                  (     0          0         -1      )

 cart.    s( 6) = (  0.0000000 -1.0000000  0.0000000 )
                  ( -1.0000000  0.0000000  0.0000000 )
                  (  0.0000000  0.0000000 -1.0000000 )


      isym =  7      90 deg rotation - cart. axis [0,0,-1]       

 cryst.   s( 7) = (     0         -1          0      )
                  (     1          0          0      )
                  (     0          0          1      )

 cart.    s( 7) = (  0.0000000  1.0000000  0.0000000 )
                  ( -1.0000000  0.0000000  0.0000000 )
                  (  0.0000000  0.0000000  1.0000000 )


      isym =  8      90 deg rotation - cart. axis [0,0,1]        

 cryst.   s( 8) = (     0          1          0      )
                  (    -1          0          0      )
                  (     0          0          1      )

 cart.    s( 8) = (  0.0000000 -1.0000000  0.0000000 )
                  (  1.0000000  0.0000000  0.0000000 )
                  (  0.0000000  0.0000000  1.0000000 )


      isym =  9     180 deg rotation - cart. axis [1,0,1]        

 cryst.   s( 9) = (     0          0          1      )
                  (     0         -1          0      )
                  (     1          0          0      )

 cart.    s( 9) = (  0.0000000  0.0000000  1.0000000 )
                  (  0.0000000 -1.0000000  0.0000000 )
                  (  1.0000000  0.0000000  0.0000000 )


      isym = 10     180 deg rotation - cart. axis [-1,0,1]       

 cryst.   s(10) = (     0          0         -1      )
                  (     0         -1          0      )
                  (    -1          0          0      )

 cart.    s(10) = (  0.0000000  0.0000000 -1.0000000 )
                  (  0.0000000 -1.0000000  0.0000000 )
                  ( -1.0000000  0.0000000  0.0000000 )


      isym = 11      90 deg rotation - cart. axis [0,1,0]        

 cryst.   s(11) = (     0          0         -1      )
                  (     0          1          0      )
                  (     1          0          0      )

 cart.    s(11) = (  0.0000000  0.0000000  1.0000000 )
                  (  0.0000000  1.0000000  0.0000000 )
                  ( -1.0000000  0.0000000  0.0000000 )


      isym = 12      90 deg rotation - cart. axis [0,-1,0]       

 cryst.   s(12) = (     0          0          1      )
                  (     0          1          0      )
                  (    -1          0          0      )

 cart.    s(12) = (  0.0000000  0.0000000 -1.0000000 )
                  (  0.0000000  1.0000000  0.0000000 )
                  (  1.0000000  0.0000000  0.0000000 )


      isym = 13     180 deg rotation - cart. axis [0,1,1]        

 cryst.   s(13) = (    -1          0          0      )
                  (     0          0          1      )
                  (     0          1          0      )

 cart.    s(13) = ( -1.0000000  0.0000000  0.0000000 )
                  (  0.0000000  0.0000000  1.0000000 )
                  (  0.0000000  1.0000000  0.0000000 )


      isym = 14     180 deg rotation - cart. axis [0,1,-1]       

 cryst.   s(14) = (    -1          0          0      )
                  (     0          0         -1      )
                  (     0         -1          0      )

 cart.    s(14) = ( -1.0000000  0.0000000  0.0000000 )
                  (  0.0000000  0.0000000 -1.0000000 )
                  (  0.0000000 -1.0000000  0.0000000 )


      isym = 15      90 deg rotation - cart. axis [-1,0,0]       

 cryst.   s(15) = (     1          0          0      )
                  (     0          0         -1      )
                  (     0          1          0      )

 cart.    s(15) = (  1.0000000  0.0000000  0.0000000 )
                  (  0.0000000  0.0000000  1.0000000 )
                  (  0.0000000 -1.0000000  0.0000000 )


      isym = 16      90 deg rotation - cart. axis [1,0,0]        

 cryst.   s(16) = (     1          0          0      )
                  (     0          0          1      )
                  (     0         -1          0      )

 cart.    s(16) = (  1.0000000  0.0000000  0.0000000 )
                  (  0.0000000  0.0000000 -1.0000000 )
                  (  0.0000000  1.0000000  0.0000000 )


      isym = 17     120 deg rotation - cart. axis [-1,-1,-1]     

 cryst.   s(17) = (     0          0          1      )
                  (     1          0          0      )
                  (     0          1          0      )

 cart.    s(17) = (  0.0000000  1.0000000  0.0000000 )
                  (  0.0000000  0.0000000  1.0000000 )
                  (  1.0000000  0.0000000  0.0000000 )


      isym = 18     120 deg rotation - cart. axis [-1,1,1]       

 cryst.   s(18) = (     0          0         -1      )
                  (    -1          0          0      )
                  (     0          1          0      )

 cart.    s(18) = (  0.0000000 -1.0000000  0.0000000 )
                  (  0.0000000  0.0000000  1.0000000 )
                  ( -1.0000000  0.0000000  0.0000000 )


      isym = 19     120 deg rotation - cart. axis [1,1,-1]       

 cryst.   s(19) = (     0          0         -1      )
                  (     1          0          0      )
                  (     0         -1          0      )

 cart.    s(19) = (  0.0000000  1.0000000  0.0000000 )
                  (  0.0000000  0.0000000 -1.0000000 )
                  ( -1.0000000  0.0000000  0.0000000 )


      isym = 20     120 deg rotation - cart. axis [1,-1,1]       

 cryst.   s(20) = (     0          0          1      )
                  (    -1          0          0      )
                  (     0         -1          0      )

 cart.    s(20) = (  0.0000000 -1.0000000  0.0000000 )
                  (  0.0000000  0.0000000 -1.0000000 )
                  (  1.0000000  0.0000000  0.0000000 )


      isym = 21     120 deg rotation - cart. axis [1,1,1]        

 cryst.   s(21) = (     0          1          0      )
                  (     0          0          1      )
                  (     1          0          0      )

 cart.    s(21) = (  0.0000000  0.0000000  1.0000000 )
                  (  1.0000000  0.0000000  0.0000000 )
                  (  0.0000000  1.0000000  0.0000000 )


      isym = 22     120 deg rotation - cart. axis [-1,1,-1]      

 cryst.   s(22) = (     0         -1          0      )
                  (     0          0         -1      )
                  (     1          0          0      )

 cart.    s(22) = (  0.0000000  0.0000000  1.0000000 )
                  ( -1.0000000  0.0000000  0.0000000 )
                  (  0.0000000 -1.0000000  0.0000000 )


      isym = 23     120 deg rotation - cart. axis [1,-1,-1]      

 cryst.   s(23) = (     0         -1          0      )
                  (     0          0          1      )
                  (    -1          0          0      )

 cart.    s(23) = (  0.0000000  0.0000000 -1.0000000 )
                  ( -1.0000000  0.0000000  0.0000000 )
                  (  0.0000000  1.0000000  0.0000000 )


      isym = 24     120 deg rotation - cart. axis [-1,-1,1]      

 cryst.   s(24) = (     0          1          0      )
                  (     0          0         -1      )
                  (    -1          0          0      )

 cart.    s(24) = (  0.0000000  0.0000000 -1.0000000 )
                  (  1.0000000  0.0000000  0.0000000 )
                  (  0.0000000 -1.0000000  0.0000000 )


      isym = 25     inversion                                    

 cryst.   s(25) = (    -1          0          0      )
                  (     0         -1          0      )
                  (     0          0         -1      )

 cart.    s(25) = ( -1.0000000  0.0000000  0.0000000 )
                  (  0.0000000 -1.0000000  0.0000000 )
                  (  0.0000000  0.0000000 -1.0000000 )


      isym = 26     inv. 180 deg rotation - cart. axis [0,0,1]   

 cryst.   s(26) = (     1          0          0      )
                  (     0          1          0      )
                  (     0          0         -1      )

 cart.    s(26) = (  1.0000000  0.0000000  0.0000000 )
                  (  0.0000000  1.0000000  0.0000000 )
                  (  0.0000000  0.0000000 -1.0000000 )


      isym = 27     inv. 180 deg rotation - cart. axis [0,1,0]   

 cryst.   s(27) = (     1          0          0      )
                  (     0         -1          0      )
                  (     0          0          1      )

 cart.    s(27) = (  1.0000000  0.0000000  0.0000000 )
                  (  0.0000000 -1.0000000  0.0000000 )
                  (  0.0000000  0.0000000  1.0000000 )


      isym = 28     inv. 180 deg rotation - cart. axis [1,0,0]   

 cryst.   s(28) = (    -1          0          0      )
                  (     0          1          0      )
                  (     0          0          1      )

 cart.    s(28) = ( -1.0000000  0.0000000  0.0000000 )
                  (  0.0000000  1.0000000  0.0000000 )
                  (  0.0000000  0.0000000  1.0000000 )


      isym = 29     inv. 180 deg rotation - cart. axis [1,1,0]   

 cryst.   s(29) = (     0         -1          0      )
                  (    -1          0          0      )
                  (     0          0          1      )

 cart.    s(29) = (  0.0000000 -1.0000000  0.0000000 )
                  ( -1.0000000  0.0000000  0.0000000 )
                  (  0.0000000  0.0000000  1.0000000 )


      isym = 30     inv. 180 deg rotation - cart. axis [1,-1,0]  

 cryst.   s(30) = (     0          1          0      )
                  (     1          0          0      )
                  (     0          0          1      )

 cart.    s(30) = (  0.0000000  1.0000000  0.0000000 )
                  (  1.0000000  0.0000000  0.0000000 )
                  (  0.0000000  0.0000000  1.0000000 )


      isym = 31     inv.  90 deg rotation - cart. axis [0,0,-1]  

 cryst.   s(31) = (     0          1          0      )
                  (    -1          0          0      )
                  (     0          0         -1      )

 cart.    s(31) = (  0.0000000 -1.0000000  0.0000000 )
                  (  1.0000000  0.0000000  0.0000000 )
                  (  0.0000000  0.0000000 -1.0000000 )


      isym = 32     inv.  90 deg rotation - cart. axis [0,0,1]   

 cryst.   s(32) = (     0         -1          0      )
                  (     1          0          0      )
                  (     0          0         -1      )

 cart.    s(32) = (  0.0000000  1.0000000  0.0000000 )
                  ( -1.0000000  0.0000000  0.0000000 )
                  (  0.0000000  0.0000000 -1.0000000 )


      isym = 33     inv. 180 deg rotation - cart. axis [1,0,1]   

 cryst.   s(33) = (     0          0         -1      )
                  (     0          1          0      )
                  (    -1          0          0      )

 cart.    s(33) = (  0.0000000  0.0000000 -1.0000000 )
                  (  0.0000000  1.0000000  0.0000000 )
                  ( -1.0000000  0.0000000  0.0000000 )


      isym = 34     inv. 180 deg rotation - cart. axis [-1,0,1]  

 cryst.   s(34) = (     0          0          1      )
                  (     0          1          0      )
                  (     1          0          0      )

 cart.    s(34) = (  0.0000000  0.0000000  1.0000000 )
                  (  0.0000000  1.0000000  0.0000000 )
                  (  1.0000000  0.0000000  0.0000000 )


      isym = 35     inv.  90 deg rotation - cart. axis [0,1,0]   

 cryst.   s(35) = (     0          0          1      )
                  (     0         -1          0      )
                  (    -1          0          0      )

 cart.    s(35) = (  0.0000000  0.0000000 -1.0000000 )
                  (  0.0000000 -1.0000000  0.0000000 )
                  (  1.0000000  0.0000000  0.0000000 )


      isym = 36     inv.  90 deg rotation - cart. axis [0,-1,0]  

 cryst.   s(36) = (     0          0         -1      )
                  (     0         -1          0      )
                  (     1          0          0      )

 cart.    s(36) = (  0.0000000  0.0000000  1.0000000 )
                  (  0.0000000 -1.0000000  0.0000000 )
                  ( -1.0000000  0.0000000  0.0000000 )


      isym = 37     inv. 180 deg rotation - cart. axis [0,1,1]   

 cryst.   s(37) = (     1          0          0      )
                  (     0          0         -1      )
                  (     0         -1          0      )

 cart.    s(37) = (  1.0000000  0.0000000  0.0000000 )
                  (  0.0000000  0.0000000 -1.0000000 )
                  (  0.0000000 -1.0000000  0.0000000 )


      isym = 38     inv. 180 deg rotation - cart. axis [0,1,-1]  

 cryst.   s(38) = (     1          0          0      )
                  (     0          0          1      )
                  (     0          1          0      )

 cart.    s(38) = (  1.0000000  0.0000000  0.0000000 )
                  (  0.0000000  0.0000000  1.0000000 )
                  (  0.0000000  1.0000000  0.0000000 )


      isym = 39     inv.  90 deg rotation - cart. axis [-1,0,0]  

 cryst.   s(39) = (    -1          0          0      )
                  (     0          0          1      )
                  (     0         -1          0      )

 cart.    s(39) = ( -1.0000000  0.0000000  0.0000000 )
                  (  0.0000000  0.0000000 -1.0000000 )
                  (  0.0000000  1.0000000  0.0000000 )


      isym = 40     inv.  90 deg rotation - cart. axis [1,0,0]   

 cryst.   s(40) = (    -1          0          0      )
                  (     0          0         -1      )
                  (     0          1          0      )

 cart.    s(40) = ( -1.0000000  0.0000000  0.0000000 )
                  (  0.0000000  0.0000000  1.0000000 )
                  (  0.0000000 -1.0000000  0.0000000 )


      isym = 41     inv. 120 deg rotation - cart. axis [-1,-1,-1]

 cryst.   s(41) = (     0          0         -1      )
                  (    -1          0          0      )
                  (     0         -1          0      )

 cart.    s(41) = (  0.0000000 -1.0000000  0.0000000 )
                  (  0.0000000  0.0000000 -1.0000000 )
                  ( -1.0000000  0.0000000  0.0000000 )


      isym = 42     inv. 120 deg rotation - cart. axis [-1,1,1]  

 cryst.   s(42) = (     0          0          1      )
                  (     1          0          0      )
                  (     0         -1          0      )

 cart.    s(42) = (  0.0000000  1.0000000  0.0000000 )
                  (  0.0000000  0.0000000 -1.0000000 )
                  (  1.0000000  0.0000000  0.0000000 )


      isym = 43     inv. 120 deg rotation - cart. axis [1,1,-1]  

 cryst.   s(43) = (     0          0          1      )
                  (    -1          0          0      )
                  (     0          1          0      )

 cart.    s(43) = (  0.0000000 -1.0000000  0.0000000 )
                  (  0.0000000  0.0000000  1.0000000 )
                  (  1.0000000  0.0000000  0.0000000 )


      isym = 44     inv. 120 deg rotation - cart. axis [1,-1,1]  

 cryst.   s(44) = (     0          0         -1      )
                  (     1          0          0      )
                  (     0          1          0      )

 cart.    s(44) = (  0.0000000  1.0000000  0.0000000 )
                  (  0.0000000  0.0000000  1.0000000 )
                  ( -1.0000000  0.0000000  0.0000000 )


      isym = 45     inv. 120 deg rotation - cart. axis [1,1,1]   

 cryst.   s(45) = (     0         -1          0      )
                  (     0          0         -1      )
                  (    -1          0          0      )

 cart.    s(45) = (  0.0000000  0.0000000 -1.0000000 )
                  ( -1.0000000  0.0000000  0.0000000 )
                  (  0.0000000 -1.0000000  0.0000000 )


      isym = 46     inv. 120 deg rotation - cart. axis [-1,1,-1] 

 cryst.   s(46) = (     0          1          0      )
                  (     0          0          1      )
                  (    -1          0          0      )

 cart.    s(46) = (  0.0000000  0.0000000 -1.0000000 )
                  (  1.0000000  0.0000000  0.0000000 )
                  (  0.0000000  1.0000000  0.0000000 )


      isym = 47     inv. 120 deg rotation - cart. axis [1,-1,-1] 

 cryst.   s(47) = (     0          1          0      )
                  (     0          0         -1      )
                  (     1          0          0      )

 cart.    s(47) = (  0.0000000  0.0000000  1.0000000 )
                  (  1.0000000  0.0000000  0.0000000 )
                  (  0.0000000 -1.0000000  0.0000000 )


      isym = 48     inv. 120 deg rotation - cart. axis [-1,-1,1] 

 cryst.   s(48) = (     0         -1          0      )
                  (     0          0          1      )
                  (     1          0          0      )

 cart.    s(48) = (  0.0000000  0.0000000  1.0000000 )
                  ( -1.0000000  0.0000000  0.0000000 )
                  (  0.0000000  1.0000000  0.0000000 )


   Cartesian axes

     site n.     atom                  positions (alat units)
         1           Mo  tau(   1) = (   0.5000000   0.5000000   0.5000000  )

   Crystallographic axes

     site n.     atom                  positions (cryst. coord.)
         1           Mo  tau(   1) = (  0.5000000  0.5000000  0.5000000  )

     number of k points=     1
                       cart. coord. in units 2pi/alat
        k(    1) = (   0.0000000   0.0000000   0.0000000), wk =   1.0000000

                       cryst. coord.
        k(    1) = (   0.0000000   0.0000000   0.0000000), wk =   1.0000000

     Dense  grid: 10438203 G-vectors     FFT dimensions: ( 360, 360, 360)

     Dynamical RAM for                 wfc:       7.47 MB

     Dynamical RAM for     wfc (w. buffer):      22.40 MB

     Dynamical RAM for           str. fact:       4.98 MB

     Dynamical RAM for           local pot:       0.00 MB

     Dynamical RAM for          nlocal pot:       4.98 MB

     Dynamical RAM for                qrad:       1.96 MB

     Dynamical RAM for          rho,v,vnew:     101.06 MB

     Dynamical RAM for               rhoin:      33.69 MB

     Dynamical RAM for            rho*nmix:     159.28 MB

     Dynamical RAM for           G-vectors:      21.15 MB

     Dynamical RAM for          h,s,v(r/c):       0.00 MB

     Dynamical RAM for          <psi|beta>:       0.00 MB

     Dynamical RAM for                 psi:      29.86 MB

     Dynamical RAM for                hpsi:      29.86 MB

     Dynamical RAM for      wfcinit/wfcrot:      14.94 MB

     Estimated static dynamical RAM per process >     430.62 MB

     Estimated max dynamical RAM per process >     490.36 MB

     Estimated total dynamical RAM >      15.32 GB
     Generating pointlists ...
     new r_m :   0.4125 (alat units)  9.3541 (a.u.) for type    1

     Initial potential from superposition of free atoms

     starting charge   11.99998, renormalised to   14.00000

     negative rho (up, down):  4.064E-03 0.000E+00
     Starting wfcs are    9 randomized atomic wfcs +    3 random wfcs

     total cpu time spent up to now is       14.6 secs

     Self-consistent Calculation

     iteration #  1     ecut=   560.00 Ry     beta= 0.70
     Davidson diagonalization with overlap
     ethr =  1.00E-02,  avg # of iterations =  9.0

     negative rho (up, down):  0.000E+00 4.215E-01

     total cpu time spent up to now is       37.3 secs

     total energy              =    -126.87336286 Ry
     Harris-Foulkes estimate   =    -138.33167842 Ry
     estimated scf accuracy    <      14.88286978 Ry

     total magnetization       =     6.00 Bohr mag/cell
     absolute magnetization    =     6.01 Bohr mag/cell

     iteration #  2     ecut=   560.00 Ry     beta= 0.70
     Davidson diagonalization with overlap
     ethr =  1.00E-02,  avg # of iterations =  7.5

     negative rho (up, down):  0.000E+00 4.136E-01

     total cpu time spent up to now is       56.6 secs

     total energy              =    -136.39126867 Ry
     Harris-Foulkes estimate   =    -141.42338392 Ry
     estimated scf accuracy    <       8.65946658 Ry

     total magnetization       =     6.00 Bohr mag/cell
     absolute magnetization    =     6.00 Bohr mag/cell

     iteration #  3     ecut=   560.00 Ry     beta= 0.70
     Davidson diagonalization with overlap
     ethr =  1.00E-02,  avg # of iterations =  2.0

     negative rho (up, down):  0.000E+00 4.140E-01

     total cpu time spent up to now is       69.6 secs

     total energy              =    -136.64675082 Ry
     Harris-Foulkes estimate   =    -136.96464536 Ry
     estimated scf accuracy    <       1.59813134 Ry

     total magnetization       =     6.00 Bohr mag/cell
     absolute magnetization    =     6.00 Bohr mag/cell

     iteration #  4     ecut=   560.00 Ry     beta= 0.70
     Davidson diagonalization with overlap
     ethr =  1.00E-02,  avg # of iterations =  1.0

     negative rho (up, down):  9.942E-08 6.160E-01

     total cpu time spent up to now is       80.8 secs

     total energy              =    -135.76922955 Ry
     Harris-Foulkes estimate   =    -136.65656384 Ry
     estimated scf accuracy    <       1.13483052 Ry

     total magnetization       =     6.00 Bohr mag/cell
     absolute magnetization    =     6.00 Bohr mag/cell

     iteration #  5     ecut=   560.00 Ry     beta= 0.70
     Davidson diagonalization with overlap
     ethr =  8.11E-03,  avg # of iterations =  2.5

     negative rho (up, down):  1.026E-07 6.129E-01

     total cpu time spent up to now is       93.5 secs

     total energy              =    -136.07850126 Ry
     Harris-Foulkes estimate   =    -136.07717865 Ry
     estimated scf accuracy    <       0.13209930 Ry

     total magnetization       =     6.00 Bohr mag/cell
     absolute magnetization    =     6.00 Bohr mag/cell

     iteration #  6     ecut=   560.00 Ry     beta= 0.70
     Davidson diagonalization with overlap
     ethr =  9.44E-04,  avg # of iterations =  5.0

     negative rho (up, down):  2.394E-02 6.904E-01

     total cpu time spent up to now is      108.4 secs

     total energy              =    -136.12380594 Ry
     Harris-Foulkes estimate   =    -136.09103432 Ry
     estimated scf accuracy    <       0.15294667 Ry

     total magnetization       =     6.00 Bohr mag/cell
     absolute magnetization    =     6.00 Bohr mag/cell

     iteration #  7     ecut=   560.00 Ry     beta= 0.70
     Davidson diagonalization with overlap
     ethr =  9.44E-04,  avg # of iterations =  2.5

     negative rho (up, down):  5.171E-02 4.128E-01

     total cpu time spent up to now is      120.6 secs

     total energy              =    -136.05754797 Ry
     Harris-Foulkes estimate   =    -136.13075406 Ry
     estimated scf accuracy    <       0.29899631 Ry

     total magnetization       =     6.00 Bohr mag/cell
     absolute magnetization    =     6.00 Bohr mag/cell

     iteration #  8     ecut=   560.00 Ry     beta= 0.70
     Davidson diagonalization with overlap
     ethr =  9.44E-04,  avg # of iterations =  1.5

     negative rho (up, down):  3.575E-02 4.907E-01

     total cpu time spent up to now is      132.4 secs

     total energy              =    -135.98536444 Ry
     Harris-Foulkes estimate   =    -136.06837490 Ry
     estimated scf accuracy    <       0.12366942 Ry

     total magnetization       =     6.00 Bohr mag/cell
     absolute magnetization    =     6.00 Bohr mag/cell

     iteration #  9     ecut=   560.00 Ry     beta= 0.70
     Davidson diagonalization with overlap
     ethr =  8.83E-04,  avg # of iterations =  3.0

     negative rho (up, down):  2.557E-02 4.933E-01

     total cpu time spent up to now is      146.3 secs

     total energy              =    -136.01489614 Ry
     Harris-Foulkes estimate   =    -136.01891087 Ry
     estimated scf accuracy    <       0.04771963 Ry

     total magnetization       =     6.00 Bohr mag/cell
     absolute magnetization    =     6.00 Bohr mag/cell

     iteration # 10     ecut=   560.00 Ry     beta= 0.70
     Davidson diagonalization with overlap
     ethr =  3.41E-04,  avg # of iterations =  5.5

     negative rho (up, down):  6.161E-02 6.427E-01

     total cpu time spent up to now is      159.7 secs

     total energy              =    -136.04135836 Ry
     Harris-Foulkes estimate   =    -136.01617246 Ry
     estimated scf accuracy    <       0.07282536 Ry

     total magnetization       =     6.00 Bohr mag/cell
     absolute magnetization    =     6.00 Bohr mag/cell

     iteration # 11     ecut=   560.00 Ry     beta= 0.70
     Davidson diagonalization with overlap
     ethr =  3.41E-04,  avg # of iterations =  4.5

     negative rho (up, down):  8.934E-02 6.221E-01

     total cpu time spent up to now is      174.7 secs

     total energy              =    -136.09769054 Ry
     Harris-Foulkes estimate   =    -136.07875212 Ry
     estimated scf accuracy    <       0.41150267 Ry

     total magnetization       =     6.00 Bohr mag/cell
     absolute magnetization    =     6.00 Bohr mag/cell

     iteration # 12     ecut=   560.00 Ry     beta= 0.70
     Davidson diagonalization with overlap
     ethr =  3.41E-04,  avg # of iterations =  1.0

     negative rho (up, down):  5.209E-02 6.864E-01

     total cpu time spent up to now is      186.2 secs

     total energy              =    -136.06247130 Ry
     Harris-Foulkes estimate   =    -136.09819783 Ry
     estimated scf accuracy    <       0.47703411 Ry

     total magnetization       =     6.00 Bohr mag/cell
     absolute magnetization    =     6.00 Bohr mag/cell

     iteration # 13     ecut=   560.00 Ry     beta= 0.70
     Davidson diagonalization with overlap
     ethr =  3.41E-04,  avg # of iterations =  1.0

     negative rho (up, down):  3.074E-02 2.627E-01

     total cpu time spent up to now is      197.8 secs

     total energy              =    -136.06469528 Ry
     Harris-Foulkes estimate   =    -136.06340824 Ry
     estimated scf accuracy    <       0.37805075 Ry

     total magnetization       =     6.00 Bohr mag/cell
     absolute magnetization    =     6.00 Bohr mag/cell

     iteration # 14     ecut=   560.00 Ry     beta= 0.70
     Davidson diagonalization with overlap
     ethr =  3.41E-04,  avg # of iterations =  1.0

     negative rho (up, down):  4.316E-03 4.791E-01

     total cpu time spent up to now is      209.3 secs

     total energy              =    -135.98738748 Ry
     Harris-Foulkes estimate   =    -136.06502320 Ry
     estimated scf accuracy    <       0.34251777 Ry

     total magnetization       =     6.00 Bohr mag/cell
     absolute magnetization    =     6.00 Bohr mag/cell

     iteration # 15     ecut=   560.00 Ry     beta= 0.70
     Davidson diagonalization with overlap
     ethr =  3.41E-04,  avg # of iterations =  8.0

     negative rho (up, down):  9.671E-04 2.913E-01

     total cpu time spent up to now is      226.0 secs

     total energy              =    -136.04718165 Ry
     Harris-Foulkes estimate   =    -136.04402520 Ry
     estimated scf accuracy    <       0.00851656 Ry

     total magnetization       =     6.00 Bohr mag/cell
     absolute magnetization    =     6.00 Bohr mag/cell

     iteration # 16     ecut=   560.00 Ry     beta= 0.70
     Davidson diagonalization with overlap
     ethr =  6.08E-05,  avg # of iterations =  3.5

     negative rho (up, down):  2.482E-03 5.264E-01

     total cpu time spent up to now is      240.1 secs

     total energy              =    -136.04384540 Ry
     Harris-Foulkes estimate   =    -136.04789683 Ry
     estimated scf accuracy    <       0.01458136 Ry

     total magnetization       =     6.00 Bohr mag/cell
     absolute magnetization    =     6.00 Bohr mag/cell

     iteration # 17     ecut=   560.00 Ry     beta= 0.70
     Davidson diagonalization with overlap
     ethr =  6.08E-05,  avg # of iterations =  2.0

     negative rho (up, down):  8.099E-04 5.508E-01

     total cpu time spent up to now is      252.3 secs

     total energy              =    -136.04226664 Ry
     Harris-Foulkes estimate   =    -136.04445655 Ry
     estimated scf accuracy    <       0.00510661 Ry

     total magnetization       =     6.00 Bohr mag/cell
     absolute magnetization    =     6.00 Bohr mag/cell

     iteration # 18     ecut=   560.00 Ry     beta= 0.70
     Davidson diagonalization with overlap
     ethr =  3.65E-05,  avg # of iterations =  3.0

     negative rho (up, down):  3.656E-03 4.930E-01

     total cpu time spent up to now is      266.2 secs

     total energy              =    -136.04385725 Ry
     Harris-Foulkes estimate   =    -136.04404163 Ry
     estimated scf accuracy    <       0.00261068 Ry

     total magnetization       =     6.00 Bohr mag/cell
     absolute magnetization    =     6.00 Bohr mag/cell

     iteration # 19     ecut=   560.00 Ry     beta= 0.70
     Davidson diagonalization with overlap
     ethr =  1.86E-05,  avg # of iterations =  2.0

     negative rho (up, down):  3.909E-04 3.932E-01

     total cpu time spent up to now is      278.4 secs

     total energy              =    -136.04302121 Ry
     Harris-Foulkes estimate   =    -136.04398668 Ry
     estimated scf accuracy    <       0.00111451 Ry

     total magnetization       =     6.00 Bohr mag/cell
     absolute magnetization    =     6.00 Bohr mag/cell

     iteration # 20     ecut=   560.00 Ry     beta= 0.70
     Davidson diagonalization with overlap
     ethr =  7.96E-06,  avg # of iterations =  4.0

     negative rho (up, down):  0.000E+00 1.853E-01

     total cpu time spent up to now is      292.7 secs

     total energy              =    -136.04338909 Ry
     Harris-Foulkes estimate   =    -136.04320944 Ry
     estimated scf accuracy    <       0.00084806 Ry

     total magnetization       =     6.00 Bohr mag/cell
     absolute magnetization    =     6.00 Bohr mag/cell

     iteration # 21     ecut=   560.00 Ry     beta= 0.70
     Davidson diagonalization with overlap
     ethr =  6.06E-06,  avg # of iterations =  4.0

     negative rho (up, down):  0.000E+00 4.779E-01

     total cpu time spent up to now is      306.7 secs

     total energy              =    -136.04261467 Ry
     Harris-Foulkes estimate   =    -136.04347303 Ry
     estimated scf accuracy    <       0.00206716 Ry

     total magnetization       =     6.00 Bohr mag/cell
     absolute magnetization    =     6.00 Bohr mag/cell

     iteration # 22     ecut=   560.00 Ry     beta= 0.70
     Davidson diagonalization with overlap
     ethr =  6.06E-06,  avg # of iterations =  3.0

     negative rho (up, down):  0.000E+00 5.309E-01

     total cpu time spent up to now is      320.1 secs

     total energy              =    -136.04290081 Ry
     Harris-Foulkes estimate   =    -136.04290867 Ry
     estimated scf accuracy    <       0.00005195 Ry

     total magnetization       =     6.00 Bohr mag/cell
     absolute magnetization    =     6.00 Bohr mag/cell

     iteration # 23     ecut=   560.00 Ry     beta= 0.70
     Davidson diagonalization with overlap
     ethr =  3.71E-07,  avg # of iterations =  4.0

     negative rho (up, down):  0.000E+00 5.785E-01

     total cpu time spent up to now is      334.9 secs

     total energy              =    -136.04292201 Ry
     Harris-Foulkes estimate   =    -136.04293122 Ry
     estimated scf accuracy    <       0.00000887 Ry

     total magnetization       =     6.00 Bohr mag/cell
     absolute magnetization    =     6.00 Bohr mag/cell

     iteration # 24     ecut=   560.00 Ry     beta= 0.70
     Davidson diagonalization with overlap
     ethr =  6.33E-08,  avg # of iterations =  2.0

     negative rho (up, down):  0.000E+00 6.503E-01

     total cpu time spent up to now is      347.2 secs

     total energy              =    -136.04291027 Ry
     Harris-Foulkes estimate   =    -136.04292319 Ry
     estimated scf accuracy    <       0.00000245 Ry

     total magnetization       =     6.00 Bohr mag/cell
     absolute magnetization    =     6.00 Bohr mag/cell

     iteration # 25     ecut=   560.00 Ry     beta= 0.70
     Davidson diagonalization with overlap
     ethr =  1.75E-08,  avg # of iterations =  4.0

     negative rho (up, down):  0.000E+00 2.143E-07
 
     Magnetic moment per site:
     atom:    1    charge:   13.9991    magn:    5.9991    constr:    0.0000

     total cpu time spent up to now is      359.5 secs

     End of self-consistent calculation

 ------ SPIN UP ------------


          k = 0.0000 0.0000 0.0000 (****** PWs)   bands (ev):

   -64.8710 -39.1956 -39.1955 -39.1955  -4.4191  -4.2650  -4.2650  -4.2649
    -4.2649  -4.2649  -1.0746  -1.0725

     occupation numbers 
     1.0000   1.0000   1.0000   1.0000   1.0000   1.0000   1.0000   1.0000
     1.0000   1.0000   0.0000   0.0000

 ------ SPIN DOWN ----------


          k = 0.0000 0.0000 0.0000 (****** PWs)   bands (ev):

   -62.0408 -36.1086 -36.1086 -36.1085  -1.4449  -0.8408  -0.8405  -0.8394
    -0.8393  -0.8392   0.2356   0.9300

     occupation numbers 
     1.0000   1.0000   1.0000   1.0000   0.0000   0.0000   0.0000   0.0000
     0.0000   0.0000   0.0000   0.0000

     highest occupied, lowest unoccupied level (ev):    -4.2649   -1.4449

!    total energy              =    -136.04285261 Ry
     Harris-Foulkes estimate   =    -136.04291075 Ry
     estimated scf accuracy    <       0.00000013 Ry

     The total energy is the sum of the following terms:

     one-electron contribution =    -184.09528647 Ry
     hartree contribution      =      88.45803904 Ry
     xc contribution           =     -15.88219690 Ry
     ewald contribution        =     -24.52340829 Ry

     total magnetization       =     6.00 Bohr mag/cell
     absolute magnetization    =     6.00 Bohr mag/cell

     convergence has been achieved in  25 iterations

     Writing output data file pwscf.save/
 
     init_run     :     13.79s CPU     14.40s WALL (       1 calls)
     electrons    :    336.86s CPU    346.03s WALL (       1 calls)

     Called by init_run:
     wfcinit      :      2.26s CPU      2.38s WALL (       1 calls)
     wfcinit:atom :      0.03s CPU      0.04s WALL (       2 calls)
     wfcinit:wfcr :      2.19s CPU      2.30s WALL (       2 calls)
     potinit      :      3.50s CPU      3.72s WALL (       1 calls)
     hinit0       :      0.31s CPU      0.45s WALL (       1 calls)

     Called by electrons:
     c_bands      :    176.08s CPU    177.99s WALL (      25 calls)
     sum_band     :     53.48s CPU     53.60s WALL (      25 calls)
     v_of_rho     :     80.83s CPU     84.87s WALL (      26 calls)
     v_h          :      6.57s CPU      6.87s WALL (      26 calls)
     v_xc         :     74.26s CPU     78.00s WALL (      26 calls)
     mix_rho      :     26.43s CPU     28.96s WALL (      25 calls)

     Called by c_bands:
     init_us_2    :      0.94s CPU      0.94s WALL (     102 calls)
     regterg      :    174.40s CPU    176.29s WALL (      50 calls)

     Called by sum_band:

     Called by *egterg:
     h_psi        :    160.63s CPU    160.95s WALL (     225 calls)
     g_psi        :      0.50s CPU      0.50s WALL (     173 calls)
     rdiaghg      :      0.24s CPU      0.26s WALL (     223 calls)
     regterg:over :      3.55s CPU      3.56s WALL (     173 calls)
     regterg:upda :      7.04s CPU      7.17s WALL (     173 calls)
     regterg:last :      1.96s CPU      1.96s WALL (      56 calls)
     rdiaghg:chol :      0.04s CPU      0.06s WALL (     223 calls)
     rdiaghg:inve :      0.01s CPU      0.01s WALL (     223 calls)
     rdiaghg:para :      0.03s CPU      0.03s WALL (     446 calls)

     Called by h_psi:
     h_psi:pot    :    159.64s CPU    159.96s WALL (     225 calls)
     h_psi:calbec :      0.69s CPU      0.70s WALL (     225 calls)
     vloc_psi     :    157.90s CPU    158.21s WALL (     225 calls)
     add_vuspsi   :      1.04s CPU      1.04s WALL (     225 calls)

     General routines
     calbec       :      0.69s CPU      0.70s WALL (     225 calls)
     fft          :     72.46s CPU     73.08s WALL (     386 calls)
     ffts         :      7.55s CPU      7.58s WALL (      50 calls)
     fftw         :    153.31s CPU    153.62s WALL (    2118 calls)
 
     Parallel routines
     fft_scatt_xy :     41.99s CPU     42.06s WALL (    2554 calls)
     fft_scatt_yz :     81.85s CPU     82.43s WALL (    2554 calls)
 
     PWSCF        :   5m51.59s CPU   6m 2.86s WALL

 
   This run was terminated on:  15:44:27  17Jan2022            

=------------------------------------------------------------------------------=
   JOB DONE.
=------------------------------------------------------------------------------=
