
 Primary working directories    : /global/cscratch1/sd/bkincaid
 Secondary working directories  : /global/cscratch1/sd/bkincaid
 Wavefunction directory         : /global/homes/b/bkincaid/wfu/
 Main file repository           : /global/cscratch1/sd/bkincaid/

 SHA1      : 19cd028119e0e09f93f0674bd8af7968d9b3eff6
 NAME      : 2015.1.36
 ARCHNAME  : linux/x86_64
 FC        : /opt/cray/pe/craype/2.5.14/bin/ftn
 BLASLIB   : -L/opt/intel/compilers_and_libraries_2018.1.163/linux/mkl/lib/intel64 -Wl,-_start-group -lmkl_intel_ilp64 -lmkl_intel_thread -lmkl_core -Wl,-_end-group -liomp5
 id        : lbl

 Nodes     nprocs
 nid00757    23
 Number of processes for MPI-2 version of Molpro:   nprocs(total)=   24   nprocs(compute)=   23   nprocs(helper)=    1

 Using customized tuning parameters: mindgm=7; mindgv=16; mindgc=1; mindgr=1; noblas=0; minvec=7
 default implementation of scratch files=sf  

 ***,Calculation for Ag atom, singlet and triplet
 memory,512,m
 geometry={
 1
 Pd
 Pd  0.0 0.0 0.0
 }
 
 basis={
 Including file /global/u1/b/bkincaid/molpro/Pd/atoms/ecps/bk16.2/basis/bk16.2
 Including file /global/u1/b/bkincaid/molpro/Pd/atoms/ecps/bk16.2/basis/aug-cc-pwCVTZ.basis
 }
 
 Including file /global/u1/b/bkincaid/molpro/Pd/atoms/ecps/bk16.2/basis/states.proc
 
 do i=1,13
     if (i.eq.1) then
         Idten
     else if (i.eq.2) then
         EAs2d9
     else if (i.eq.3) then
         Is1d9
     else if (i.eq.4) then
         Is2d8
     else if (i.eq.5) then
         IId9
     else if (i.eq.6) then
         IIs1d8
     else if (i.eq.7) then
         IIId8
     else if (i.eq.8) then
         IVd7
     else if (i.eq.9) then
         Vd6
     else if (i.eq.10) then
         VId5
     else if (i.eq.11) then
         XIKr
     else if (i.eq.12) then
         XIVp3
     else if (i.eq.13) then
         XVIIs2
     endif
     scf(i)=energy
     _CC_NORM_MAX=2.0
    {rccsd(t),maxit=100;core}
     ccsd(i)=energy
 enddo
 
 table,scf,ccsd
 type,csv
 save

 Variables initialized (889), CPU time= 0.01 sec
 Commands  initialized (702), CPU time= 0.02 sec, 572 directives.
 Default parameters read. Elapsed time= 0.22 sec

 Checking input...
 Passed
1


                                         ***  PROGRAM SYSTEM MOLPRO  ***
                                       Copyright, TTI GmbH Stuttgart, 2015
                                    Version 2015.1 linked Dec 29 2018 15:55:43


 **********************************************************************************************************************************
 LABEL *   Calculation for Ag atom, singlet and triplet                                  
  64 bit mpp version                                                                     DATE: 13-Apr-21          TIME: 10:56:07  
 **********************************************************************************************************************************

 SHA1:             19cd028119e0e09f93f0674bd8af7968d9b3eff6
 **********************************************************************************************************************************

Geometry recognized as XYZ


 Variable memory set to  512000000 words,  buffer space   230000 words

 SETTING BASIS          =    USERDEF

 DO I                   =         1.00000000   

 Running procedure=IDTEN


 Recomputing integrals since basis changed


 Using spherical harmonics



 PROGRAM * SEWARD (Integral evaluation for generally contracted gaussian basis sets)     Author: Roland Lindh, 1990

 Geometry written to block  1 of record 700

 Orientation using atomic masses  
 Molecule type: Atom
 Symmetry elements: X,Y,Z
 Rotational constants:       0.0000000      0.0000000      0.0000000 GHz  (calculated with average atomic masses)

 Point group  D2h 



 ATOMIC COORDINATES

 NR  ATOM    CHARGE       X              Y              Z

   1  PD     18.00    0.000000000    0.000000000    0.000000000

 NUCLEAR CHARGE:                   18
 NUMBER OF PRIMITIVE AOS:         289
 NUMBER OF SYMMETRY AOS:          242
 NUMBER OF CONTRACTIONS:          242   (  73Ag  +  32B3u +  32B2u +  23B1g +  32B1u +  23B2g +  23B3g +   4Au  )
 NUMBER OF CORE ORBITALS:           4   (   1Ag  +   1B3u +   1B2u +   0B1g +   1B1u +   0B2g +   0B3g +   0Au  )
 NUMBER OF VALENCE ORBITALS:        6   (   3Ag  +   0B3u +   0B2u +   1B1g +   0B1u +   1B2g +   1B3g +   0Au  )


 NUCLEAR REPULSION ENERGY    0.00000000

 EXTRA SYMMETRY OF AOS IN SYMMETRY 1:   1 1 1 1 1 1 1 1 1 1   1 1 1 1 1 1 1 1 1 1   1 1 1 1 1 1 1 1 1 1   2 3 2 3 2 3 2 3 2 3
                                        2 3 2 3 2 3 2 3 2 3   2 3 2 3 2 3 2 3 2 3   2 3 2 3 4 5 6 4 5 6   4 5 6
 EXTRA SYMMETRY OF AOS IN SYMMETRY 2:   1 1 1 1 1 1 1 1 1 1   1 1 1 1 1 1 1 1 1 1   1 1 1 1 2 3 2 3 2 3   2 3
 EXTRA SYMMETRY OF AOS IN SYMMETRY 3:   1 1 1 1 1 1 1 1 1 1   1 1 1 1 1 1 1 1 1 1   1 1 1 1 2 3 2 3 2 3   2 3
 EXTRA SYMMETRY OF AOS IN SYMMETRY 4:   1 1 1 1 1 1 1 1 1 1   1 1 1 1 1 1 1 2 3 2   3 2 3
 EXTRA SYMMETRY OF AOS IN SYMMETRY 5:   1 1 1 1 1 1 1 1 1 1   1 1 1 1 1 1 1 1 1 1   1 1 1 1 2 3 2 3 2 3   2 3
 EXTRA SYMMETRY OF AOS IN SYMMETRY 6:   1 1 1 1 1 1 1 1 1 1   1 1 1 1 1 1 1 2 3 2   3 2 3
 EXTRA SYMMETRY OF AOS IN SYMMETRY 7:   1 1 1 1 1 1 1 1 1 1   1 1 1 1 1 1 1 2 3 2   3 2 3

 Eigenvalues of metric

         1 0.198E-05 0.951E-05 0.951E-05 0.291E-04 0.121E-03 0.307E-03 0.307E-03 0.363E-03
         2 0.982E-06 0.471E-03 0.163E-02 0.406E-02 0.938E-02 0.172E-01 0.270E-01 0.454E-01
         3 0.982E-06 0.471E-03 0.163E-02 0.406E-02 0.938E-02 0.172E-01 0.270E-01 0.454E-01
         4 0.951E-05 0.307E-03 0.302E-02 0.107E-01 0.287E-01 0.531E-01 0.105E+00 0.148E+00
         5 0.982E-06 0.471E-03 0.163E-02 0.406E-02 0.938E-02 0.172E-01 0.270E-01 0.454E-01
         6 0.951E-05 0.307E-03 0.302E-02 0.107E-01 0.287E-01 0.531E-01 0.105E+00 0.148E+00
         7 0.951E-05 0.307E-03 0.302E-02 0.107E-01 0.287E-01 0.531E-01 0.105E+00 0.148E+00
         8 0.941E-01 0.387E+00 0.119E+01 0.233E+01


 Contracted 2-electron integrals neglected if value below      1.0D-13
 AO integral compression algorithm  1   Integral accuracy      1.0D-13

     413.663 MB (compressed) written to integral file ( 46.0%)

     Node minimum: 0.262 MB, node maximum: 55.050 MB


 NUMBER OF SORTED TWO-ELECTRON INTEGRALS:    2444547.     BUFFER LENGTH:  32768
 NUMBER OF SEGMENTS:   1  SEGMENT LENGTH:    2444547      RECORD LENGTH: 524288

 Memory used in sort:       3.00 MW

 SORT1 READ   112766326. AND WROTE     1563133. INTEGRALS IN      5 RECORDS. CPU TIME:     2.84 SEC, REAL TIME:     3.37 SEC
 SORT2 READ    36622834. AND WROTE    56960207. INTEGRALS IN   1219 RECORDS. CPU TIME:     0.34 SEC, REAL TIME:     0.44 SEC

 Node minimum:     2444547.  Node maximum:     2491187. integrals

 OPERATOR DM      FOR CENTER  0  COORDINATES:    0.000000    0.000000    0.000000


 **********************************************************************************************************************************
 DATASETS  * FILE   NREC   LENGTH (MB)   RECORD NAMES
              1      19       20.37       500      610      700      900      950      970     1000      129      960     1100   
                                          VAR    BASINP    GEOM    SYMINP    ZMAT    AOBASIS   BASIS     P2S    ABASIS      S 
                                         1400     1410     1420     1200     1210     1080     1600     1650     1700   
                                           T        V       ECP      H0       H01     AOSYM     SMH    MOLCAS    OPER   

 PROGRAMS   *        TOTAL       INT
 CPU TIMES  *        28.19     27.50
 REAL TIME  *        30.62 SEC
 DISK USED  *       866.12 MB      
 GA USED    *         0.00 MB       (max)       0.00 MB       (current)
 **********************************************************************************************************************************


 PROGRAM * RHF-SCF (CLOSED SHELL)       Authors: W. Meyer, H.-J. Werner


 NUMBER OF ELECTRONS:       9+    9-    SPACE SYMMETRY=1    SPIN SYMMETRY: Singlet 
 CONVERGENCE THRESHOLDS:    1.00E-05 (Density)    1.00E-07 (Energy)
 MAX. NUMBER OF ITERATIONS:       60
 INTERPOLATION TYPE:            DIIS
 INTERPOLATION STEPS:              2 (START)      1 (STEP)
 LEVEL SHIFTS:                  0.00 (CLOSED)  0.00 (OPEN) 

 Number of closed-shell orbitals:    9 (   3   1   1   1   1   1   1   0 )


 
 Extra symmetries of mos in symmetry 1:   1   3   2
 Orbital guess generated from atomic densities. Full valence occupancy:    4   1   1   1   1   1   1   0


 Molecular orbital dump at record        4202.2

 ITERATION    DDIFF          GRAD             ENERGY        2-EL.EN.            DIPOLE MOMENTS         DIIS   ORB.
    1      0.000D+00      0.000D+00      -126.59312647    207.176245    0.00000    0.00000    0.00000    0    start
    2      0.000D+00      0.129D-01      -126.59619478    197.805716    0.00000    0.00000    0.00000    1    diag
    3      0.488D-02      0.143D-01      -126.63225882    202.163420    0.00000    0.00000    0.00000    2    diag
    4      0.202D-02      0.646D-03      -126.63232005    202.294475    0.00000    0.00000    0.00000    3    diag
    5      0.127D-03      0.735D-04      -126.63232106    202.311776    0.00000    0.00000    0.00000    4    diag
    6      0.406D-04      0.622D-05      -126.63232107    202.312215    0.00000    0.00000    0.00000    5    diag
    7      0.480D-05      0.421D-06      -126.63232107    202.312379    0.00000    0.00000    0.00000    0    orth

 Final occupancy:   3   1   1   1   1   1   1   0

 !RHF STATE 1.1 Energy               -126.632321069546
 Nuclear energy                         0.00000000
 One-electron energy                 -227.78851040
 Two-electron energy                  101.15618933
 Virial quotient                       -2.59747076
 !RHF STATE 1.1 Dipole moment           0.00000000     0.00000000     0.00000000
 Dipole moment /Debye                   0.00000000     0.00000000     0.00000000

 ELECTRON ORBITALS
 =================


   Orb  Occ    Energy  Couls-En    Coefficients

                                   1 1s      1 1s      1 1s      1 1s      1 1s      1 1s      1 1s      1 1s      1 1s      1 1s   
                                   1 1s      1 1s      1 1s      1 1s      1 1s      1 1s      1 1s      1 1s      1 1s      1 1s   
                                   1 1s      1 1s      1 1s      1 1s      1 1s      1 1s      1 1s      1 1s      1 1s      1 1s   
                                   1 3d0     1 3d2+    1 3d0     1 3d2+    1 3d0     1 3d2+    1 3d0     1 3d2+    1 3d0     1 3d2+ 
                                   1 3d0     1 3d2+    1 3d0     1 3d2+    1 3d0     1 3d2+    1 3d0     1 3d2+    1 3d0     1 3d2+ 
                                   1 3d0     1 3d2+    1 3d0     1 3d2+    1 3d0     1 3d2+    1 3d0     1 3d2+    1 3d0     1 3d2+ 
                                   1 3d0     1 3d2+    1 3d0     1 3d2+    1 5g0     1 5g4+    1 5g2+    1 5g0     1 5g4+    1 5g2+ 
                                   1 5g0     1 5g4+    1 5g2+ 

   1.1   2    -3.8335  -20.0763 -0.000000  0.000000 -0.000000  0.000000 -0.000000  0.000000 -0.000001  0.000003 -0.000008  0.000023
                                -0.000061  0.000157 -0.000402  0.001016 -0.002559  0.006416 -0.014600  0.001791  0.238047 -0.712096
                                -0.197458  0.916559  0.544934  0.036981 -0.016867  0.008169  0.106035 -0.094569 -0.003402  0.000840
                                -0.000000  0.000000  0.000000 -0.000000 -0.000000  0.000000  0.000000 -0.000000 -0.000000  0.000000
                                 0.000000  0.000000 -0.000000 -0.000000  0.000000 -0.000000 -0.000000  0.000000 -0.000000  0.000000
                                -0.000000  0.000000 -0.000000 -0.000000  0.000000  0.000000 -0.000000 -0.000000  0.000000 -0.000000
                                 0.000000 -0.000000  0.000000  0.000000 -0.000000 -0.000000 -0.000000 -0.000000 -0.000000 -0.000000
                                 0.000000  0.000000  0.000000

   2.1   2    -0.3271  -11.1280  0.000000 -0.000000  0.000000 -0.000000  0.000000 -0.000000  0.000000 -0.000000  0.000000 -0.000000
                                 0.000000 -0.000000  0.000000 -0.000000  0.000000 -0.000000  0.000000 -0.000000 -0.000000  0.000000
                                -0.000000  0.000000 -0.000000 -0.000000  0.000000 -0.000000  0.000000 -0.000000  0.000000 -0.000000
                                 0.000000  0.000000 -0.000000 -0.000001  0.000000  0.000007 -0.000001 -0.000030  0.000005  0.000142
                                 0.000014  0.000358  0.000358  0.009411 -0.001218 -0.031979  0.001610  0.042268  0.008181  0.214796
                                 0.013324  0.349837  0.012480  0.327681  0.008248  0.216564  0.002925  0.076798  0.001254  0.032916
                                 0.000797  0.020929  0.000104  0.002740 -0.000000 -0.000000  0.000000  0.000000  0.000000  0.000000
                                -0.000000 -0.000000  0.000000

   3.1   2    -0.3271  -11.1280 -0.000000  0.000000 -0.000000 -0.000000  0.000000 -0.000000  0.000000 -0.000000  0.000000  0.000000
                                -0.000000  0.000000 -0.000000  0.000000 -0.000000  0.000000 -0.000000  0.000000  0.000000 -0.000000
                                 0.000000  0.000000  0.000000  0.000000 -0.000000  0.000000 -0.000000  0.000000 -0.000000  0.000000
                                -0.000000  0.000000  0.000001 -0.000000 -0.000007  0.000000  0.000030 -0.000001 -0.000142  0.000005
                                -0.000358  0.000014 -0.009411  0.000358  0.031979 -0.001218 -0.042268  0.001610 -0.214796  0.008181
                                -0.349837  0.013324 -0.327681  0.012480 -0.216564  0.008248 -0.076798  0.002925 -0.032916  0.001254
                                -0.020929  0.000797 -0.002740  0.000104 -0.000000 -0.000000 -0.000000  0.000000  0.000000  0.000000
                                 0.000000  0.000000 -0.000000

   4.1   0     0.0041   -2.1193  0.000000 -0.000000  0.000000 -0.000000  0.000000 -0.000000  0.000000 -0.000000  0.000000 -0.000000
                                 0.000001 -0.000002  0.000004 -0.000011  0.000032 -0.000098  0.000210  0.001702 -0.022077  0.082033
                                 0.097554 -0.213690 -0.130899  0.078314 -0.112401  0.438529 -0.088192  0.162394 -0.605657  1.279581
                                 0.000000 -0.000000 -0.000000  0.000000  0.000000 -0.000000 -0.000000  0.000000  0.000000 -0.000000
                                -0.000000  0.000000  0.000000 -0.000000 -0.000000  0.000000  0.000000 -0.000000  0.000000 -0.000000
                                 0.000000 -0.000000 -0.000000  0.000000  0.000000 -0.000000 -0.000000  0.000000 -0.000000  0.000000
                                -0.000000  0.000000  0.000001 -0.000001  0.000000  0.000000  0.000000 -0.000000 -0.000000 -0.000000
                                 0.000000  0.000000  0.000000

   5.1   0     0.0236   -2.5601  0.000000 -0.000000  0.000000 -0.000000  0.000000 -0.000000  0.000000 -0.000001  0.000002 -0.000007
                                 0.000018 -0.000046  0.000116 -0.000292  0.000726 -0.001792  0.004277 -0.007113 -0.007001 -0.003677
                                -0.228958  0.262660  0.079388 -0.205969  0.681241 -1.230245  0.216457 -0.423736  2.975618 -1.950040
                                -0.000000  0.000000  0.000000 -0.000000 -0.000000  0.000000  0.000000 -0.000000 -0.000000  0.000000
                                 0.000000 -0.000000 -0.000000  0.000000  0.000000 -0.000000 -0.000000  0.000000 -0.000000  0.000001
                                -0.000000  0.000000 -0.000000 -0.000000  0.000000  0.000000 -0.000000 -0.000000  0.000000 -0.000000
                                 0.000000 -0.000001  0.000000  0.000001  0.000000 -0.000000 -0.000000 -0.000000  0.000000  0.000000
                                 0.000000 -0.000000 -0.000000

                                   1 2px     1 2px     1 2px     1 2px     1 2px     1 2px     1 2px     1 2px     1 2px     1 2px  
                                   1 2px     1 2px     1 2px     1 2px     1 2px     1 2px     1 2px     1 2px     1 2px     1 2px  
                                   1 2px     1 2px     1 2px     1 2px     1 4f1+    1 4f3+    1 4f1+    1 4f3+    1 4f1+    1 4f3+ 
                                   1 4f1+    1 4f3+ 

   1.2   2    -2.4231  -16.9719  0.000000 -0.000000  0.000000 -0.000000  0.000002 -0.000008  0.000030 -0.000097  0.000292 -0.000843
                                 0.002582 -0.010190  0.051653 -0.122619 -0.358553  0.343724  0.290779  0.043317 -0.005260  0.003083
                                 0.220037  0.535304 -0.001434  0.000460 -0.000000 -0.000000 -0.000000 -0.000000 -0.000000 -0.000000
                                 0.000000  0.000000

   2.2   0     0.0111   -1.1509 -0.000000  0.000000 -0.000000  0.000000 -0.000000  0.000001 -0.000003  0.000011 -0.000033  0.000088
                                -0.000228  0.000600 -0.001791  0.005623 -0.104365 -0.018541 -0.017517  0.030709 -0.068764  0.208949
                                 0.111154  0.008146 -0.565055  1.336834 -0.000000  0.000000 -0.000000  0.000000  0.000000  0.000000
                                -0.000000  0.000000

   3.2   0     0.0407   -1.8474  0.000000 -0.000000  0.000000 -0.000000  0.000001 -0.000002  0.000008 -0.000027  0.000078 -0.000207
                                 0.000512 -0.001160  0.002239 -0.008835  0.315892  0.031600  0.031873 -0.074399  0.240424 -0.620964
                                -0.328040 -0.056292  2.089933 -1.174446  0.000000  0.000000 -0.000000  0.000000  0.000000  0.000000
                                -0.000000  0.000000

                                   1 2py     1 2py     1 2py     1 2py     1 2py     1 2py     1 2py     1 2py     1 2py     1 2py  
                                   1 2py     1 2py     1 2py     1 2py     1 2py     1 2py     1 2py     1 2py     1 2py     1 2py  
                                   1 2py     1 2py     1 2py     1 2py     1 4f1-    1 4f3-    1 4f1-    1 4f3-    1 4f1-    1 4f3- 
                                   1 4f1-    1 4f3- 

   1.3   2    -2.4231  -16.9719  0.000000 -0.000000  0.000000 -0.000000  0.000002 -0.000008  0.000030 -0.000097  0.000292 -0.000843
                                 0.002582 -0.010190  0.051653 -0.122619 -0.358553  0.343724  0.290779  0.043317 -0.005260  0.003083
                                 0.220037  0.535304 -0.001434  0.000460  0.000000  0.000000 -0.000000  0.000000 -0.000000  0.000000
                                -0.000000 -0.000000

   2.3   0     0.0111   -1.1509 -0.000000  0.000000 -0.000000  0.000000 -0.000000  0.000001 -0.000003  0.000011 -0.000033  0.000088
                                -0.000228  0.000600 -0.001791  0.005623 -0.104365 -0.018541 -0.017517  0.030709 -0.068764  0.208949
                                 0.111154  0.008146 -0.565055  1.336834  0.000000  0.000000 -0.000000 -0.000000  0.000000  0.000000
                                -0.000000 -0.000000

   3.3   0     0.0407   -1.8474  0.000000 -0.000000  0.000000 -0.000000  0.000001 -0.000002  0.000008 -0.000027  0.000078 -0.000207
                                 0.000512 -0.001160  0.002239 -0.008835  0.315892  0.031600  0.031873 -0.074399  0.240424 -0.620964
                                -0.328040 -0.056292  2.089933 -1.174446  0.000000  0.000000  0.000000 -0.000000  0.000000  0.000000
                                -0.000000 -0.000000

                                   1 3d2-    1 3d2-    1 3d2-    1 3d2-    1 3d2-    1 3d2-    1 3d2-    1 3d2-    1 3d2-    1 3d2- 
                                   1 3d2-    1 3d2-    1 3d2-    1 3d2-    1 3d2-    1 3d2-    1 3d2-    1 5g2-    1 5g4-    1 5g2- 
                                   1 5g4-    1 5g2-    1 5g4- 

   1.4   2    -0.3271  -11.1280  0.000000 -0.000001  0.000007 -0.000030  0.000142  0.000359  0.009418 -0.032002  0.042299  0.214952
                                 0.350091  0.327919  0.216721  0.076853  0.032940  0.020944  0.002742 -0.000000 -0.000000 -0.000000
                                -0.000000 -0.000000 -0.000000

   2.4   0     0.1009   -2.2243  0.000001 -0.000006  0.000032 -0.000128  0.000425 -0.001329  0.002900 -0.009038  0.057141  0.535991
                                 0.448713 -0.190524  0.186146 -0.476931 -0.400130 -0.606661  1.256242  0.000000 -0.000000  0.000000
                                 0.000000  0.000000  0.000000

   3.4   0     0.3433   -3.3252 -0.000003  0.000020 -0.000105  0.000424 -0.001429  0.004014 -0.014531  0.046945 -0.207781 -1.853421
                                -1.671795  0.454659 -0.826081  1.896255  1.269694  1.964254 -0.890519 -0.000000 -0.000000  0.000000
                                 0.000000  0.000000 -0.000000

                                   1 2pz     1 2pz     1 2pz     1 2pz     1 2pz     1 2pz     1 2pz     1 2pz     1 2pz     1 2pz  
                                   1 2pz     1 2pz     1 2pz     1 2pz     1 2pz     1 2pz     1 2pz     1 2pz     1 2pz     1 2pz  
                                   1 2pz     1 2pz     1 2pz     1 2pz     1 4f0     1 4f2+    1 4f0     1 4f2+    1 4f0     1 4f2+ 
                                   1 4f0     1 4f2+ 

   1.5   2    -2.4231  -16.9719  0.000000 -0.000000  0.000000 -0.000000  0.000002 -0.000008  0.000030 -0.000097  0.000292 -0.000843
                                 0.002582 -0.010190  0.051653 -0.122619 -0.358553  0.343724  0.290779  0.043317 -0.005260  0.003083
                                 0.220037  0.535304 -0.001434  0.000460 -0.000000 -0.000000 -0.000000 -0.000000 -0.000000 -0.000000
                                 0.000000 -0.000000

   2.5   0     0.0111   -1.1509 -0.000000  0.000000 -0.000000  0.000000 -0.000000  0.000001 -0.000003  0.000011 -0.000033  0.000088
                                -0.000228  0.000600 -0.001791  0.005623 -0.104365 -0.018541 -0.017517  0.030709 -0.068764  0.208949
                                 0.111154  0.008146 -0.565055  1.336834  0.000000  0.000000 -0.000000  0.000000  0.000000  0.000000
                                -0.000000  0.000000

   3.5   0     0.0407   -1.8474  0.000000 -0.000000  0.000000 -0.000000  0.000001 -0.000002  0.000008 -0.000027  0.000078 -0.000207
                                 0.000512 -0.001160  0.002239 -0.008835  0.315892  0.031600  0.031873 -0.074399  0.240424 -0.620964
                                -0.328040 -0.056292  2.089933 -1.174446  0.000000  0.000000 -0.000000  0.000000  0.000000  0.000000
                                -0.000000  0.000000

                                   1 3d1+    1 3d1+    1 3d1+    1 3d1+    1 3d1+    1 3d1+    1 3d1+    1 3d1+    1 3d1+    1 3d1+ 
                                   1 3d1+    1 3d1+    1 3d1+    1 3d1+    1 3d1+    1 3d1+    1 3d1+    1 5g1+    1 5g3+    1 5g1+ 
                                   1 5g3+    1 5g1+    1 5g3+ 

   1.6   2    -0.3271  -11.1280  0.000000 -0.000001  0.000007 -0.000030  0.000142  0.000359  0.009418 -0.032002  0.042299  0.214952
                                 0.350091  0.327919  0.216721  0.076853  0.032940  0.020944  0.002742 -0.000000 -0.000000  0.000000
                                -0.000000 -0.000000 -0.000000

   2.6   0     0.1009   -2.2243  0.000001 -0.000006  0.000032 -0.000128  0.000425 -0.001329  0.002900 -0.009038  0.057141  0.535991
                                 0.448713 -0.190524  0.186146 -0.476931 -0.400130 -0.606661  1.256242 -0.000000  0.000000  0.000000
                                 0.000000 -0.000000  0.000000

   3.6   0     0.3433   -3.3252 -0.000003  0.000020 -0.000105  0.000424 -0.001429  0.004014 -0.014531  0.046945 -0.207781 -1.853421
                                -1.671795  0.454659 -0.826081  1.896255  1.269694  1.964254 -0.890519 -0.000000 -0.000000  0.000000
                                 0.000000 -0.000000  0.000000

                                   1 3d1-    1 3d1-    1 3d1-    1 3d1-    1 3d1-    1 3d1-    1 3d1-    1 3d1-    1 3d1-    1 3d1- 
                                   1 3d1-    1 3d1-    1 3d1-    1 3d1-    1 3d1-    1 3d1-    1 3d1-    1 5g1-    1 5g3-    1 5g1- 
                                   1 5g3-    1 5g1-    1 5g3- 

   1.7   2    -0.3271  -11.1280  0.000000 -0.000001  0.000007 -0.000030  0.000142  0.000359  0.009418 -0.032002  0.042299  0.214952
                                 0.350091  0.327919  0.216721  0.076853  0.032940  0.020944  0.002742 -0.000000  0.000000  0.000000
                                 0.000000 -0.000000 -0.000000

   2.7   0     0.1009   -2.2243  0.000001 -0.000006  0.000032 -0.000128  0.000425 -0.001329  0.002900 -0.009038  0.057141  0.535991
                                 0.448713 -0.190524  0.186146 -0.476931 -0.400130 -0.606661  1.256242 -0.000000 -0.000000  0.000000
                                 0.000000  0.000000  0.000000

   3.7   0     0.3433   -3.3252 -0.000003  0.000020 -0.000105  0.000424 -0.001429  0.004014 -0.014531  0.046945 -0.207781 -1.853421
                                -1.671795  0.454659 -0.826081  1.896255  1.269694  1.964254 -0.890519 -0.000000 -0.000000  0.000000
                                 0.000000  0.000000 -0.000000

                                   1 4f2-    1 4f2-    1 4f2-    1 4f2- 

   1.8   0     0.8895   -4.2706 -0.007224  0.132907 -0.232041  1.117341

   2.8   0     2.0961   -5.3275  0.212956 -0.061527  1.281377 -0.768411

 HOMO      1.6    -0.327053 =      -8.8996eV
 LUMO      4.1     0.004124 =       0.1122eV
 LUMO-HOMO         0.331178 =       9.0118eV


 **********************************************************************************************************************************
 DATASETS  * FILE   NREC   LENGTH (MB)   RECORD NAMES
              1      19       20.40       500      610      700      900      950      970     1000      129      960     1100   
                                          VAR    BASINP    GEOM    SYMINP    ZMAT    AOBASIS   BASIS     P2S    ABASIS      S 
                                         1400     1410     1420     1200     1210     1080     1600     1650     1700   
                                           T        V       ECP      H0       H01     AOSYM     SMH    MOLCAS    OPER   

              2       5        5.58       200      700     1000      520     4202   
                                        OPTIONS   GEOM     BASIS   MCVARS     RHF  

 PROGRAMS   *        TOTAL       RHF       INT
 CPU TIMES  *        28.83      0.64     27.50
 REAL TIME  *        31.44 SEC
 DISK USED  *         1.48 GB      
 SF USED    *         0.04 MB      
 GA USED    *         0.00 MB       (max)       0.00 MB       (current)
 **********************************************************************************************************************************
 SETTING SCF(1)         =      -126.63232107  AU                              
 SETTING _CC_NORM_MAX   =         2.00000000                                  


 PROGRAM * CCSD (Restricted open-shell coupled cluster)     Authors: C. Hampel, H.-J. Werner, 1991, M. Deegan, P.J. Knowles, 1992


 Convergence thresholds:  THRVAR = 1.00D-08  THRDEN = 1.00D-06

 CCSD(T)     terms to be evaluated (factor= 1.000)


 Number of closed-shell orbitals:   9 (   3   1   1   1   1   1   1   0 )
 Number of external orbitals:     233 (  70  31  31  22  31  22  22   4 )

 Memory could be reduced to 29.42 Mwords without degradation in triples

 Number of N-1 electron functions:              18
 Number of N-2 electron functions:             153
 Number of singly external CSFs:               738
 Number of doubly external CSFs:            813477
 Total number of CSFs:                      814215

 Molecular orbitals read from record     4202.2  Type=RHF/CANONICAL (state 1.1)

 Integral transformation finished. Total CPU:   0.94 sec, npass=  1  Memory used:   4.84 MW

 Starting RMP2 calculation

 Wavefunction is spin-projected

 ITER.      SQ.NORM     CORR.ENERGY   TOTAL ENERGY   ENERGY CHANGE        DEN1      VAR(S)    VAR(P)  DIIS     TIME
   1      1.14264896    -0.76759737  -127.39991844    -0.76759737    -0.00136261  0.14D-11  0.52D-03  1  1     1.49
   2      1.14385947    -0.76903440  -127.40135547    -0.00143703    -0.00000360  0.58D-13  0.25D-05  2  2     2.00
   3      1.14392870    -0.76907520  -127.40139627    -0.00004081    -0.00000001  0.16D-14  0.11D-07  3  3     2.62
   4      1.14393057    -0.76907553  -127.40139660    -0.00000033    -0.00000000  0.36D-16  0.57D-10  4  4     3.15

 Norm of t1 vector:      0.00000693      S-energy:    -0.00000000      T1 diagnostic:  0.00000115
 Norm of t2 vector:      0.37938183      P-energy:    -0.76907553
                                         Alpha-Beta:  -0.53089320
                                         Alpha-Alpha: -0.11909117
                                         Beta-Beta:   -0.11909117

 Spin contamination <S**2-Sz**2-Sz>     0.00000000
  Reference energy                   -126.632321069546
  RHF-RMP2 correlation energy          -0.769075533996
 !RHF-RMP2 energy                    -127.401396603542
 (NB above energy spin projected)

 Starting RCCSD calculation

 ITER.      SQ.NORM     CORR.ENERGY   TOTAL ENERGY   ENERGY CHANGE        DEN1      VAR(S)    VAR(P)  DIIS     TIME
   1      1.11297098    -0.70914163  -127.34146270    -0.70914163    -0.01702966  0.25D-02  0.33D-02  1  1     4.19
   2      1.12061521    -0.72366060  -127.35598167    -0.01451897    -0.00087091  0.41D-04  0.32D-03  2  2     5.12
   3      1.12150533    -0.72367351  -127.35599458    -0.00001291    -0.00008793  0.63D-04  0.17D-04  3  3     5.99
   4      1.12216244    -0.72394754  -127.35626861    -0.00027403    -0.00000914  0.39D-05  0.31D-05  4  4     6.96
   5      1.12254664    -0.72404910  -127.35637017    -0.00010156    -0.00000088  0.78D-06  0.23D-06  5  5     7.98
   6      1.12263601    -0.72405818  -127.35637925    -0.00000908    -0.00000011  0.46D-07  0.39D-07  6  6     9.06
   7      1.12266203    -0.72405879  -127.35637986    -0.00000061    -0.00000002  0.26D-07  0.24D-08  6  1    10.24
   8      1.12266801    -0.72406004  -127.35638111    -0.00000125    -0.00000000  0.24D-08  0.23D-09  6  2    11.17
   9      1.12266926    -0.72405931  -127.35638038     0.00000074    -0.00000000  0.28D-09  0.79D-10  6  3    12.13

 Norm of t1 vector:      0.05314428      S-energy:    -0.00000013      T1 diagnostic:  0.00885738
                                                                       D1 diagnostic:  0.01651902
 Norm of t2 vector:      0.34618628      P-energy:    -0.72405918
                                         Alpha-Beta:  -0.51950725
                                         Alpha-Alpha: -0.10227596
                                         Beta-Beta:   -0.10227596

 Spin contamination <S**2-Sz**2-Sz>     0.00000000

 Memory could be reduced to 29.91 Mwords without degradation in triples
 

  Correlated core orbitals:             1.1       1.2       1.3       1.5
  Orbital energies:                    -3.8335   -2.4231   -2.4231   -2.4231
 
  RCCSD core-core energy               -0.113100879776
  RCCSD core-valence energy            -0.260628173955
  RCCSD valence correlation energy     -0.350330252108
 

 RESULTS
 =======

  Reference energy                   -126.632321069546
  RCCSD singles energy                 -0.000000125359
  RCCSD pair energy                    -0.724059180479
  RCCSD correlation energy             -0.724059305838
  Triples (T) contribution             -0.029474254324
  Total correlation energy             -0.753533560162
 
  RHF-RCCSD energy                   -127.356380375384
  RHF-RCCSD[T] energy                -127.386914561727
  RHF-RCCSD-T energy                 -127.385700145224
 !RHF-RCCSD(T) energy                -127.385854629707

 Program statistics:

 Available memory in ccsd:               511999162
 Min. memory needed in ccsd:               2450153
 Max. memory used in ccsd:                 3434108
 Max. memory used in cckext:               2685931 ( 9 integral passes)
 Max. memory used in cckint:               4839137 ( 1 integral passes)



 **********************************************************************************************************************************
 DATASETS  * FILE   NREC   LENGTH (MB)   RECORD NAMES
              1      19       20.40       500      610      700      900      950      970     1000      129      960     1100   
                                          VAR    BASINP    GEOM    SYMINP    ZMAT    AOBASIS   BASIS     P2S    ABASIS      S 
                                         1400     1410     1420     1200     1210     1080     1600     1650     1700   
                                           T        V       ECP      H0       H01     AOSYM     SMH    MOLCAS    OPER   

              2       5        5.58       200      700     1000      520     4202   
                                        OPTIONS   GEOM     BASIS   MCVARS     RHF  

 PROGRAMS   *        TOTAL  RCCSD(T)       RHF       INT
 CPU TIMES  *        48.21     19.34      0.64     27.50
 REAL TIME  *        63.57 SEC
 DISK USED  *         3.80 GB      
 SF USED    *       440.31 MB      
 GA USED    *         0.00 MB       (max)       0.00 MB       (current)
 **********************************************************************************************************************************
 SETTING CCSD(1)        =      -127.38585463  AU                              

 DO I                   =         2.00000000   

 Running procedure=EAS2D9


 PROGRAM * RHF-SCF (OPEN SHELL)       Authors: W. Meyer, H.-J. Werner


 NUMBER OF ELECTRONS:      10+    9-    SPACE SYMMETRY=1    SPIN SYMMETRY: Doublet 
 CONVERGENCE THRESHOLDS:    1.00E-05 (Density)    1.00E-07 (Energy)
 MAX. NUMBER OF ITERATIONS:       60
 INTERPOLATION TYPE:            DIIS
 INTERPOLATION STEPS:              2 (START)      1 (STEP)
 LEVEL SHIFTS:                 -0.60 (CLOSED) -0.30 (OPEN) 

 Number of closed-shell orbitals:    9 (   3   1   1   1   1   1   1   0 )
 Number of open-shell orbitals:      1 (   1   0   0   0   0   0   0   0 )


 
 Extra symmetries of mos in symmetry 1:   1   1   3   2
 Orbital guess generated from atomic densities. Full valence occupancy:    4   1   1   1   1   1   1   0


 Molecular orbital dump at record        4202.2

 ITERATION    DDIFF          GRAD             ENERGY        2-EL.EN.            DIPOLE MOMENTS         DIIS   ORB.
    1      0.000D+00      0.000D+00      -126.61313214    207.013948    0.00000    0.00000    0.00000    0    start
    2      0.000D+00      0.434D-02      -126.62070193    206.662853    0.00000    0.00000    0.00000    1    diag,B
    3      0.250D-02      0.137D-02      -126.62364518    206.224524    0.00000    0.00000    0.00000    2    diag,B
    4      0.179D-02      0.938D-03      -126.62617556    205.869929    0.00000    0.00000    0.00000    3    diag,B
    5      0.193D-02      0.670D-03      -126.62798091    205.451919    0.00000    0.00000    0.00000    4    diag,B
    6      0.193D-02      0.457D-03      -126.62916604    205.118957    0.00000    0.00000    0.00000    5    diag,B
    7      0.243D-02      0.300D-03      -126.62983743    204.875580    0.00000    0.00000    0.00000    6    fixocc
    8      0.377D-02      0.170D-03      -126.63006261    204.742455    0.00000    0.00000    0.00000    7    diag,B
    9      0.247D-02      0.112D-03      -126.63015724    204.692981    0.00000    0.00000    0.00000    8    diag,B
   10      0.962D-03      0.856D-04      -126.63024506    204.618338    0.00000    0.00000    0.00000    9    orth
   11      0.116D-02      0.606D-04      -126.63029339    204.603297    0.00000    0.00000    0.00000    9    diag,B
   12      0.190D-02      0.343D-04      -126.63030921    204.551041    0.00000    0.00000    0.00000    9    diag,B
   13      0.117D-02      0.150D-04      -126.63031005    204.565565    0.00000    0.00000    0.00000    9    diag,B
   14      0.282D-03      0.760D-05      -126.63031043    204.558959    0.00000    0.00000    0.00000    9    diag,B
   15      0.111D-03      0.523D-05      -126.63031058    204.558753    0.00000    0.00000    0.00000    9    diag,B
   16      0.751D-05      0.499D-05      -126.63031075    204.558542    0.00000    0.00000    0.00000    9    diag,B
   17      0.626D-05      0.492D-05      -126.63031102    204.558433    0.00000    0.00000    0.00000    9    diag,B
   18      0.553D-05      0.488D-05      -126.63031163    204.558373    0.00000    0.00000    0.00000    9    diag,B
   19      0.795D-05      0.481D-05      -126.63031403    204.558159    0.00000    0.00000    0.00000    9    diag,B
   20      0.316D-04      0.458D-05      -126.63031584    204.558318    0.00000    0.00000    0.00000    9    orth
   21      0.257D-04      0.436D-05      -126.63032322    204.558457    0.00000    0.00000    0.00000    9    diag,B
   22      0.129D-03      0.684D-05      -126.63032396    204.558470    0.00000    0.00000    0.00000    9    diag,B
   23      0.266D-04      0.677D-05      -126.63032416    204.558922    0.00000    0.00000    0.00000    9    diag,B
   24      0.980D-05      0.540D-05      -126.63032518    204.559656    0.00000    0.00000    0.00000    9    diag,B
   25      0.258D-04      0.405D-05      -126.63032671    204.560219    0.00000    0.00000    0.00000    9    diag,B
   26      0.453D-04      0.317D-05      -126.63032818    204.560487    0.00000    0.00000    0.00000    9    diag,B
   27      0.688D-04      0.265D-05      -126.63032867    204.560499    0.00000    0.00000    0.00000    9    diag,B
   28      0.614D-04      0.143D-05      -126.63032884    204.560184    0.00000    0.00000    0.00000    9    diag,B
   29      0.296D-04      0.389D-05      -126.63032883    204.560289    0.00000    0.00000    0.00000    9    diag,B
   30      0.315D-05      0.331D-05      -126.63032884    204.560157    0.00000    0.00000    0.00000    0    orth

 Final alpha occupancy:   4   1   1   1   1   1   1   0
 Final beta  occupancy:   3   1   1   1   1   1   1   0

 !RHF STATE 1.1 Energy               -126.630328837816
 Nuclear energy                         0.00000000
 One-electron energy                 -228.91040723
 Two-electron energy                  102.28007839
 Virial quotient                       -2.63272651
 !RHF STATE 1.1 Dipole moment           0.00000000     0.00000000     0.00000000
 Dipole moment /Debye                   0.00000000     0.00000000     0.00000000

 ELECTRON ORBITALS
 =================


   Orb  Occ    Energy  Couls-En    Coefficients

                                   1 1s      1 1s      1 1s      1 1s      1 1s      1 1s      1 1s      1 1s      1 1s      1 1s   
                                   1 1s      1 1s      1 1s      1 1s      1 1s      1 1s      1 1s      1 1s      1 1s      1 1s   
                                   1 1s      1 1s      1 1s      1 1s      1 1s      1 1s      1 1s      1 1s      1 1s      1 1s   
                                   1 3d0     1 3d2+    1 3d0     1 3d2+    1 3d0     1 3d2+    1 3d0     1 3d2+    1 3d0     1 3d2+ 
                                   1 3d0     1 3d2+    1 3d0     1 3d2+    1 3d0     1 3d2+    1 3d0     1 3d2+    1 3d0     1 3d2+ 
                                   1 3d0     1 3d2+    1 3d0     1 3d2+    1 3d0     1 3d2+    1 3d0     1 3d2+    1 3d0     1 3d2+ 
                                   1 3d0     1 3d2+    1 3d0     1 3d2+    1 5g0     1 5g4+    1 5g2+    1 5g0     1 5g4+    1 5g2+ 
                                   1 5g0     1 5g4+    1 5g2+ 

   1.1   2    -3.7953  -20.0573 -0.000000  0.000000 -0.000000  0.000000 -0.000000  0.000000 -0.000001  0.000003 -0.000008  0.000023
                                -0.000062  0.000160 -0.000409  0.001035 -0.002605  0.006527 -0.014867  0.002278  0.238101 -0.710648
                                -0.183087  0.897301  0.525925  0.031194 -0.014513  0.006992  0.091691 -0.056263 -0.002868  0.000730
                                 0.000000  0.000000 -0.000000 -0.000000  0.000000  0.000000 -0.000001 -0.000000  0.000002  0.000000
                                -0.000008 -0.000000  0.000037  0.000001 -0.000105 -0.000004 -0.000200  0.000002  0.000804  0.000027
                                -0.000525  0.000027 -0.002026  0.000010 -0.001204  0.000003 -0.000215  0.000001  0.000320  0.000006
                                 0.000876  0.000010 -0.000011 -0.000000 -0.000223  0.000000  0.000001 -0.000470  0.000000  0.000003
                                -0.000726  0.000000  0.000004

   2.1   2    -0.0226   -4.7228  0.000000 -0.000000  0.000000 -0.000000  0.000000 -0.000000  0.000000 -0.000001  0.000002 -0.000005
                                 0.000012 -0.000031  0.000080 -0.000203  0.000516 -0.001311  0.003089 -0.001000 -0.049223  0.165613
                                 0.057813 -0.275859 -0.230347  0.101495  0.316511  0.350144 -0.046587  0.066018  0.298067  0.129215
                                -0.000000 -0.000000  0.000000  0.000000 -0.000000 -0.000000  0.000000  0.000000 -0.000001 -0.000000
                                -0.000004 -0.000000 -0.000084 -0.000002  0.000290  0.000007 -0.000292 -0.000009 -0.001667 -0.000045
                                -0.002683 -0.000072 -0.000854 -0.000051  0.004028  0.000014  0.004900  0.000038 -0.000731 -0.000012
                                -0.000971 -0.000013  0.004309  0.000039 -0.000120 -0.000000  0.000000 -0.000272  0.000000  0.000001
                                 0.000178 -0.000000 -0.000001

   3.1   2    -0.2535  -11.2728  0.000000 -0.000000  0.000000 -0.000000  0.000000 -0.000000  0.000000 -0.000000  0.000000 -0.000000
                                 0.000000 -0.000000  0.000000 -0.000000  0.000001 -0.000001  0.000003 -0.000003 -0.000032  0.000098
                                -0.000063 -0.000049 -0.000010  0.000145  0.000052  0.000026  0.000054 -0.000157 -0.000007  0.000002
                                 0.000000  0.000000 -0.000000 -0.000001  0.000000  0.000007 -0.000000 -0.000030  0.000001  0.000143
                                 0.000002  0.000389  0.000045  0.009732 -0.000153 -0.033120  0.000202  0.043856  0.001015  0.220375
                                 0.001666  0.361536  0.001536  0.333008  0.000880  0.190433  0.000249  0.053636  0.000168  0.036377
                                 0.000116  0.025085  0.000013  0.002787  0.000005  0.000010  0.000934  0.000009  0.000015  0.001122
                                 0.000012  0.000026  0.002540

   4.1   +    -0.3357  -11.4954  0.000000 -0.000000  0.000000 -0.000000  0.000000 -0.000000  0.000000 -0.000000  0.000000 -0.000001
                                 0.000001 -0.000004  0.000009 -0.000023  0.000057 -0.000143  0.000347 -0.000543 -0.001252  0.003482
                                -0.016692  0.012529  0.013440  0.022585 -0.002147 -0.003144  0.013670 -0.033901 -0.006663 -0.002042
                                 0.000000 -0.000000 -0.000001  0.000000  0.000007 -0.000000 -0.000031  0.000000  0.000147 -0.000001
                                 0.000385 -0.000002  0.009924 -0.000046 -0.033707  0.000156  0.043952 -0.000203  0.226197 -0.001046
                                 0.373178 -0.001723  0.335601 -0.001545  0.171348 -0.000789  0.036761 -0.000172  0.036189 -0.000167
                                 0.025219 -0.000117  0.000762 -0.000005  0.002250 -0.000000  0.000007  0.003902  0.000000  0.000011
                                 0.005536  0.000000  0.000015

   5.1   0     0.0767   -1.1567 -0.000000  0.000000 -0.000000  0.000000 -0.000000  0.000000 -0.000000  0.000001 -0.000003  0.000007
                                -0.000020  0.000052 -0.000132  0.000330 -0.000816  0.001992 -0.004785  0.010393 -0.017929  0.101271
                                 0.383656 -0.557862 -0.242510  0.299375 -0.893934  1.695716 -0.358334  0.686134 -3.021320  2.420265
                                 0.000000  0.000000 -0.000000 -0.000000  0.000000  0.000000 -0.000000 -0.000000  0.000001  0.000000
                                 0.000003  0.000000  0.000057  0.000000 -0.000195 -0.000001  0.000211  0.000001  0.001003  0.000003
                                 0.001767  0.000006  0.001280  0.000004 -0.000492 -0.000008 -0.000971 -0.000009  0.000522  0.000004
                                 0.000686  0.000006 -0.000554 -0.000005  0.000050  0.000000 -0.000000  0.000065  0.000000 -0.000000
                                -0.000351 -0.000000  0.000002

   6.1   0     0.1608   -2.1725  0.000000 -0.000000  0.000000 -0.000000  0.000000 -0.000000  0.000000 -0.000002  0.000005 -0.000013
                                 0.000034 -0.000088  0.000224 -0.000558  0.001368 -0.003287  0.007960 -0.023327  0.094182 -0.413462
                                -0.965574  1.614345  0.827059 -0.866493  1.964684 -4.714878  0.892607 -1.697222  4.826836 -1.496390
                                 0.000000  0.000000 -0.000000 -0.000000  0.000000  0.000000 -0.000001 -0.000000  0.000004  0.000000
                                -0.000000 -0.000000  0.000159  0.000001 -0.000540 -0.000003  0.000886  0.000006  0.006052  0.000043
                                 0.007289  0.000044  0.001932 -0.000002 -0.000912 -0.000016 -0.003475 -0.000034 -0.001303 -0.000015
                                -0.002250 -0.000024  0.001026  0.000014  0.000129  0.000000 -0.000000  0.000163  0.000000 -0.000000
                                -0.000968 -0.000000  0.000006

                                   1 2px     1 2px     1 2px     1 2px     1 2px     1 2px     1 2px     1 2px     1 2px     1 2px  
                                   1 2px     1 2px     1 2px     1 2px     1 2px     1 2px     1 2px     1 2px     1 2px     1 2px  
                                   1 2px     1 2px     1 2px     1 2px     1 4f1+    1 4f3+    1 4f1+    1 4f3+    1 4f1+    1 4f3+ 
                                   1 4f1+    1 4f3+ 

   1.2   2    -2.3703  -16.9442  0.000000 -0.000000  0.000000 -0.000000  0.000002 -0.000008  0.000029 -0.000096  0.000289 -0.000835
                                 0.002565 -0.010170  0.051780 -0.122854 -0.375860  0.344211  0.283730  0.037911 -0.004003  0.002839
                                 0.237353  0.543658 -0.001181  0.000394  0.002853  0.000011  0.003722  0.000016  0.003079  0.000003
                                 0.000277 -0.000003

   2.2   0     0.0691   -0.9292 -0.000000  0.000000 -0.000000  0.000000 -0.000001  0.000002 -0.000009  0.000028 -0.000081  0.000217
                                -0.000552  0.001391 -0.003741  0.012347 -0.279617 -0.041400 -0.039245  0.073074 -0.177780  0.486093
                                 0.294962  0.032109 -1.203923  1.637073 -0.000004 -0.000000 -0.000000 -0.000000 -0.000007 -0.000000
                                 0.000058  0.000001

   3.2   0     0.1303   -1.6864  0.000000 -0.000000  0.000000 -0.000000  0.000001 -0.000004  0.000016 -0.000052  0.000151 -0.000404
                                 0.001015 -0.002444  0.005796 -0.020400  0.564184  0.070195  0.068235 -0.137606  0.416284 -1.027964
                                -0.590596 -0.082844  2.228831 -0.890828 -0.000052 -0.000001  0.000034  0.000000 -0.000116 -0.000001
                                 0.000754  0.000010

                                   1 2py     1 2py     1 2py     1 2py     1 2py     1 2py     1 2py     1 2py     1 2py     1 2py  
                                   1 2py     1 2py     1 2py     1 2py     1 2py     1 2py     1 2py     1 2py     1 2py     1 2py  
                                   1 2py     1 2py     1 2py     1 2py     1 4f1-    1 4f3-    1 4f1-    1 4f3-    1 4f1-    1 4f3- 
                                   1 4f1-    1 4f3- 

   1.3   2    -2.3702  -16.9441  0.000000 -0.000000  0.000000 -0.000000  0.000002 -0.000008  0.000029 -0.000096  0.000289 -0.000835
                                 0.002565 -0.010170  0.051780 -0.122856 -0.375812  0.344211  0.283752  0.037936 -0.004003  0.002840
                                 0.237312  0.543622 -0.001181  0.000394  0.002838  0.000010  0.003706  0.000015  0.003050  0.000002
                                 0.000269 -0.000003

   2.3   0     0.0691   -0.9292 -0.000000  0.000000 -0.000000  0.000000 -0.000001  0.000002 -0.000009  0.000028 -0.000081  0.000217
                                -0.000552  0.001391 -0.003741  0.012347 -0.279625 -0.041401 -0.039245  0.073073 -0.177785  0.486093
                                 0.294971  0.032111 -1.203943  1.637082 -0.000004 -0.000000 -0.000000 -0.000000 -0.000007 -0.000000
                                 0.000059  0.000001

   3.3   0     0.1303   -1.6861  0.000000 -0.000000  0.000000 -0.000000  0.000001 -0.000004  0.000016 -0.000052  0.000151 -0.000404
                                 0.001015 -0.002444  0.005799 -0.020407  0.564261  0.070217  0.068254 -0.137650  0.416295 -1.028198
                                -0.590681 -0.082836  2.229019 -0.890871 -0.000052 -0.000001  0.000033  0.000000 -0.000116 -0.000001
                                 0.000761  0.000010

                                   1 3d2-    1 3d2-    1 3d2-    1 3d2-    1 3d2-    1 3d2-    1 3d2-    1 3d2-    1 3d2-    1 3d2- 
                                   1 3d2-    1 3d2-    1 3d2-    1 3d2-    1 3d2-    1 3d2-    1 3d2-    1 5g2-    1 5g4-    1 5g2- 
                                   1 5g4-    1 5g2-    1 5g4- 

   1.4   2    -0.2535  -11.2728  0.000000 -0.000001  0.000007 -0.000030  0.000143  0.000389  0.009732 -0.033120  0.043856  0.220377
                                 0.361541  0.333012  0.190433  0.053635  0.036378  0.025086  0.002788  0.000934  0.000010  0.001121
                                 0.000015  0.002540  0.000026

   2.4   0     0.2166   -2.0511  0.000001 -0.000008  0.000041 -0.000166  0.000551 -0.001690  0.004133 -0.012996  0.075165  0.696408
                                 0.589095 -0.228226  0.248457 -0.563175 -0.511630 -0.775860  1.294039 -0.000019 -0.000001 -0.000050
                                -0.000002 -0.000025 -0.000001

   3.4   0     0.4802   -3.1830 -0.000003  0.000021 -0.000108  0.000437 -0.001470  0.004149 -0.014736  0.047575 -0.213284 -1.904953
                                -1.710839  0.474403 -0.800341  1.868917  1.310106  2.022502 -0.839113 -0.000052 -0.000003 -0.000249
                                -0.000011  0.000088  0.000003

                                   1 2pz     1 2pz     1 2pz     1 2pz     1 2pz     1 2pz     1 2pz     1 2pz     1 2pz     1 2pz  
                                   1 2pz     1 2pz     1 2pz     1 2pz     1 2pz     1 2pz     1 2pz     1 2pz     1 2pz     1 2pz  
                                   1 2pz     1 2pz     1 2pz     1 2pz     1 4f0     1 4f2+    1 4f0     1 4f2+    1 4f0     1 4f2+ 
                                   1 4f0     1 4f2+ 

   1.5   2    -2.3755  -16.9583  0.000000 -0.000000  0.000000 -0.000000  0.000002 -0.000008  0.000029 -0.000096  0.000288 -0.000833
                                 0.002561 -0.010165  0.051783 -0.122670 -0.380332  0.344223  0.281711  0.035552 -0.003998  0.002678
                                 0.241232  0.546990 -0.001118  0.000372 -0.001020  0.000024 -0.000895  0.000032 -0.003149  0.000026
                                -0.001028  0.000002

   2.5   0     0.0691   -0.9298 -0.000000  0.000000 -0.000000  0.000000 -0.000001  0.000002 -0.000009  0.000028 -0.000081  0.000217
                                -0.000551  0.001389 -0.003740  0.012337 -0.278847 -0.041383 -0.039251  0.073209 -0.177307  0.486061
                                 0.294187  0.031916 -1.202088  1.636252 -0.000011 -0.000000 -0.000009  0.000000  0.000003 -0.000000
                                 0.000122  0.000001

   3.5   0     0.1296   -1.7074  0.000000 -0.000000  0.000000 -0.000000  0.000001 -0.000004  0.000016 -0.000051  0.000148 -0.000396
                                 0.000993 -0.002379  0.005563 -0.019734  0.556996  0.068091  0.066459 -0.133141  0.415374 -1.005458
                                -0.582642 -0.083690  2.210529 -0.886551 -0.000145 -0.000000 -0.000028  0.000000 -0.000067 -0.000001
                                 0.001607  0.000007

                                   1 3d1+    1 3d1+    1 3d1+    1 3d1+    1 3d1+    1 3d1+    1 3d1+    1 3d1+    1 3d1+    1 3d1+ 
                                   1 3d1+    1 3d1+    1 3d1+    1 3d1+    1 3d1+    1 3d1+    1 3d1+    1 5g1+    1 5g3+    1 5g1+ 
                                   1 5g3+    1 5g1+    1 5g3+ 

   1.6   2    -0.2833  -11.3556  0.000000 -0.000001  0.000007 -0.000030  0.000144  0.000390  0.009809 -0.033382  0.044002  0.222047
                                 0.364904  0.334165  0.184061  0.047108  0.036891  0.025720  0.001827  0.000971  0.000008  0.001489
                                 0.000011  0.002484  0.000021

   2.6   0     0.2160   -2.0517  0.000001 -0.000008  0.000041 -0.000165  0.000549 -0.001679  0.004139 -0.013024  0.074877  0.693160
                                 0.586924 -0.225858  0.248311 -0.558128 -0.508617 -0.771454  1.291774 -0.000079 -0.000000 -0.000233
                                -0.000001 -0.000055 -0.000000

   3.6   0     0.4771   -3.1740 -0.000003  0.000020 -0.000107  0.000432 -0.001454  0.004107 -0.014548  0.046967 -0.210921 -1.884640
                                -1.692059  0.470858 -0.787530  1.863900  1.296764  2.001718 -0.840727 -0.000265 -0.000001 -0.001097
                                -0.000005  0.000356  0.000002

                                   1 3d1-    1 3d1-    1 3d1-    1 3d1-    1 3d1-    1 3d1-    1 3d1-    1 3d1-    1 3d1-    1 3d1- 
                                   1 3d1-    1 3d1-    1 3d1-    1 3d1-    1 3d1-    1 3d1-    1 3d1-    1 5g1-    1 5g3-    1 5g1- 
                                   1 5g3-    1 5g1-    1 5g3- 

   1.7   2    -0.2830  -11.3548  0.000000 -0.000001  0.000007 -0.000030  0.000144  0.000390  0.009808 -0.033379  0.044001  0.222030
                                 0.364868  0.334154  0.184128  0.047173  0.036886  0.025714  0.001835  0.000975  0.000008  0.001497
                                 0.000011  0.002495  0.000021

   2.7   0     0.2160   -2.0517  0.000001 -0.000008  0.000041 -0.000165  0.000549 -0.001679  0.004139 -0.013024  0.074881  0.693196
                                 0.586949 -0.225882  0.248314 -0.558181 -0.508649 -0.771501  1.291798 -0.000080 -0.000000 -0.000235
                                -0.000001 -0.000056 -0.000000

   3.7   0     0.4772   -3.1741 -0.000003  0.000020 -0.000107  0.000432 -0.001454  0.004107 -0.014550  0.046974 -0.210946 -1.884853
                                -1.692256  0.470896 -0.787664  1.863954  1.296905  2.001937 -0.840710 -0.000267 -0.000001 -0.001105
                                -0.000005  0.000357  0.000002

                                   1 4f2-    1 4f2-    1 4f2-    1 4f2- 

   1.8   0     1.0327   -4.1809 -0.003155  0.131997 -0.208291  1.102860

   2.8   0     2.1804   -5.2611  0.214933 -0.044242  1.264153 -0.780987

 HOMO      1.4    -0.253479 =      -6.8975eV
 LUMO      2.5     0.069075 =       1.8796eV
 LUMO-HOMO         0.322554 =       8.7771eV


 **********************************************************************************************************************************
 DATASETS  * FILE   NREC   LENGTH (MB)   RECORD NAMES
              1      19       20.40       500      610      700      900      950      970     1000      129      960     1100   
                                          VAR    BASINP    GEOM    SYMINP    ZMAT    AOBASIS   BASIS     P2S    ABASIS      S 
                                         1400     1410     1420     1200     1210     1080     1600     1650     1700   
                                           T        V       ECP      H0       H01     AOSYM     SMH    MOLCAS    OPER   

              2       5        5.66       200      700     1000      520     4202   
                                        OPTIONS   GEOM     BASIS   MCVARS     RHF  

 PROGRAMS   *        TOTAL       RHF  RCCSD(T)       RHF       INT
 CPU TIMES  *        49.79      1.58     19.34      0.64     27.50
 REAL TIME  *        65.41 SEC
 DISK USED  *         3.80 GB      
 SF USED    *       440.31 MB      
 GA USED    *         0.00 MB       (max)       0.00 MB       (current)
 **********************************************************************************************************************************


 PROGRAM * POP (Mulliken population analysis)

 
 Density matrix read from record         4202.2  Type=RHF/CHARGE (state 1.1)
 
 Population analysis by basis function type

 Unique atom        s        p        d        f        g    Total    Charge
   1  PD      4.00001  5.99968  8.99976  0.00032  0.00023 19.00000  - 1.00000


 **********************************************************************************************************************************
 DATASETS  * FILE   NREC   LENGTH (MB)   RECORD NAMES
              1      19       20.40       500      610      700      900      950      970     1000      129      960     1100   
                                          VAR    BASINP    GEOM    SYMINP    ZMAT    AOBASIS   BASIS     P2S    ABASIS      S 
                                         1400     1410     1420     1200     1210     1080     1600     1650     1700   
                                           T        V       ECP      H0       H01     AOSYM     SMH    MOLCAS    OPER   

              2       5        5.66       200      700     1000      520     4202   
                                        OPTIONS   GEOM     BASIS   MCVARS     RHF  

 PROGRAMS   *        TOTAL       POP       RHF  RCCSD(T)       RHF       INT
 CPU TIMES  *        49.79      0.00      1.58     19.34      0.64     27.50
 REAL TIME  *        65.42 SEC
 DISK USED  *         3.80 GB      
 SF USED    *       440.31 MB      
 GA USED    *         0.00 MB       (max)       0.00 MB       (current)
 **********************************************************************************************************************************


 PROGRAM * MULTI (Direct Multiconfiguration SCF)       Authors: P.J. Knowles, H.-J. Werner (1984)     S.T. Elbert (1988)


 Number of closed-shell orbitals:   5 (   2   1   1   0   1   0   0   0 )
 Number of active  orbitals:        5 (   2   0   0   1   0   1   1   0 )
 Number of external orbitals:     232 (  69  31  31  22  31  22  22   4 )

 State symmetry 1

 Number of electrons:     9    Spin symmetry=Doublet   Space symmetry=1
 Number of states:        2
 Number of CSFs:          2   (2 determinants, 5 intermediate states)

 State symmetry 2

 Number of electrons:     9    Spin symmetry=Doublet   Space symmetry=4
 Number of states:        1
 Number of CSFs:          1   (1 determinants, 5 intermediate states)

 State symmetry 3

 Number of electrons:     9    Spin symmetry=Doublet   Space symmetry=6
 Number of states:        1
 Number of CSFs:          1   (1 determinants, 5 intermediate states)

 State symmetry 4

 Number of electrons:     9    Spin symmetry=Doublet   Space symmetry=7
 Number of states:        1
 Number of CSFs:          1   (1 determinants, 5 intermediate states)

 Molecular orbitals read from record     4202.2  Type=RHF/CANONICAL (state 1.1)
 *** IN SYMMETRY 1 ORBITAL  1 SYMMETRY CONTAMINATION OF 0.281D-02 HAS BEEN REMOVED
 *** IN SYMMETRY 1 ORBITAL  2 SYMMETRY CONTAMINATION OF 0.103D-01 HAS BEEN REMOVED
 *** IN SYMMETRY 1 ORBITAL  3 SYMMETRY CONTAMINATION OF 0.864D-02 HAS BEEN REMOVED
 *** IN SYMMETRY 1 ORBITAL  4 SYMMETRY CONTAMINATION OF 0.104D+00 HAS BEEN REMOVED

 EXTRA SYMMETRY OF MOS IN SYMMETRY 1:   1 1 3 2 1 1 2 3 1 2   3 1 2 3 1 2 3 4 6 5   2 3 1 4 6 5 2 3 1 4   6 5 2 3 1 2 3 2 3 1
                                        2 3 1 1 2 3 1 2 3 1   2 3 1 1 2 3 1 2 3 1   1 2 3 1 1 1 1 1 1 1   1 1 1
 *** IN SYMMETRY 2 ORBITAL  1 SYMMETRY CONTAMINATION OF 0.491D-02 HAS BEEN REMOVED
 EXTRA SYMMETRY OF MOS IN SYMMETRY 2:   1 1 1 1 1 1 2 3 2 3   1 2 3 1 2 3 1 1 1 1   1 1 1 1 1 1 1 1 1 1   1 1
 *** IN SYMMETRY 3 ORBITAL  1 SYMMETRY CONTAMINATION OF 0.488D-02 HAS BEEN REMOVED
 EXTRA SYMMETRY OF MOS IN SYMMETRY 3:   1 1 1 1 1 1 2 3 2 3   1 2 3 1 2 3 1 1 1 1   1 1 1 1 1 1 1 1 1 1   1 1
 *** IN SYMMETRY 4 ORBITAL  1 SYMMETRY CONTAMINATION OF 0.353D-02 HAS BEEN REMOVED
 EXTRA SYMMETRY OF MOS IN SYMMETRY 4:   1 1 1 1 1 2 3 1 2 3   1 2 3 1 1 1 1 1 1 1   1 1 1
 *** IN SYMMETRY 5 ORBITAL  1 SYMMETRY CONTAMINATION OF 0.304D-02 HAS BEEN REMOVED
 EXTRA SYMMETRY OF MOS IN SYMMETRY 5:   1 1 1 1 1 1 2 3 2 3   1 2 3 1 2 3 1 1 1 1   1 1 1 1 1 1 1 1 1 1   1 1
 *** IN SYMMETRY 6 ORBITAL  1 SYMMETRY CONTAMINATION OF 0.381D-02 HAS BEEN REMOVED
 EXTRA SYMMETRY OF MOS IN SYMMETRY 6:   1 1 1 1 1 2 3 1 2 3   1 2 3 1 1 1 1 1 1 1   1 1 1
 *** IN SYMMETRY 7 ORBITAL  1 SYMMETRY CONTAMINATION OF 0.382D-02 HAS BEEN REMOVED
 EXTRA SYMMETRY OF MOS IN SYMMETRY 7:   1 1 1 1 1 2 3 1 2 3   1 2 3 1 1 1 1 1 1 1   1 1 1

 Wavefunction dump at record             5202.2

 Convergence thresholds  0.10E-01 (gradient)  0.10E-05 (energy)  0.10E-02 (step length)

 Weight factors for state symmetry  1:    0.20000   0.20000
 Weight factors for state symmetry  2:    0.20000
 Weight factors for state symmetry  3:    0.20000
 Weight factors for state symmetry  4:    0.20000

 Number of orbital rotations:      439   (     4 Core/Active    231 Core/Virtual   0 Active/Active    204 Active/Virtual)
 Total number of variables:        446


 ITER. MIC  NCI  NEG     ENERGY(VAR)     ENERGY(PROJ)   ENERGY CHANGE     GRAD(0)  GRAD(ORB)   GRAD(CI)     STEP       TIME

   1   36   16    0    -126.62575550    -126.62674471   -0.00098921    0.04554870 0.00000000 0.00000000  0.29D-01      0.44
   2   25   20    0    -126.62674526    -126.62674541   -0.00000015    0.00029799 0.00000000 0.00000000  0.96D-03      0.58
   3   21   20    0    -126.62674541    -126.62674541   -0.00000000    0.00000012 0.00000000 0.00000000  0.43D-06      0.87

 ** WVFN ****  CONVERGENCE REACHED, FINAL GRADIENT:  0.26D-10



 Results for state 1.1
 =====================

 !MCSCF STATE 1.1 Energy             -126.626745412120
 Nuclear energy                         0.00000000
 Kinetic energy                        48.09468611
 One electron energy                 -228.91238918
 Two electron energy                  102.28564377
 Virial ratio                           3.63286354

 !MCSCF STATE 1.1 Dipole moment         0.00000000     0.00000000     0.00000000
 Dipole moment /Debye                   0.00000000     0.00000000     0.00000000

 Results for state 2.1
 =====================

 !MCSCF STATE 2.1 Energy             -126.626745412120
 Nuclear energy                         0.00000000
 Kinetic energy                        48.09468611
 One electron energy                 -228.91238918
 Two electron energy                  102.28564377
 Virial ratio                           3.63286354

 !MCSCF STATE 2.1 Dipole moment         0.00000000     0.00000000     0.00000000
 Dipole moment /Debye                   0.00000000     0.00000000     0.00000000



 Results for state 1.4
 =====================

 !MCSCF STATE 1.4 Energy             -126.626745412120
 Nuclear energy                         0.00000000
 Kinetic energy                        48.09468611
 One electron energy                 -228.91238918
 Two electron energy                  102.28564377
 Virial ratio                           3.63286354

 !MCSCF STATE 1.4 Dipole moment         0.00000000     0.00000000     0.00000000
 Dipole moment /Debye                   0.00000000     0.00000000     0.00000000



 Results for state 1.6
 =====================

 !MCSCF STATE 1.6 Energy             -126.626745412120
 Nuclear energy                         0.00000000
 Kinetic energy                        48.09468611
 One electron energy                 -228.91238918
 Two electron energy                  102.28564377
 Virial ratio                           3.63286354

 !MCSCF STATE 1.6 Dipole moment         0.00000000     0.00000000     0.00000000
 Dipole moment /Debye                   0.00000000     0.00000000     0.00000000



 Results for state 1.7
 =====================

 !MCSCF STATE 1.7 Energy             -126.626745412120
 Nuclear energy                         0.00000000
 Kinetic energy                        48.09468611
 One electron energy                 -228.91238918
 Two electron energy                  102.28564377
 Virial ratio                           3.63286354

 !MCSCF STATE 1.7 Dipole moment         0.00000000     0.00000000     0.00000000
 Dipole moment /Debye                   0.00000000     0.00000000     0.00000000

 State-averaged charge density matrix saved on record  5202.2 (density set 1)


 NATURAL ORBITALS (state averaged)
 =================================

   Orb     Occ        Energy       Coefficients

                                   1 1s      1 1s      1 1s      1 1s      1 1s      1 1s      1 1s      1 1s      1 1s      1 1s   
                                   1 1s      1 1s      1 1s      1 1s      1 1s      1 1s      1 1s      1 1s      1 1s      1 1s   
                                   1 1s      1 1s      1 1s      1 1s      1 1s      1 1s      1 1s      1 1s      1 1s      1 1s   
                                   1 3d0     1 3d2+    1 3d0     1 3d2+    1 3d0     1 3d2+    1 3d0     1 3d2+    1 3d0     1 3d2+ 
                                   1 3d0     1 3d2+    1 3d0     1 3d2+    1 3d0     1 3d2+    1 3d0     1 3d2+    1 3d0     1 3d2+ 
                                   1 3d0     1 3d2+    1 3d0     1 3d2+    1 3d0     1 3d2+    1 3d0     1 3d2+    1 3d0     1 3d2+ 
                                   1 3d0     1 3d2+    1 3d0     1 3d2+    1 5g0     1 5g4+    1 5g2+    1 5g0     1 5g4+    1 5g2+ 
                                   1 5g0     1 5g4+    1 5g2+ 

   1.1  2.00000    -3.795414    -0.000000  0.000000 -0.000000  0.000000 -0.000000  0.000000 -0.000001  0.000003 -0.000008  0.000023
                                -0.000062  0.000160 -0.000409  0.001034 -0.002604  0.006527 -0.014865  0.002274  0.238096 -0.710641
                                -0.183180  0.897435  0.526004  0.031338 -0.014526  0.006977  0.091778 -0.056534 -0.002906  0.000719
                                 0.000000  0.000000  0.000000  0.000000  0.000000  0.000000  0.000000  0.000000  0.000000  0.000000
                                 0.000000  0.000000  0.000000  0.000000  0.000000  0.000000  0.000000  0.000000  0.000000  0.000000
                                 0.000000  0.000000  0.000000  0.000000  0.000000  0.000000  0.000000  0.000000  0.000000  0.000000
                                 0.000000  0.000000  0.000000  0.000000  0.000000  0.000000  0.000000  0.000000  0.000000  0.000000
                                 0.000000  0.000000  0.000000

   2.1  2.00000    -0.022514     0.000000 -0.000000  0.000000 -0.000000  0.000000 -0.000000  0.000000 -0.000001  0.000002 -0.000005
                                 0.000012 -0.000031  0.000080 -0.000203  0.000515 -0.001311  0.003088 -0.000999 -0.049226  0.165627
                                 0.057835 -0.275918 -0.230280  0.101490  0.316184  0.350449 -0.046616  0.066069  0.297318  0.130239
                                 0.000000  0.000000  0.000000  0.000000  0.000000  0.000000  0.000000  0.000000  0.000000  0.000000
                                 0.000000  0.000000  0.000000  0.000000  0.000000  0.000000  0.000000  0.000000  0.000000  0.000000
                                 0.000000  0.000000  0.000000  0.000000  0.000000  0.000000  0.000000  0.000000  0.000000  0.000000
                                 0.000000  0.000000  0.000000  0.000000  0.000000  0.000000  0.000000  0.000000  0.000000  0.000000
                                 0.000000  0.000000  0.000000

   3.1  1.80000    -0.214413     0.000000  0.000000  0.000000  0.000000  0.000000  0.000000  0.000000  0.000000  0.000000  0.000000
                                 0.000000  0.000000  0.000000  0.000000  0.000000  0.000000  0.000000  0.000000  0.000000  0.000000
                                 0.000000  0.000000  0.000000  0.000000  0.000000  0.000000  0.000000  0.000000  0.000000  0.000000
                                 0.000000  0.000000 -0.000001  0.000000  0.000007  0.000000 -0.000030  0.000000  0.000144  0.000000
                                 0.000389  0.000000  0.009787  0.000000 -0.033301  0.000000  0.043937  0.000000  0.221703  0.000000
                                 0.364220  0.000000  0.333869  0.000000  0.185690  0.000000  0.048787  0.000000  0.036628  0.000000
                                 0.025442  0.000000  0.002056  0.000000  0.000000  0.000000  0.000000  0.000000  0.000000  0.000000
                                 0.000000  0.000000  0.000000

   4.1  1.80000    -0.214413     0.000000  0.000000  0.000000  0.000000  0.000000  0.000000  0.000000  0.000000  0.000000  0.000000
                                 0.000000  0.000000  0.000000  0.000000  0.000000  0.000000  0.000000  0.000000  0.000000  0.000000
                                 0.000000  0.000000  0.000000  0.000000  0.000000  0.000000  0.000000  0.000000  0.000000  0.000000
                                 0.000000  0.000000  0.000000 -0.000001  0.000000  0.000007  0.000000 -0.000030  0.000000  0.000144
                                 0.000000  0.000389  0.000000  0.009787  0.000000 -0.033301  0.000000  0.043937  0.000000  0.221703
                                 0.000000  0.364220  0.000000  0.333869  0.000000  0.185690  0.000000  0.048787  0.000000  0.036628
                                 0.000000  0.025442  0.000000  0.002056  0.000000  0.000000  0.000000  0.000000  0.000000  0.000000
                                 0.000000  0.000000  0.000000

                                   1 2px     1 2px     1 2px     1 2px     1 2px     1 2px     1 2px     1 2px     1 2px     1 2px  
                                   1 2px     1 2px     1 2px     1 2px     1 2px     1 2px     1 2px     1 2px     1 2px     1 2px  
                                   1 2px     1 2px     1 2px     1 2px     1 4f1+    1 4f3+    1 4f1+    1 4f3+    1 4f1+    1 4f3+ 
                                   1 4f1+    1 4f3+ 

   1.2  2.00000    -2.371877     0.000000 -0.000000  0.000000 -0.000000  0.000002 -0.000008  0.000029 -0.000096  0.000289 -0.000835
                                 0.002564 -0.010169  0.051784 -0.122801 -0.377296  0.344244  0.283071  0.037139 -0.004005  0.002786
                                 0.238586  0.544759 -0.001161  0.000387  0.000000  0.000000  0.000000  0.000000  0.000000  0.000000
                                 0.000000  0.000000

                                   1 2py     1 2py     1 2py     1 2py     1 2py     1 2py     1 2py     1 2py     1 2py     1 2py  
                                   1 2py     1 2py     1 2py     1 2py     1 2py     1 2py     1 2py     1 2py     1 2py     1 2py  
                                   1 2py     1 2py     1 2py     1 2py     1 4f1-    1 4f3-    1 4f1-    1 4f3-    1 4f1-    1 4f3- 
                                   1 4f1-    1 4f3- 

   1.3  2.00000    -2.371877     0.000000 -0.000000  0.000000 -0.000000  0.000002 -0.000008  0.000029 -0.000096  0.000289 -0.000835
                                 0.002564 -0.010169  0.051784 -0.122801 -0.377296  0.344244  0.283071  0.037139 -0.004005  0.002786
                                 0.238586  0.544759 -0.001161  0.000387  0.000000  0.000000  0.000000  0.000000  0.000000  0.000000
                                 0.000000  0.000000

                                   1 3d2-    1 3d2-    1 3d2-    1 3d2-    1 3d2-    1 3d2-    1 3d2-    1 3d2-    1 3d2-    1 3d2- 
                                   1 3d2-    1 3d2-    1 3d2-    1 3d2-    1 3d2-    1 3d2-    1 3d2-    1 5g2-    1 5g4-    1 5g2- 
                                   1 5g4-    1 5g2-    1 5g4- 

   1.4  1.80000    -0.214413     0.000000 -0.000001  0.000007 -0.000030  0.000144  0.000389  0.009787 -0.033301  0.043937  0.221703
                                 0.364220  0.333869  0.185690  0.048787  0.036628  0.025442  0.002056  0.000000  0.000000  0.000000
                                 0.000000  0.000000  0.000000

                                   1 2pz     1 2pz     1 2pz     1 2pz     1 2pz     1 2pz     1 2pz     1 2pz     1 2pz     1 2pz  
                                   1 2pz     1 2pz     1 2pz     1 2pz     1 2pz     1 2pz     1 2pz     1 2pz     1 2pz     1 2pz  
                                   1 2pz     1 2pz     1 2pz     1 2pz     1 4f0     1 4f2+    1 4f0     1 4f2+    1 4f0     1 4f2+ 
                                   1 4f0     1 4f2+ 

   1.5  2.00000    -2.371877     0.000000 -0.000000  0.000000 -0.000000  0.000002 -0.000008  0.000029 -0.000096  0.000289 -0.000835
                                 0.002564 -0.010169  0.051784 -0.122801 -0.377296  0.344244  0.283071  0.037139 -0.004005  0.002786
                                 0.238586  0.544759 -0.001161  0.000387  0.000000  0.000000  0.000000  0.000000  0.000000  0.000000
                                 0.000000  0.000000

                                   1 3d1+    1 3d1+    1 3d1+    1 3d1+    1 3d1+    1 3d1+    1 3d1+    1 3d1+    1 3d1+    1 3d1+ 
                                   1 3d1+    1 3d1+    1 3d1+    1 3d1+    1 3d1+    1 3d1+    1 3d1+    1 5g1+    1 5g3+    1 5g1+ 
                                   1 5g3+    1 5g1+    1 5g3+ 

   1.6  1.80000    -0.214413     0.000000 -0.000001  0.000007 -0.000030  0.000144  0.000389  0.009787 -0.033301  0.043937  0.221703
                                 0.364220  0.333869  0.185690  0.048787  0.036628  0.025442  0.002056  0.000000  0.000000  0.000000
                                 0.000000  0.000000  0.000000

                                   1 3d1-    1 3d1-    1 3d1-    1 3d1-    1 3d1-    1 3d1-    1 3d1-    1 3d1-    1 3d1-    1 3d1- 
                                   1 3d1-    1 3d1-    1 3d1-    1 3d1-    1 3d1-    1 3d1-    1 3d1-    1 5g1-    1 5g3-    1 5g1- 
                                   1 5g3-    1 5g1-    1 5g3- 

   1.7  1.80000    -0.214413     0.000000 -0.000001  0.000007 -0.000030  0.000144  0.000389  0.009787 -0.033301  0.043937  0.221703
                                 0.364220  0.333869  0.185690  0.048787  0.036628  0.025442  0.002056  0.000000  0.000000  0.000000
                                 0.000000  0.000000  0.000000

 Total charge:  -1.000000000000
 

 EXTRA SYMMETRY OF MOS IN SYMMETRY 1:   1 1 2 3 1 1 3 2 1 3   2 1 3 2 1 2 3 5 4 6   3 2 1 5 4 6 3 2 1 4   5 6 3 2 1 3 2 3 2 1
                                        3 2 1 1 2 3 1 2 3 1   2 3 1 1 2 3 1 2 3 1   1 2 3 1 1 1 1 1 1 1   1 1 1
 EXTRA SYMMETRY OF MOS IN SYMMETRY 2:   1 1 1 1 1 1 3 2 2 3   1 3 2 1 3 2 1 1 1 1   1 1 1 1 1 1 1 1 1 1   1 1
 EXTRA SYMMETRY OF MOS IN SYMMETRY 3:   1 1 1 1 1 1 3 2 3 2   1 2 3 1 3 2 1 1 1 1   1 1 1 1 1 1 1 1 1 1   1 1
 EXTRA SYMMETRY OF MOS IN SYMMETRY 4:   1 1 1 1 1 2 3 1 3 2   1 3 2 1 1 1 1 1 1 1   1 1 1
 EXTRA SYMMETRY OF MOS IN SYMMETRY 5:   1 1 1 1 1 1 2 3 2 3   1 3 2 1 3 2 1 1 1 1   1 1 1 1 1 1 1 1 1 1   1 1
 EXTRA SYMMETRY OF MOS IN SYMMETRY 7:   1 1 1 1 1 3 2 1 2 3   1 2 3 1 1 1 1 1 1 1   1 1 1

 Natural orbital dump (state averaged) at molpro section  5202.2    (Orbital set 2)


 CI vector for state symmetry 1
 ==============================

 a2 2 2 2          0.0000000   1.0000000
 2a 2 2 2          1.0000000   0.0000000

 TOTAL ENERGIES                      -126.62674541  -126.62674541

 CI vector for state symmetry 2
 ==============================

 22 a 2 2          1.0000000

 TOTAL ENERGIES                      -126.62674541

 CI vector for state symmetry 3
 ==============================

 22 2 a 2          1.0000000

 TOTAL ENERGIES                      -126.62674541

 CI vector for state symmetry 4
 ==============================

 22 2 2 a          1.0000000

 TOTAL ENERGIES                      -126.62674541



 **********************************************************************************************************************************
 DATASETS  * FILE   NREC   LENGTH (MB)   RECORD NAMES
              1      20       25.81       500      610      700      900      950      970     1000      129      960     1100   
                                          VAR    BASINP    GEOM    SYMINP    ZMAT    AOBASIS   BASIS     P2S    ABASIS      S 
                                         1400     1410     1420     1200     1210     1080     1600     1650     1700     1380   
                                           T        V       ECP      H0       H01     AOSYM     SMH    MOLCAS    OPER     JKOP   

              2       6        8.52       200      700     1000      520     4202     5202   
                                        OPTIONS   GEOM     BASIS   MCVARS     RHF     MCSCF   

 PROGRAMS   *        TOTAL     MULTI       POP       RHF  RCCSD(T)       RHF       INT
 CPU TIMES  *        51.34      1.43      0.00      1.58     19.34      0.64     27.50
 REAL TIME  *        71.99 SEC
 DISK USED  *         3.80 GB      
 SF USED    *       440.31 MB      
 GA USED    *         0.00 MB       (max)       0.00 MB       (current)
 **********************************************************************************************************************************


 PROGRAM * RHF-SCF (OPEN SHELL)       Authors: W. Meyer, H.-J. Werner


 NUMBER OF ELECTRONS:      10+    9-    SPACE SYMMETRY=1    SPIN SYMMETRY: Doublet 
 CONVERGENCE THRESHOLDS:    1.00E-05 (Density)    1.00E-07 (Energy)
 MAX. NUMBER OF ITERATIONS:        0
 INTERPOLATION TYPE:            DIIS
 INTERPOLATION STEPS:              2 (START)      1 (STEP)
 LEVEL SHIFTS:                 -0.60 (CLOSED) -0.30 (OPEN) 

 Number of closed-shell orbitals:    9 (   3   1   1   1   1   1   1   0 )
 Number of open-shell orbitals:      1 (   1   0   0   0   0   0   0   0 )


 Molecular orbitals read from record     5202.2  Type=MCSCF/NATURAL (state averaged)

 Molecular orbital dump at record        2102.2

 ITERATION    DDIFF          GRAD             ENERGY        2-EL.EN.            DIPOLE MOMENTS         DIIS   ORB.
    1      0.000D+00      0.000D+00      -126.62674541    204.571288    0.00000    0.00000    0.00000    0    start

 Final alpha occupancy:   4   1   1   1   1   1   1   0
 Final beta  occupancy:   3   1   1   1   1   1   1   0

 !RHF STATE 1.1 Energy               -126.626745412120
 Nuclear energy                         0.00000000
 One-electron energy                 -228.91238918
 Two-electron energy                  102.28564377
 Virial quotient                       -2.63286354
 !RHF STATE 1.1 Dipole moment           0.00000000     0.00000000     0.00000000
 Dipole moment /Debye                   0.00000000     0.00000000     0.00000000

 Orbital energies:

         1.1          2.1          3.1          4.1          5.1          6.1
     -3.795414    -0.022514    -0.214413    -0.214413     0.076779     0.161582

         1.2          2.2          3.2
     -2.371877     0.069101     0.130123

         1.3          2.3          3.3
     -2.371877     0.069101     0.130123

         1.4          2.4          3.4
     -0.214413     0.216272     0.479519

         1.5          2.5          3.5
     -2.371877     0.069101     0.130123

         1.6          2.6          3.6
     -0.214413     0.216272     0.479519

         1.7          2.7          3.7
     -0.214413     0.216272     0.479519

         1.8          2.8
      1.034404     2.188821

 HOMO      4.1    -0.214413 =      -5.8345eV
 LUMO      2.2     0.069101 =       1.8803eV
 LUMO-HOMO         0.283513 =       7.7148eV


 **********************************************************************************************************************************
[...]

              2      17       37.89       200      700     1000      520     4202     5202     2102     2105     5202(1)  2107   
                                        OPTIONS   GEOM     BASIS   MCVARS     RHF     MCSCF     RHF      RHF     MCSCF     RHF  
                                         2109     2111     2113     2115     2117     2119     2120   
                                          RHF      RHF      RHF      RHF      RHF      RHF      RHF  

 PROGRAMS   *        TOTAL       RHF  RCCSD(T)       RHF  RCCSD(T)       RHF  RCCSD(T)       RHF     MULTI       POP       RHF
 CPU TIMES  *       208.47      0.67      3.59      0.53      7.77      0.77      9.95      0.26      2.05      0.00      1.21
 REAL TIME  *       367.55 SEC
 DISK USED  *         4.37 GB      
 SF USED    *       496.45 MB      
 GA USED    *         0.00 MB       (max)       0.00 MB       (current)
 **********************************************************************************************************************************
 SETTING SCF(12)        =       -69.59012163  AU                              
 SETTING _CC_NORM_MAX   =         2.00000000                                  


 PROGRAM * CCSD (Restricted open-shell coupled cluster)     Authors: C. Hampel, H.-J. Werner, 1991, M. Deegan, P.J. Knowles, 1992


 Convergence thresholds:  THRVAR = 1.00D-08  THRDEN = 1.00D-06

 CCSD(T)     terms to be evaluated (factor= 1.000)


 Number of closed-shell orbitals:   1 (   1   0   0   0   0   0   0   0 )
 Number of active  orbitals:        3 (   0   1   1   0   1   0   0   0 )
 Number of external orbitals:     238 (  72  31  31  23  31  23  23   4 )

 Memory could be reduced to 19.53 Mwords without degradation in triples

 Number of N-1 electron functions:               5
 Number of N-2 electron functions:              10
 Number of singly external CSFs:               240
 Number of doubly external CSFs:             54682
 Total number of CSFs:                       54922

 Molecular orbitals read from record     2120.2  Type=RHF/CANONICAL (state 1.8)

 Integral transformation finished. Total CPU:   0.38 sec, npass=  1  Memory used:   2.49 MW

 Starting RMP2 calculation

 Wavefunction is spin-projected

 ITER.      SQ.NORM     CORR.ENERGY   TOTAL ENERGY   ENERGY CHANGE        DEN1      VAR(S)    VAR(P)  DIIS     TIME
   1      1.02036868    -0.14455333   -69.73467496    -0.14455333    -0.00011809  0.10D-07  0.18D-04  1  1     0.40
   2      1.02041390    -0.14467618   -69.73479780    -0.00012284    -0.00000001  0.29D-11  0.16D-08  2  2     0.54
   3      1.02041412    -0.14467659   -69.73479821    -0.00000041    -0.00000000  0.27D-15  0.16D-12  3  3     0.69

 Norm of t1 vector:      0.00766390      S-energy:    -0.00047690      T1 diagnostic:  0.00011481
 Norm of t2 vector:      0.14267229      P-energy:    -0.14419968
                                         Alpha-Beta:  -0.10960071
                                         Alpha-Alpha: -0.03459897
                                         Beta-Beta:    0.00000000

 Spin contamination <S**2-Sz**2-Sz>     0.00000000
  Reference energy                    -69.590121625681
  RHF-RMP2 correlation energy          -0.144676585990
 !RHF-RMP2 energy                     -69.734798211670
 (NB above energy spin projected)

 Starting RCCSD calculation

 ITER.      SQ.NORM     CORR.ENERGY   TOTAL ENERGY   ENERGY CHANGE        DEN1      VAR(S)    VAR(P)  DIIS     TIME
   1      1.02479041    -0.15698561   -69.74710724    -0.15698561    -0.00269765  0.99D-05  0.41D-03  1  1     0.85
   2      1.02605312    -0.15985310   -69.74997473    -0.00286749    -0.00003082  0.17D-07  0.41D-05  2  2     1.01
   3      1.02615519    -0.15999774   -69.75011936    -0.00014463    -0.00000039  0.67D-09  0.48D-07  3  3     1.14
   4      1.02616463    -0.16001166   -69.75013329    -0.00001392    -0.00000000  0.24D-10  0.21D-09  4  4     1.24
   5      1.02616475    -0.16001157   -69.75013319     0.00000009    -0.00000000  0.81D-13  0.12D-11  5  5     1.39

 Norm of t1 vector:      0.00816363      S-energy:    -0.00045419      T1 diagnostic:  0.00113024
                                                                       D1 diagnostic:  0.00161452
 Norm of t2 vector:      0.16154909      P-energy:    -0.15955738
                                         Alpha-Beta:  -0.12422304
                                         Alpha-Alpha: -0.03533434
                                         Beta-Beta:    0.00000000

 Spin contamination <S**2-Sz**2-Sz>     0.00000000

 Memory could be reduced to 19.88 Mwords without degradation in triples
 

  Correlated core orbitals:             1.1       1.2       1.3       1.5
  Orbital energies:                   -13.3179  -11.6130  -11.6130  -11.6130
 
  RCCSD core-core energy               -0.160011569029
 

 RESULTS
 =======

  Reference energy                    -69.590121625681
  RCCSD singles energy                 -0.000454185493
  RCCSD pair energy                    -0.159557383536
  RCCSD correlation energy             -0.160011569029
  Triples (T) contribution             -0.003004869969
  Total correlation energy             -0.163016438998
 
  RHF-RCCSD energy                    -69.750133194710
  RHF-RCCSD[T] energy                 -69.753136601729
  RHF-RCCSD-T energy                  -69.753136372115
 !RHF-RCCSD(T) energy                 -69.753138064679

 Program statistics:

 Available memory in ccsd:               511999732
 Min. memory needed in ccsd:                440371
 Max. memory used in ccsd:                  489107
 Max. memory used in cckext:                507829 ( 5 integral passes)
 Max. memory used in cckint:               2485465 ( 1 integral passes)



 **********************************************************************************************************************************
 DATASETS  * FILE   NREC   LENGTH (MB)   RECORD NAMES
              1      20       25.81       500      610      700      900      950      970     1000      129      960     1100   
                                          VAR    BASINP    GEOM    SYMINP    ZMAT    AOBASIS   BASIS     P2S    ABASIS      S 
                                         1400     1410     1420     1200     1210     1080     1600     1650     1700     1380   
                                           T        V       ECP      H0       H01     AOSYM     SMH    MOLCAS    OPER     JKOP   

              2      17       37.89       200      700     1000      520     4202     5202     2102     2105     5202(1)  2107   
                                        OPTIONS   GEOM     BASIS   MCVARS     RHF     MCSCF     RHF      RHF     MCSCF     RHF  
                                         2109     2111     2113     2115     2117     2119     2120   
                                          RHF      RHF      RHF      RHF      RHF      RHF      RHF  

 PROGRAMS   *        TOTAL  RCCSD(T)       RHF  RCCSD(T)       RHF  RCCSD(T)       RHF  RCCSD(T)       RHF     MULTI       POP
 CPU TIMES  *       210.67      2.20      0.67      3.59      0.53      7.77      0.77      9.95      0.26      2.05      0.00
 REAL TIME  *       374.68 SEC
 DISK USED  *         4.37 GB      
 SF USED    *       496.45 MB      
 GA USED    *         0.00 MB       (max)       0.00 MB       (current)
 **********************************************************************************************************************************
 SETTING CCSD(12)       =       -69.75313806  AU                              

 DO I                   =        13.00000000   

 Running procedure=XVIIS2


 PROGRAM * RHF-SCF (CLOSED SHELL)       Authors: W. Meyer, H.-J. Werner


 NUMBER OF ELECTRONS:       1+    1-    SPACE SYMMETRY=1    SPIN SYMMETRY: Singlet 
 CONVERGENCE THRESHOLDS:    1.00E-05 (Density)    1.00E-07 (Energy)
 MAX. NUMBER OF ITERATIONS:       60
 INTERPOLATION TYPE:            DIIS
 INTERPOLATION STEPS:              2 (START)      1 (STEP)
 LEVEL SHIFTS:                  0.00 (CLOSED)  0.00 (OPEN) 



 Orbital guess generated from atomic densities. Full valence occupancy:    4   1   1   1   1   1   1   0


 Molecular orbital dump at record        2121.2

 Initial occupancy:   1   0   0   0   0   0   0   0

 ITERATION    DDIFF          GRAD             ENERGY        2-EL.EN.            DIPOLE MOMENTS         DIIS   ORB.
    1      0.000D+00      0.000D+00       -31.59215899      1.866963    0.00000    0.00000    0.00000    0    start
    2      0.000D+00      0.168D+00       -32.19263258      2.092036    0.00000    0.00000    0.00000    1    diag
    3      0.363D-01      0.126D-01       -32.19590817      2.108388    0.00000    0.00000    0.00000    2    diag
    4      0.477D-02      0.768D-04       -32.19590826      2.108467    0.00000    0.00000    0.00000    3    diag
    5      0.121D-03      0.186D-05       -32.19590826      2.108465    0.00000    0.00000    0.00000    4    diag
    6      0.829D-06      0.375D-07       -32.19590826      2.108465    0.00000    0.00000    0.00000    0    orth

 Final occupancy:   1   0   0   0   0   0   0   0

 !RHF STATE 1.1 Energy                -32.195908260497
 Nuclear energy                         0.00000000
 One-electron energy                  -33.25014075
 Two-electron energy                    1.05423249
 Virial quotient                       -6.01636437
 !RHF STATE 1.1 Dipole moment           0.00000000     0.00000000     0.00000000
 Dipole moment /Debye                   0.00000000     0.00000000     0.00000000

 Orbital energies:

         1.1          2.1          3.1
    -15.570838   -10.897543   -10.897543

         1.2          2.2
    -13.325814    -8.289209

         1.3          2.3
    -13.325814    -8.289209

         1.4          2.4
    -10.897543    -6.433155

         1.5          2.5
    -13.325814    -8.289209

         1.6          2.6
    -10.897543    -6.433155

         1.7          2.7
    -10.897543    -6.433155

         1.8          2.8
     -8.289209    -5.238205

 HOMO      1.1   -15.570838 =    -423.7041eV
 LUMO      1.2   -13.325814 =    -362.6138eV
 LUMO-HOMO         2.245024 =      61.0902eV


 **********************************************************************************************************************************
 DATASETS  * FILE   NREC   LENGTH (MB)   RECORD NAMES
              1      20       25.81       500      610      700      900      950      970     1000      129      960     1100   
                                          VAR    BASINP    GEOM    SYMINP    ZMAT    AOBASIS   BASIS     P2S    ABASIS      S 
                                         1400     1410     1420     1200     1210     1080     1600     1650     1700     1380   
                                           T        V       ECP      H0       H01     AOSYM     SMH    MOLCAS    OPER     JKOP   

              2      18       40.71       200      700     1000      520     4202     5202     2102     2105     5202(1)  2107   
                                        OPTIONS   GEOM     BASIS   MCVARS     RHF     MCSCF     RHF      RHF     MCSCF     RHF  
                                         2109     2111     2113     2115     2117     2119     2120     2121   
                                          RHF      RHF      RHF      RHF      RHF      RHF      RHF      RHF  

 PROGRAMS   *        TOTAL       RHF  RCCSD(T)       RHF  RCCSD(T)       RHF  RCCSD(T)       RHF  RCCSD(T)       RHF     MULTI
 CPU TIMES  *       211.33      0.54      2.20      0.67      3.59      0.53      7.77      0.77      9.95      0.26      2.05
 REAL TIME  *       375.67 SEC
 DISK USED  *         4.37 GB      
 SF USED    *       496.45 MB      
 GA USED    *         0.00 MB       (max)       0.00 MB       (current)
 **********************************************************************************************************************************
 SETTING SCF(13)        =       -32.19590826  AU                              
 SETTING _CC_NORM_MAX   =         2.00000000                                  


 PROGRAM * CCSD (Restricted open-shell coupled cluster)     Authors: C. Hampel, H.-J. Werner, 1991, M. Deegan, P.J. Knowles, 1992


 Convergence thresholds:  THRVAR = 1.00D-08  THRDEN = 1.00D-06

 CCSD(T)     terms to be evaluated (factor= 1.000)


 Number of closed-shell orbitals:   1 (   1   0   0   0   0   0   0   0 )
 Number of external orbitals:     241 (  72  32  32  23  32  23  23   4 )

 Memory could be reduced to 14.26 Mwords without degradation in triples

 Number of N-1 electron functions:               2
 Number of N-2 electron functions:               1
 Number of singly external CSFs:               144
 Number of doubly external CSFs:              9859
 Total number of CSFs:                       10003

 Molecular orbitals read from record     2121.2  Type=RHF/CANONICAL (state 1.1)

 Integral transformation finished. Total CPU:   0.12 sec, npass=  1  Memory used:   1.01 MW

 Starting RMP2 calculation

 Wavefunction is spin-projected

 ITER.      SQ.NORM     CORR.ENERGY   TOTAL ENERGY   ENERGY CHANGE        DEN1      VAR(S)    VAR(P)  DIIS     TIME
   1      1.01127002    -0.06041104   -32.25631930    -0.06041104    -0.00008279  0.31D-19  0.17D-04  1  1     0.18
   2      1.01130722    -0.06049725   -32.25640551    -0.00008621    -0.00000000  0.14D-22  0.35D-09  2  2     0.20
   3      1.01130731    -0.06049741   -32.25640567    -0.00000016    -0.00000000  0.23D-27  0.49D-14  3  3     0.22

 Norm of t1 vector:      0.00000000      S-energy:    -0.00000000      T1 diagnostic:  0.00000000
 Norm of t2 vector:      0.10633585      P-energy:    -0.06049741
                                         Alpha-Beta:  -0.06049741
                                         Alpha-Alpha:  0.00000000
                                         Beta-Beta:    0.00000000

 Spin contamination <S**2-Sz**2-Sz>     0.00000000
  Reference energy                    -32.195908260497
  RHF-RMP2 correlation energy          -0.060497407849
 !RHF-RMP2 energy                     -32.256405668347
 (NB above energy spin projected)

 Starting RCCSD calculation

 ITER.      SQ.NORM     CORR.ENERGY   TOTAL ENERGY   ENERGY CHANGE        DEN1      VAR(S)    VAR(P)  DIIS     TIME
   1      1.01552132    -0.06790611   -32.26381438    -0.06790611    -0.00308073  0.31D-05  0.61D-03  1  1     0.24
   2      1.01815640    -0.07201642   -32.26792468    -0.00411031    -0.00003064  0.32D-07  0.40D-05  2  2     0.26
   3      1.01835707    -0.07227683   -32.26818509    -0.00026041    -0.00000019  0.51D-10  0.18D-07  3  3     0.28
   4      1.01835612    -0.07227340   -32.26818166     0.00000344    -0.00000000  0.21D-12  0.76D-10  4  4     0.34
   5      1.01835654    -0.07227401   -32.26818227    -0.00000061    -0.00000000  0.69D-14  0.11D-12  5  5     0.38

 Norm of t1 vector:      0.00226787      S-energy:    -0.00000000      T1 diagnostic:  0.00113394
                                                                       D1 diagnostic:  0.00160363
 Norm of t2 vector:      0.13546733      P-energy:    -0.07227401
                                         Alpha-Beta:  -0.07227401
                                         Alpha-Alpha:  0.00000000
                                         Beta-Beta:    0.00000000

 Doubles amplitudes (print threshold =  0.500E-01):

         I         J         SYM. A    SYM. B    A         B      T(IJ, AB) [Alpha-Beta]

         1         1         2         2         1         1     -0.07613055
         1         1         3         3         1         1     -0.07613055
         1         1         5         5         1         1     -0.07613055

 Spin contamination <S**2-Sz**2-Sz>     0.00000000

 Memory could be reduced to 13.99 Mwords without degradation in triples
 

  Correlated core orbitals:             1.1
  Orbital energies:                   -15.5708
 
  RCCSD core-core energy               -0.072274007444
 

 RESULTS
 =======

  Reference energy                    -32.195908260497
  RCCSD singles energy                 -0.000000000135
  RCCSD pair energy                    -0.072274007309
  RCCSD correlation energy             -0.072274007444
  Triples (T) contribution              0.000000000000
  Total correlation energy             -0.072274007444
 
  RHF-RCCSD energy                    -32.268182267941
  RHF-RCCSD[T] energy                 -32.268182267941
  RHF-RCCSD-T energy                  -32.268182267941
 !RHF-RCCSD(T) energy                 -32.268182267941

 Program statistics:

 Available memory in ccsd:               511999882
 Min. memory needed in ccsd:                281125
 Max. memory used in ccsd:                  281125
 Max. memory used in cckext:                369777 ( 5 integral passes)
 Max. memory used in cckint:               1009422 ( 1 integral passes)



 **********************************************************************************************************************************
 DATASETS  * FILE   NREC   LENGTH (MB)   RECORD NAMES
              1      20       25.81       500      610      700      900      950      970     1000      129      960     1100   
                                          VAR    BASINP    GEOM    SYMINP    ZMAT    AOBASIS   BASIS     P2S    ABASIS      S 
                                         1400     1410     1420     1200     1210     1080     1600     1650     1700     1380   
                                           T        V       ECP      H0       H01     AOSYM     SMH    MOLCAS    OPER     JKOP   

              2      18       40.71       200      700     1000      520     4202     5202     2102     2105     5202(1)  2107   
                                        OPTIONS   GEOM     BASIS   MCVARS     RHF     MCSCF     RHF      RHF     MCSCF     RHF  
                                         2109     2111     2113     2115     2117     2119     2120     2121   
                                          RHF      RHF      RHF      RHF      RHF      RHF      RHF      RHF  

 PROGRAMS   *        TOTAL  RCCSD(T)       RHF  RCCSD(T)       RHF  RCCSD(T)       RHF  RCCSD(T)       RHF  RCCSD(T)       RHF
 CPU TIMES  *       211.94      0.60      0.54      2.20      0.67      3.59      0.53      7.77      0.77      9.95      0.26
 REAL TIME  *       377.51 SEC
 DISK USED  *         4.37 GB      
 SF USED    *       496.45 MB      
 GA USED    *         0.00 MB       (max)       0.00 MB       (current)
 **********************************************************************************************************************************
 SETTING CCSD(13)       =       -32.26818227  AU                              
 Output type csv         
                                                                                                                                                                                                                                                                

        SCF,CCSD
   -126.63232107,   -127.38585463
   -126.62674541,   -127.39760229
   -126.62689904,   -127.35377205
   -126.54919808,   -127.27142286
   -126.39524552,   -127.07918275
   -126.30555430,   -126.96764581
   -125.75284699,   -126.37082040
   -124.60858820,   -125.17135952
   -122.91348675,   -123.42797725
   -120.67360860,   -121.13280829
    -98.40359832,    -98.72243490
    -69.59012163,    -69.75313806
    -32.19590826,    -32.26818227
                                                  

 RCCSD(T)/USERDEF energy=    -32.268182267941

        RCCSD(T)        RHF-SCF         RCCSD(T)        RHF-SCF         RCCSD(T)        RHF-SCF         RCCSD(T)        RHF-SCF 
    -32.26818227    -32.19590826    -69.75313806    -69.59012163    -98.72243490    -98.40359832   -121.13280829   -120.67360860
 **********************************************************************************************************************************
 Molpro calculation terminated
 Variable memory released
