
 Primary working directories    : /global/cscratch1/sd/aannabe
 Secondary working directories  : /global/cscratch1/sd/aannabe
 Wavefunction directory         : /global/homes/a/aannabe/wfu/
 Main file repository           : /global/cscratch1/sd/aannabe/

 SHA1      : 19cd028119e0e09f93f0674bd8af7968d9b3eff6
 NAME      : 2015.1.36
 ARCHNAME  : linux/x86_64
 FC        : /opt/cray/pe/craype/2.5.14/bin/ftn
 BLASLIB   : -L/opt/intel/compilers_and_libraries_2018.1.163/linux/mkl/lib/intel64 -Wl,-_start-group -lmkl_intel_ilp64 -lmkl_intel_thread -lmkl_core -Wl,-_end-group -liomp5
 id        : lbl

 Nodes     nprocs
 nid00746    15
 Number of processes for MPI-2 version of Molpro:   nprocs(total)=   16   nprocs(compute)=   15   nprocs(helper)=    1

 Using customized tuning parameters: mindgm=7; mindgv=16; mindgc=1; mindgr=1; noblas=0; minvec=7
 default implementation of scratch files=sf  

 ***,Ir
 memory,512,m
 
 gthresh,twoint=1.e-12
 gprint,basis,orbitals
 
 angstrom
 geometry={
 1                                                                               ! Number of atoms
 Ir 0.0 0.0 0.0
 }
 
 basis={
 Including file /global/cscratch1/sd/aannabe/repos/heavy_element_ecps/basis_sets/tutorial_generate/Ir/coefficients/ecp.molpro
 Including file /global/cscratch1/sd/aannabe/repos/heavy_element_ecps/basis_sets/tutorial_generate/Ir/coefficients/basis.molpro
 }
 
 {rhf
  start,atden
  wf,17,1,3
  occ,4,1,1,1,1,1,1,0
  closed,4,1,1,0,1,0,0,0
  sym,1,1,1,3,2
  orbital,4202.2
 }
 pop
 {multi
  start,4202.2
  maxit,40
  occ,4,1,1,1,1,1,1,0
  frozen,2,1,1,0,1,0,0
  wf,17,1,3;state,1
  wf,17,4,3;state,3
  wf,17,6,3;state,3
  wf,17,7,3;state,3
  orbital,4203.2
 }
 {multi
  start,4203.2
  maxit,40
  occ,4,1,1,1,1,1,1,0
  closed,2,1,1,0,1,0,0
  wf,17,1,3;state,1
  wf,17,4,3;state,3
  wf,17,6,3;state,3
  wf,17,7,3;state,3
  natorb,ci,print
  orbital,5202.2
 }
 {rhf,nitord=1,maxit=0
  start,5202.2
  wf,17,1,3
  occ,4,1,1,1,1,1,1,0
  closed,4,1,1,0,1,0,0,0
  print,orbitals=2
 }
 
 {ci;maxit,100;core,1,1,1,0,1,0,0,0
  natorb,ci,print=15
 }

 Variables initialized (889), CPU time= 0.01 sec
 Commands  initialized (702), CPU time= 0.01 sec, 572 directives.
 Default parameters read. Elapsed time= 0.20 sec

 Checking input...
 Passed
1


                                         ***  PROGRAM SYSTEM MOLPRO  ***
                                       Copyright, TTI GmbH Stuttgart, 2015
                                    Version 2015.1 linked Dec 29 2018 15:55:43


 **********************************************************************************************************************************
 LABEL *   Ir                                                                            
  64 bit mpp version                                                                     DATE: 10-Sep-21          TIME: 14:00:09  
 **********************************************************************************************************************************

 SHA1:             19cd028119e0e09f93f0674bd8af7968d9b3eff6
 **********************************************************************************************************************************

 THRESHOLDS:

 ZERO    =  1.00D-12  ONEINT  =  1.00D-12  TWOINT  =  1.00D-12  PREFAC  =  1.00D-14  LOCALI  =  1.00D-09  EORDER  =  1.00D-04
 ENERGY  =  0.00D+00  ETEST   =  0.00D+00  EDENS   =  0.00D+00  THRDEDEF=  1.00D-06  GRADIENT=  1.00D-02  STEP    =  1.00D-03
 ORBITAL =  1.00D-05  CIVEC   =  1.00D-05  COEFF   =  1.00D-04  PRINTCI =  5.00D-02  PUNCHCI =  9.90D+01  OPTGRAD =  3.00D-04
 OPTENERG=  1.00D-06  OPTSTEP =  3.00D-04  THRGRAD =  1.00D-10  COMPRESS=  1.00D-11  VARMIN  =  1.00D-07  VARMAX  =  1.00D-03
 THRDOUB =  0.00D+00  THRDIV  =  1.00D-05  THRRED  =  1.00D-07  THRPSP  =  1.00D+00  THRDC   =  1.00D-10  THRCS   =  1.00D-10
 THRNRM  =  1.00D-08  THREQ   =  0.00D+00  THRDE   =  1.00D+00  THRREF  =  1.00D-05  SPARFAC =  1.00D+00  THRDLP  =  1.00D-07
 THRDIA  =  1.00D-10  THRDLS  =  1.00D-07  THRGPS  =  0.00D+00  THRKEX  =  0.00D+00  THRDIS  =  2.00D-01  THRVAR  =  1.00D-10
 THRLOC  =  1.00D-06  THRGAP  =  1.00D-06  THRLOCT = -1.00D+00  THRGAPT = -1.00D+00  THRORB  =  1.00D-06  THRMLTP =  0.00D+00
 THRCPQCI=  1.00D-10  KEXTA   =  0.00D+00  THRCOARS=  0.00D+00  SYMTOL  =  1.00D-06  GRADTOL =  1.00D-06  THROVL  =  1.00D-08
 THRORTH =  1.00D-08  GRID    =  1.00D-06  GRIDMAX =  1.00D-03  DTMAX   =  0.00D+00  THROCCDE=  1.00D-01  THROCCDE=  1.00D-01



 ZUNIT=ANG
 

Geometry recognized as XYZ


 Variable memory set to  512000000 words,  buffer space   230000 words

 SETTING BASIS          =    USERDEF


 Recomputing integrals since basis changed


 Using spherical harmonics



 PROGRAM * SEWARD (Integral evaluation for generally contracted gaussian basis sets)     Author: Roland Lindh, 1990

 Geometry written to block  1 of record 700

 Orientation using atomic masses  
 Molecule type: Atom
 Symmetry elements: X,Y,Z
 Rotational constants:       0.0000000      0.0000000      0.0000000 GHz  (calculated with average atomic masses)

 Point group  D2h 



 ATOMIC COORDINATES

 NR  ATOM    CHARGE       X              Y              Z

   1  IR     17.00    0.000000000    0.000000000    0.000000000


          IR  CORE POTENTIAL

          g POTENTIAL

 POWERS             1              3              2              2
 EXPONENTIALS   12.17107       12.17014       5.602984       12.32034    
 COEFFICIENTS   17.00000       206.9082      -23.15704      -143.2084    

          s - g POTENTIAL

 POWERS             2              2
 EXPONENTIALS   6.284095       13.82629    
 COEFFICIENTS   76.59951       438.8739    

          p - g POTENTIAL

 POWERS             2              2
 EXPONENTIALS   5.346383       11.26419    
 COEFFICIENTS   61.99194       262.7501    

          d - g POTENTIAL

 POWERS             2              2
 EXPONENTIALS   4.766746       6.815210    
 COEFFICIENTS   31.12365       123.9560    

          f - g POTENTIAL

 POWERS             2              2
 EXPONENTIALS   2.786350       2.592946    
 COEFFICIENTS   10.32928       11.88570    


 BASIS DATA

   Nr Sym  Nuc  Type         Exponents   Contraction coefficients

    1.1 Ag    1  1s          99.353085     1.000000
    2.1 Ag    1  1s          48.617874     1.000000
    3.1 Ag    1  1s          23.790884     1.000000
    4.1 Ag    1  1s          11.641935     1.000000
    5.1 Ag    1  1s           5.696916     1.000000
    6.1 Ag    1  1s           2.787754     1.000000
    7.1 Ag    1  1s           1.364172     1.000000
    8.1 Ag    1  1s           0.667550     1.000000
    9.1 Ag    1  1s           0.326662     1.000000
   10.1 Ag    1  1s           0.159850     1.000000
   11.1 Ag    1  1s           0.078222     1.000000
   12.1 Ag    1  1s           0.038277     1.000000
   13.1 Ag    1  3d0         80.923702     1.000000
   14.1 Ag    1  3d2+        80.923702     1.000000
   15.1 Ag    1  3d0         40.690033     1.000000
   16.1 Ag    1  3d2+        40.690033     1.000000
   17.1 Ag    1  3d0         20.459751     1.000000
   18.1 Ag    1  3d2+        20.459751     1.000000
   19.1 Ag    1  3d0         10.287566     1.000000
   20.1 Ag    1  3d2+        10.287566     1.000000
   21.1 Ag    1  3d0          5.172791     1.000000
   22.1 Ag    1  3d2+         5.172791     1.000000
   23.1 Ag    1  3d0          2.600981     1.000000
   24.1 Ag    1  3d2+         2.600981     1.000000
   25.1 Ag    1  3d0          1.307825     1.000000
   26.1 Ag    1  3d2+         1.307825     1.000000
   27.1 Ag    1  3d0          0.657600     1.000000
   28.1 Ag    1  3d2+         0.657600     1.000000
   29.1 Ag    1  3d0          0.330654     1.000000
   30.1 Ag    1  3d2+         0.330654     1.000000
   31.1 Ag    1  3d0          0.166260     1.000000
   32.1 Ag    1  3d2+         0.166260     1.000000
   33.1 Ag    1  3d0          0.083599     1.000000
   34.1 Ag    1  3d2+         0.083599     1.000000
   35.1 Ag    1  3d0          0.042035     1.000000
   36.1 Ag    1  3d2+         0.042035     1.000000
    1.2 B3u   1  2px         87.910311     1.000000
    2.2 B3u   1  2px         44.797652     1.000000
    3.2 B3u   1  2px         22.828148     1.000000
    4.2 B3u   1  2px         11.632850     1.000000
    5.2 B3u   1  2px          5.927909     1.000000
    6.2 B3u   1  2px          3.020765     1.000000
    7.2 B3u   1  2px          1.539332     1.000000
    8.2 B3u   1  2px          0.784419     1.000000
    9.2 B3u   1  2px          0.399727     1.000000
   10.2 B3u   1  2px          0.203694     1.000000
   11.2 B3u   1  2px          0.103799     1.000000
   12.2 B3u   1  2px          0.052894     1.000000
    1.3 B2u   1  2py         87.910311     1.000000
    2.3 B2u   1  2py         44.797652     1.000000
    3.3 B2u   1  2py         22.828148     1.000000
    4.3 B2u   1  2py         11.632850     1.000000
    5.3 B2u   1  2py          5.927909     1.000000
    6.3 B2u   1  2py          3.020765     1.000000
    7.3 B2u   1  2py          1.539332     1.000000
    8.3 B2u   1  2py          0.784419     1.000000
    9.3 B2u   1  2py          0.399727     1.000000
   10.3 B2u   1  2py          0.203694     1.000000
   11.3 B2u   1  2py          0.103799     1.000000
   12.3 B2u   1  2py          0.052894     1.000000
    1.4 B1g   1  3d2-        80.923702     1.000000
    2.4 B1g   1  3d2-        40.690033     1.000000
    3.4 B1g   1  3d2-        20.459751     1.000000
    4.4 B1g   1  3d2-        10.287566     1.000000
    5.4 B1g   1  3d2-         5.172791     1.000000
    6.4 B1g   1  3d2-         2.600981     1.000000
    7.4 B1g   1  3d2-         1.307825     1.000000
    8.4 B1g   1  3d2-         0.657600     1.000000
    9.4 B1g   1  3d2-         0.330654     1.000000
   10.4 B1g   1  3d2-         0.166260     1.000000
   11.4 B1g   1  3d2-         0.083599     1.000000
   12.4 B1g   1  3d2-         0.042035     1.000000
    1.5 B1u   1  2pz         87.910311     1.000000
    2.5 B1u   1  2pz         44.797652     1.000000
    3.5 B1u   1  2pz         22.828148     1.000000
    4.5 B1u   1  2pz         11.632850     1.000000
    5.5 B1u   1  2pz          5.927909     1.000000
    6.5 B1u   1  2pz          3.020765     1.000000
    7.5 B1u   1  2pz          1.539332     1.000000
    8.5 B1u   1  2pz          0.784419     1.000000
    9.5 B1u   1  2pz          0.399727     1.000000
   10.5 B1u   1  2pz          0.203694     1.000000
   11.5 B1u   1  2pz          0.103799     1.000000
   12.5 B1u   1  2pz          0.052894     1.000000
    1.6 B2g   1  3d1+        80.923702     1.000000
    2.6 B2g   1  3d1+        40.690033     1.000000
    3.6 B2g   1  3d1+        20.459751     1.000000
    4.6 B2g   1  3d1+        10.287566     1.000000
    5.6 B2g   1  3d1+         5.172791     1.000000
    6.6 B2g   1  3d1+         2.600981     1.000000
    7.6 B2g   1  3d1+         1.307825     1.000000
    8.6 B2g   1  3d1+         0.657600     1.000000
    9.6 B2g   1  3d1+         0.330654     1.000000
   10.6 B2g   1  3d1+         0.166260     1.000000
   11.6 B2g   1  3d1+         0.083599     1.000000
   12.6 B2g   1  3d1+         0.042035     1.000000
    1.7 B3g   1  3d1-        80.923702     1.000000
    2.7 B3g   1  3d1-        40.690033     1.000000
    3.7 B3g   1  3d1-        20.459751     1.000000
    4.7 B3g   1  3d1-        10.287566     1.000000
    5.7 B3g   1  3d1-         5.172791     1.000000
    6.7 B3g   1  3d1-         2.600981     1.000000
    7.7 B3g   1  3d1-         1.307825     1.000000
    8.7 B3g   1  3d1-         0.657600     1.000000
    9.7 B3g   1  3d1-         0.330654     1.000000
   10.7 B3g   1  3d1-         0.166260     1.000000
   11.7 B3g   1  3d1-         0.083599     1.000000
   12.7 B3g   1  3d1-         0.042035     1.000000

 NUCLEAR CHARGE:                   17
 NUMBER OF PRIMITIVE AOS:         120
 NUMBER OF SYMMETRY AOS:          108
 NUMBER OF CONTRACTIONS:          108   (  36Ag  +  12B3u +  12B2u +  12B1g +  12B1u +  12B2g +  12B3g +   0Au  )
 NUMBER OF CORE ORBITALS:           4   (   1Ag  +   1B3u +   1B2u +   0B1g +   1B1u +   0B2g +   0B3g +   0Au  )
 NUMBER OF VALENCE ORBITALS:        6   (   3Ag  +   0B3u +   0B2u +   1B1g +   0B1u +   1B2g +   1B3g +   0Au  )


 NUCLEAR REPULSION ENERGY    0.00000000

 EXTRA SYMMETRY OF AOS IN SYMMETRY 1:   1 1 1 1 1 1 1 1 1 1   1 1 2 3 2 3 2 3 2 3   2 3 2 3 2 3 2 3 2 3   2 3 2 3 2 3

 Eigenvalues of metric

         1 0.238E-03 0.765E-03 0.237E-02 0.273E-02 0.273E-02 0.688E-02 0.688E-02 0.689E-02
         2 0.673E-03 0.203E-02 0.595E-02 0.163E-01 0.421E-01 0.103E+00 0.240E+00 0.528E+00
         3 0.673E-03 0.203E-02 0.595E-02 0.163E-01 0.421E-01 0.103E+00 0.240E+00 0.528E+00
         4 0.273E-02 0.688E-02 0.174E-01 0.416E-01 0.941E-01 0.201E+00 0.406E+00 0.768E+00
         5 0.673E-03 0.203E-02 0.595E-02 0.163E-01 0.421E-01 0.103E+00 0.240E+00 0.528E+00
         6 0.273E-02 0.688E-02 0.174E-01 0.416E-01 0.941E-01 0.201E+00 0.406E+00 0.768E+00
         7 0.273E-02 0.688E-02 0.174E-01 0.416E-01 0.941E-01 0.201E+00 0.406E+00 0.768E+00


 Contracted 2-electron integrals neglected if value below      1.0D-12
 AO integral compression algorithm  1   Integral accuracy      1.0D-12

     40.894 MB (compressed) written to integral file ( 61.0%)

     Node minimum: 0.262 MB, node maximum: 13.369 MB


 NUMBER OF SORTED TWO-ELECTRON INTEGRALS:     158490.     BUFFER LENGTH:  32768
 NUMBER OF SEGMENTS:   1  SEGMENT LENGTH:     158490      RECORD LENGTH: 524288

 Memory used in sort:       0.72 MW

 SORT1 READ     8315136. AND WROTE      139436. INTEGRALS IN      1 RECORDS. CPU TIME:     0.32 SEC, REAL TIME:     0.77 SEC
 SORT2 READ     2086209. AND WROTE     2382561. INTEGRALS IN     90 RECORDS. CPU TIME:     0.01 SEC, REAL TIME:     0.02 SEC

 Node minimum:      151566.  Node maximum:      174231. integrals

 OPERATOR DM      FOR CENTER  0  COORDINATES:    0.000000    0.000000    0.000000


 **********************************************************************************************************************************
 DATASETS  * FILE   NREC   LENGTH (MB)   RECORD NAMES
              1      19       19.97       500      610      700      900      950      970     1000      129      960     1100   
                                          VAR    BASINP    GEOM    SYMINP    ZMAT    AOBASIS   BASIS     P2S    ABASIS      S 
                                         1400     1410     1420     1200     1210     1080     1600     1650     1700   
                                           T        V       ECP      H0       H01     AOSYM     SMH    MOLCAS    OPER   

 PROGRAMS   *        TOTAL       INT
 CPU TIMES  *         1.56      1.32
 REAL TIME  *         2.96 SEC
 DISK USED  *        90.13 MB      
 GA USED    *         0.00 MB       (max)       0.00 MB       (current)
 **********************************************************************************************************************************


 PROGRAM * RHF-SCF (OPEN SHELL)       Authors: W. Meyer, H.-J. Werner


 NUMBER OF ELECTRONS:      10+    7-    SPACE SYMMETRY=1    SPIN SYMMETRY: Quartet 
 CONVERGENCE THRESHOLDS:    1.00E-05 (Density)    1.00E-07 (Energy)
 MAX. NUMBER OF ITERATIONS:       60
 INTERPOLATION TYPE:            DIIS
 INTERPOLATION STEPS:              2 (START)      1 (STEP)
 LEVEL SHIFTS:                 -0.60 (CLOSED) -0.30 (OPEN) 

 Number of closed-shell orbitals:    7 (   4   1   1   0   1   0   0 )
 Number of open-shell orbitals:      3 (   0   0   0   1   0   1   1 )


 
 Extra symmetries of mos in symmetry 1:   1   1   3   2

   Atom=IR basis=cc-pVTZ-PP        lmin=0  lmax=2

 Orbital guess generated from atomic densities. Full valence occupancy:    4   1   1   1   1   1   1   0


 Molecular orbital dump at record        4202.2

 ITERATION    DDIFF          GRAD             ENERGY        2-EL.EN.            DIPOLE MOMENTS         DIIS   ORB.
    1      0.000D+00      0.000D+00      -103.66111881    153.047415    0.00000    0.00000    0.00000    0    start
    2      0.000D+00      0.432D-02      -103.66468542    152.968473    0.00000    0.00000    0.00000    1    diag,B
    3      0.339D-02      0.123D-02      -103.66557618    153.059441    0.00000    0.00000    0.00000    2    diag,B
    4      0.167D-02      0.602D-03      -103.66584188    153.031295    0.00000    0.00000    0.00000    3    diag,B
    5      0.154D-02      0.234D-03      -103.66589045    153.002606    0.00000    0.00000    0.00000    4    diag,B
    6      0.907D-03      0.108D-03      -103.66590386    152.979655    0.00000    0.00000    0.00000    5    diag,B
    7      0.711D-03      0.454D-04      -103.66590636    152.971560    0.00000    0.00000    0.00000    6    fixocc
    8      0.793D-03      0.106D-04      -103.66590647    152.970253    0.00000    0.00000    0.00000    7    diag,B
    9      0.270D-03      0.212D-05      -103.66590647    152.970324    0.00000    0.00000    0.00000    8    diag,B
   10      0.420D-04      0.488D-06      -103.66590647    152.970296    0.00000    0.00000    0.00000    9    orth
   11      0.462D-05      0.137D-06      -103.66590647    152.970290    0.00000    0.00000    0.00000    0    orth

 Final alpha occupancy:   4   1   1   1   1   1   1
 Final beta  occupancy:   4   1   1   0   1   0   0

 !RHF STATE 1.1 Energy               -103.665906468574
 Nuclear energy                         0.00000000
 One-electron energy                 -180.15105171
 Two-electron energy                   76.48514524
 Virial quotient                       -2.97347947
 !RHF STATE 1.1 Dipole moment           0.00000000     0.00000000     0.00000000
 Dipole moment /Debye                   0.00000000     0.00000000     0.00000000

 ELECTRON ORBITALS
 =================


   Orb  Occ    Energy  Couls-En    Coefficients

                                   1 1s      1 1s      1 1s      1 1s      1 1s      1 1s      1 1s      1 1s      1 1s      1 1s   
                                   1 1s      1 1s      1 3d0     1 3d2+    1 3d0     1 3d2+    1 3d0     1 3d2+    1 3d0     1 3d2+ 
                                   1 3d0     1 3d2+    1 3d0     1 3d2+    1 3d0     1 3d2+    1 3d0     1 3d2+    1 3d0     1 3d2+ 
                                   1 3d0     1 3d2+    1 3d0     1 3d2+    1 3d0     1 3d2+ 

   1.1   2    -4.2244  -18.8544 -0.000339  0.004956 -0.056953  0.360811 -0.763138 -0.206208  0.894458  0.489663  0.065916 -0.004321
                                 0.003084 -0.000795  0.000000 -0.000000 -0.000000  0.000000  0.000000 -0.000000 -0.000000  0.000000
                                 0.000000 -0.000000 -0.000000  0.000000  0.000000 -0.000000 -0.000000  0.000000  0.000000  0.000000
                                 0.000000 -0.000000 -0.000000  0.000000  0.000000 -0.000000

   2.1   2    -0.2965   -6.2573  0.000048 -0.001297  0.018225 -0.124763  0.285001  0.067531 -0.420345 -0.352040 -0.001586  0.421953
                                 0.518017  0.269625  0.000000  0.000000 -0.000000 -0.000000  0.000000  0.000000 -0.000000 -0.000000
                                 0.000000  0.000000 -0.000000 -0.000000  0.000000  0.000000 -0.000000 -0.000000  0.000000  0.000000
                                -0.000000 -0.000000  0.000000  0.000000 -0.000000  0.000000

   3.1   2    -0.4570   -9.5355 -0.000000  0.000000 -0.000000  0.000000 -0.000000  0.000000 -0.000000  0.000000 -0.000000  0.000000
                                -0.000000  0.000000 -0.000000  0.000021  0.000000 -0.000056  0.000000 -0.000421 -0.000008  0.013386
                                 0.000058 -0.092960 -0.000051  0.082777 -0.000197  0.317465 -0.000229  0.368161 -0.000178  0.286589
                                -0.000091  0.146910 -0.000027  0.043111 -0.000002  0.002973

   4.1   2    -0.4570   -9.5355  0.000000 -0.000000  0.000000 -0.000000  0.000000 -0.000000  0.000000 -0.000000  0.000000 -0.000000
                                -0.000000  0.000000  0.000021  0.000000 -0.000056 -0.000000 -0.000421 -0.000000  0.013386  0.000008
                                -0.092960 -0.000058  0.082777  0.000051  0.317465  0.000197  0.368161  0.000229  0.286589  0.000178
                                 0.146910  0.000091  0.043111  0.000027  0.002973  0.000002

                                   1 2px     1 2px     1 2px     1 2px     1 2px     1 2px     1 2px     1 2px     1 2px     1 2px  
                                   1 2px     1 2px  

   1.2   2    -2.4549  -14.9762  0.000102 -0.000246 -0.004913  0.072714 -0.272477 -0.016561  0.524747  0.463520  0.168198  0.016242
                                 0.004899 -0.000433

                                   1 2py     1 2py     1 2py     1 2py     1 2py     1 2py     1 2py     1 2py     1 2py     1 2py  
                                   1 2py     1 2py  

   1.3   2    -2.4549  -14.9762  0.000102 -0.000246 -0.004913  0.072714 -0.272477 -0.016561  0.524747  0.463520  0.168198  0.016242
                                 0.004899 -0.000433

                                   1 3d2-    1 3d2-    1 3d2-    1 3d2-    1 3d2-    1 3d2-    1 3d2-    1 3d2-    1 3d2-    1 3d2- 
                                   1 3d2-    1 3d2- 

   1.4   +    -0.5272   -9.7031  0.000020 -0.000051 -0.000447  0.013650 -0.094282  0.082139  0.325675  0.380757  0.283789  0.130144
                                 0.031163  0.001242

                                   1 2pz     1 2pz     1 2pz     1 2pz     1 2pz     1 2pz     1 2pz     1 2pz     1 2pz     1 2pz  
                                   1 2pz     1 2pz  

   1.5   2    -2.4549  -14.9762  0.000102 -0.000246 -0.004913  0.072714 -0.272477 -0.016561  0.524747  0.463520  0.168198  0.016242
                                 0.004899 -0.000433

                                   1 3d1+    1 3d1+    1 3d1+    1 3d1+    1 3d1+    1 3d1+    1 3d1+    1 3d1+    1 3d1+    1 3d1+ 
                                   1 3d1+    1 3d1+ 

   1.6   +    -0.5272   -9.7031  0.000020 -0.000051 -0.000447  0.013650 -0.094282  0.082139  0.325675  0.380757  0.283789  0.130144
                                 0.031163  0.001242

                                   1 3d1-    1 3d1-    1 3d1-    1 3d1-    1 3d1-    1 3d1-    1 3d1-    1 3d1-    1 3d1-    1 3d1- 
                                   1 3d1-    1 3d1- 

   1.7   +    -0.5272   -9.7031  0.000020 -0.000051 -0.000447  0.013650 -0.094282  0.082139  0.325675  0.380757  0.283789  0.130144
                                 0.031163  0.001242

 HOMO      4.1    -0.456961 =     -12.4345eV
 LUMO      2.2     0.047072 =       1.2809eV
 LUMO-HOMO         0.504033 =      13.7154eV


 **********************************************************************************************************************************
 DATASETS  * FILE   NREC   LENGTH (MB)   RECORD NAMES
              1      19       19.98       500      610      700      900      950      970     1000      129      960     1100   
                                          VAR    BASINP    GEOM    SYMINP    ZMAT    AOBASIS   BASIS     P2S    ABASIS      S 
                                         1400     1410     1420     1200     1210     1080     1600     1650     1700   
                                           T        V       ECP      H0       H01     AOSYM     SMH    MOLCAS    OPER   

              2       4        2.82       700     1000      520     4202   
                                         GEOM     BASIS   MCVARS     RHF  

 PROGRAMS   *        TOTAL       RHF       INT
 CPU TIMES  *         1.68      0.13      1.32
 REAL TIME  *         3.15 SEC
 DISK USED  *       437.74 MB      
 SF USED    *         0.01 MB      
 GA USED    *         0.00 MB       (max)       0.00 MB       (current)
 **********************************************************************************************************************************


 PROGRAM * POP (Mulliken population analysis)

 
 Density matrix read from record         4202.2  Type=RHF/CHARGE (state 1.1)
 
 Population analysis by basis function type

 Unique atom        s        p        d        f        g    Total    Charge
   1  IR      4.00000  6.00000  7.00000  0.00000  0.00000 17.00000  - 0.00000


 **********************************************************************************************************************************
 DATASETS  * FILE   NREC   LENGTH (MB)   RECORD NAMES
              1      19       19.98       500      610      700      900      950      970     1000      129      960     1100   
                                          VAR    BASINP    GEOM    SYMINP    ZMAT    AOBASIS   BASIS     P2S    ABASIS      S 
                                         1400     1410     1420     1200     1210     1080     1600     1650     1700   
                                           T        V       ECP      H0       H01     AOSYM     SMH    MOLCAS    OPER   

              2       4        2.82       700     1000      520     4202   
                                         GEOM     BASIS   MCVARS     RHF  

 PROGRAMS   *        TOTAL       POP       RHF       INT
 CPU TIMES  *         1.68      0.00      0.13      1.32
 REAL TIME  *         3.16 SEC
 DISK USED  *       437.74 MB      
 SF USED    *         0.01 MB      
 GA USED    *         0.00 MB       (max)       0.00 MB       (current)
 **********************************************************************************************************************************


 PROGRAM * MULTI (Direct Multiconfiguration SCF)       Authors: P.J. Knowles, H.-J. Werner (1984)     S.T. Elbert (1988)


 Number of frozen core orbitals:    5 (   2   1   1   0   1   0   0   0 )
 Number of active  orbitals:        5 (   2   0   0   1   0   1   1   0 )
 Number of external orbitals:      98 (  32  11  11  11  11  11  11   0 )

 State symmetry 1

 Number of electrons:     7    Spin symmetry=Quartet   Space symmetry=1
 Number of states:        1
 Number of CSFs:          1   (1 determinants, 10 intermediate states)

 State symmetry 2

 Number of electrons:     7    Spin symmetry=Quartet   Space symmetry=4
 Number of states:        3
 Number of CSFs:          3   (3 determinants, 10 intermediate states)

 State symmetry 3

 Number of electrons:     7    Spin symmetry=Quartet   Space symmetry=6
 Number of states:        3
 Number of CSFs:          3   (3 determinants, 10 intermediate states)

 State symmetry 4

 Number of electrons:     7    Spin symmetry=Quartet   Space symmetry=7
 Number of states:        3
 Number of CSFs:          3   (3 determinants, 10 intermediate states)

 Iteration controls:
             1  2  3  4  5  6  7  8  9 10 11 12 13 14 15 16 17 18 19 20 21 22 23 24 25 26 27 28 29 30 31 32 33 34 35 36 37 38 39
 DIAGCI      T  T  T  T  T  T  T  T  T  T  T  T  T  T  T  T  T  T  T  T  T  T  T  T  T  T  T  T  T  T  T  T  T  T  T  T  T  T  T
 WERNER      T  T  T  T  T  T  T  T  T  T  T  T  T  T  T  T  T  T  T  T  T  T  T  T  T  T  T  T  T  T  T  T  T  T  T  T  T  T  T
 INTERNAL    F  T  T  T  T  T  T  T  T  T  T  T  T  T  T  T  T  T  T  T  T  T  T  T  T  T  T  T  T  T  T  T  T  T  T  T  T  T  T

 Valence orbitals read from record       4202.2  Type=RHF/CANONICAL (state 1.1)
 Frozen core orbitals read from record   4202.2  Type=RHF/CANONICAL (state 1.1)
 *** IN SYMMETRY 1 ORBITAL  3 SYMMETRY CONTAMINATION OF 0.622D-03 HAS BEEN REMOVED
 *** IN SYMMETRY 1 ORBITAL  4 SYMMETRY CONTAMINATION OF 0.622D-03 HAS BEEN REMOVED

 EXTRA SYMMETRY OF MOS IN SYMMETRY 1:   0 0 3 2 1 3 2 2 3 1   2 3 1 3 2 1 3 2 3 2   1 2 3 1 2 3 2 3 1 2   3 1 1 2 3 1

 Wavefunction dump at record             4203.2

 Convergence thresholds  0.10E-01 (gradient)  0.10E-05 (energy)  0.10E-02 (step length)

 Weight factors for state symmetry  1:    0.10000
 Weight factors for state symmetry  2:    0.10000   0.10000   0.10000
 Weight factors for state symmetry  3:    0.10000   0.10000   0.10000
 Weight factors for state symmetry  4:    0.10000   0.10000   0.10000

 Number of orbital rotations:       97   (     0 Core/Active      0 Core/Virtual   0 Active/Active     97 Active/Virtual)
 Total number of variables:        125


 ITER. MIC  NCI  NEG     ENERGY(VAR)     ENERGY(PROJ)   ENERGY CHANGE     GRAD(0)  GRAD(ORB)   GRAD(CI)     STEP       TIME

   1   22   16    0    -103.64670397    -103.64794840   -0.00124443    0.04304115 0.00000000 0.00000000  0.35D-01      0.06
   2   13   16    0    -103.64795191    -103.64795194   -0.00000003    0.00022634 0.00000000 0.00000000  0.16D-03      0.11
   3   32   24    0    -103.64795194    -103.64795194   -0.00000000    0.00000001 0.00000000 0.00000000  0.46D-08      0.14

 ** WVFN ****  CONVERGENCE REACHED, FINAL GRADIENT:  0.15D-13



 Results for state 1.1
 =====================

 !MCSCF STATE 1.1 Energy             -103.664945703839
 Nuclear energy                         0.00000000
 Kinetic energy                        34.84816272
 One electron energy                 -180.13345345
 Two electron energy                   76.46850774
 Virial ratio                           3.97476072

 !MCSCF STATE 1.1 Dipole moment         0.00000000     0.00000000     0.00000000
 Dipole moment /Debye                   0.00000000     0.00000000     0.00000000



 Results for state 1.4
 =====================

 !MCSCF STATE 1.4 Energy             -103.664945703838
 Nuclear energy                         0.00000000
 Kinetic energy                        34.84816272
 One electron energy                 -180.13345345
 Two electron energy                   76.46850774
 Virial ratio                           3.97476072

 !MCSCF STATE 1.4 Dipole moment         0.00000000     0.00000000     0.00000000
 Dipole moment /Debye                   0.00000000     0.00000000     0.00000000

 Results for state 2.4
 =====================

 !MCSCF STATE 2.4 Energy             -103.664945703838
 Nuclear energy                         0.00000000
 Kinetic energy                        34.84816272
 One electron energy                 -180.13345345
 Two electron energy                   76.46850774
 Virial ratio                           3.97476072

 !MCSCF STATE 2.4 Dipole moment         0.00000000     0.00000000     0.00000000
 Dipole moment /Debye                   0.00000000     0.00000000     0.00000000

 Results for state 3.4
 =====================

 !MCSCF STATE 3.4 Energy             -103.608299821431
 Nuclear energy                         0.00000000
 Kinetic energy                        34.84816272
 One electron energy                 -180.13345345
 Two electron energy                   76.52515363
 Virial ratio                           3.97313522

 !MCSCF STATE 3.4 Dipole moment         0.00000000     0.00000000     0.00000000
 Dipole moment /Debye                   0.00000000     0.00000000     0.00000000



 Results for state 1.6
 =====================

 !MCSCF STATE 1.6 Energy             -103.664945703838
 Nuclear energy                         0.00000000
 Kinetic energy                        34.84816272
 One electron energy                 -180.13345345
 Two electron energy                   76.46850774
 Virial ratio                           3.97476072

 !MCSCF STATE 1.6 Dipole moment         0.00000000     0.00000000     0.00000000
 Dipole moment /Debye                   0.00000000     0.00000000     0.00000000

 Results for state 2.6
 =====================

 !MCSCF STATE 2.6 Energy             -103.664945703838
 Nuclear energy                         0.00000000
 Kinetic energy                        34.84816272
 One electron energy                 -180.13345345
 Two electron energy                   76.46850774
 Virial ratio                           3.97476072

 !MCSCF STATE 2.6 Dipole moment         0.00000000     0.00000000     0.00000000
 Dipole moment /Debye                   0.00000000     0.00000000     0.00000000

 Results for state 3.6
 =====================

 !MCSCF STATE 3.6 Energy             -103.608299821432
 Nuclear energy                         0.00000000
 Kinetic energy                        34.84816272
 One electron energy                 -180.13345345
 Two electron energy                   76.52515363
 Virial ratio                           3.97313522

 !MCSCF STATE 3.6 Dipole moment         0.00000000     0.00000000     0.00000000
 Dipole moment /Debye                   0.00000000     0.00000000     0.00000000



 Results for state 1.7
 =====================

 !MCSCF STATE 1.7 Energy             -103.664945703838
 Nuclear energy                         0.00000000
 Kinetic energy                        34.84816272
 One electron energy                 -180.13345345
 Two electron energy                   76.46850774
 Virial ratio                           3.97476072

 !MCSCF STATE 1.7 Dipole moment         0.00000000     0.00000000     0.00000000
 Dipole moment /Debye                   0.00000000     0.00000000     0.00000000

 Results for state 2.7
 =====================

 !MCSCF STATE 2.7 Energy             -103.664945703838
 Nuclear energy                         0.00000000
 Kinetic energy                        34.84816272
 One electron energy                 -180.13345345
 Two electron energy                   76.46850774
 Virial ratio                           3.97476072

 !MCSCF STATE 2.7 Dipole moment         0.00000000     0.00000000     0.00000000
 Dipole moment /Debye                   0.00000000     0.00000000     0.00000000

 Results for state 3.7
 =====================

 !MCSCF STATE 3.7 Energy             -103.608299821432
 Nuclear energy                         0.00000000
 Kinetic energy                        34.84816272
 One electron energy                 -180.13345345
 Two electron energy                   76.52515363
 Virial ratio                           3.97313522

 !MCSCF STATE 3.7 Dipole moment         0.00000000     0.00000000     0.00000000
 Dipole moment /Debye                   0.00000000     0.00000000     0.00000000

 State-averaged charge density matrix saved on record  4203.2 (density set 1)


 NATURAL ORBITALS (state averaged)
 =================================

   Orb     Occ        Energy       Coefficients

                                   1 1s      1 1s      1 1s      1 1s      1 1s      1 1s      1 1s      1 1s      1 1s      1 1s   
                                   1 1s      1 1s      1 3d0     1 3d2+    1 3d0     1 3d2+    1 3d0     1 3d2+    1 3d0     1 3d2+ 
                                   1 3d0     1 3d2+    1 3d0     1 3d2+    1 3d0     1 3d2+    1 3d0     1 3d2+    1 3d0     1 3d2+ 
                                   1 3d0     1 3d2+    1 3d0     1 3d2+    1 3d0     1 3d2+ 

   3.1  1.40000    -0.308424     0.000000  0.000000  0.000000  0.000000  0.000000  0.000000  0.000000  0.000000  0.000000  0.000000
                                 0.000000  0.000000  0.000021  0.000000 -0.000054  0.000000 -0.000430  0.000000  0.013489  0.000000
                                -0.093495  0.000000  0.082580  0.000000  0.320693  0.000000  0.373054  0.000000  0.285674  0.000000
                                 0.140445  0.000000  0.038199  0.000000  0.002172  0.000000

   4.1  1.40000    -0.308424     0.000000  0.000000  0.000000  0.000000  0.000000  0.000000  0.000000  0.000000  0.000000  0.000000
                                 0.000000  0.000000  0.000000  0.000021  0.000000 -0.000054  0.000000 -0.000430  0.000000  0.013489
                                 0.000000 -0.093495  0.000000  0.082580  0.000000  0.320693  0.000000  0.373054  0.000000  0.285674
                                 0.000000  0.140445  0.000000  0.038199  0.000000  0.002172

                                   1 3d2-    1 3d2-    1 3d2-    1 3d2-    1 3d2-    1 3d2-    1 3d2-    1 3d2-    1 3d2-    1 3d2- 
                                   1 3d2-    1 3d2- 

   1.4  1.40000    -0.308424     0.000021 -0.000054 -0.000430  0.013489 -0.093495  0.082580  0.320693  0.373054  0.285674  0.140445
                                 0.038199  0.002172

                                   1 3d1+    1 3d1+    1 3d1+    1 3d1+    1 3d1+    1 3d1+    1 3d1+    1 3d1+    1 3d1+    1 3d1+ 
                                   1 3d1+    1 3d1+ 

   1.6  1.40000    -0.308424     0.000021 -0.000054 -0.000430  0.013489 -0.093495  0.082580  0.320693  0.373054  0.285674  0.140445
                                 0.038199  0.002172

                                   1 3d1-    1 3d1-    1 3d1-    1 3d1-    1 3d1-    1 3d1-    1 3d1-    1 3d1-    1 3d1-    1 3d1- 
                                   1 3d1-    1 3d1- 

   1.7  1.40000    -0.308424     0.000021 -0.000054 -0.000430  0.013489 -0.093495  0.082580  0.320693  0.373054  0.285674  0.140445
                                 0.038199  0.002172
 

 EXTRA SYMMETRY OF MOS IN SYMMETRY 1:   0 0 2 3 1 2 3 2 3 1   2 3 1 3 2 1 3 2 2 3   1 2 3 1 2 3 2 3 1 2   3 1 1 2 3 1

 Natural orbital dump (state averaged) at molpro section  4203.2    (Orbital set 2)



 **********************************************************************************************************************************
 DATASETS  * FILE   NREC   LENGTH (MB)   RECORD NAMES
              1      20       20.33       500      610      700      900      950      970     1000      129      960     1100   
                                          VAR    BASINP    GEOM    SYMINP    ZMAT    AOBASIS   BASIS     P2S    ABASIS      S 
                                         1400     1410     1420     1200     1210     1080     1600     1650     1700     1380   
                                           T        V       ECP      H0       H01     AOSYM     SMH    MOLCAS    OPER     JKOP   

              2       5        5.38       700     1000      520     4202     4203   
                                         GEOM     BASIS   MCVARS     RHF     MCSCF   

 PROGRAMS   *        TOTAL     MULTI       POP       RHF       INT
 CPU TIMES  *         1.87      0.19      0.00      0.13      1.32
 REAL TIME  *         4.14 SEC
 DISK USED  *       437.74 MB      
 SF USED    *        13.04 MB      
 GA USED    *         0.00 MB       (max)       0.00 MB       (current)
 **********************************************************************************************************************************


 PROGRAM * MULTI (Direct Multiconfiguration SCF)       Authors: P.J. Knowles, H.-J. Werner (1984)     S.T. Elbert (1988)


 Number of closed-shell orbitals:   5 (   2   1   1   0   1   0   0   0 )
 Number of active  orbitals:        5 (   2   0   0   1   0   1   1   0 )
 Number of external orbitals:      98 (  32  11  11  11  11  11  11   0 )

 State symmetry 1

 Number of electrons:     7    Spin symmetry=Quartet   Space symmetry=1
 Number of states:        1
 Number of CSFs:          1   (1 determinants, 10 intermediate states)

 State symmetry 2

 Number of electrons:     7    Spin symmetry=Quartet   Space symmetry=4
 Number of states:        3
 Number of CSFs:          3   (3 determinants, 10 intermediate states)

 State symmetry 3

 Number of electrons:     7    Spin symmetry=Quartet   Space symmetry=6
 Number of states:        3
 Number of CSFs:          3   (3 determinants, 10 intermediate states)

 State symmetry 4

 Number of electrons:     7    Spin symmetry=Quartet   Space symmetry=7
 Number of states:        3
 Number of CSFs:          3   (3 determinants, 10 intermediate states)

 Iteration controls:
             1  2  3  4  5  6  7  8  9 10 11 12 13 14 15 16 17 18 19 20 21 22 23 24 25 26 27 28 29 30 31 32 33 34 35 36 37 38 39
 DIAGCI      T  T  T  T  T  T  T  T  T  T  T  T  T  T  T  T  T  T  T  T  T  T  T  T  T  T  T  T  T  T  T  T  T  T  T  T  T  T  T
 WERNER      T  T  T  T  T  T  T  T  T  T  T  T  T  T  T  T  T  T  T  T  T  T  T  T  T  T  T  T  T  T  T  T  T  T  T  T  T  T  T
 INTERNAL    F  T  T  T  T  T  T  T  T  T  T  T  T  T  T  T  T  T  T  T  T  T  T  T  T  T  T  T  T  T  T  T  T  T  T  T  T  T  T

 Molecular orbitals read from record     4203.2  Type=MCSCF/NATURAL (state averaged)

 EXTRA SYMMETRY OF MOS IN SYMMETRY 1:   1 1 2 3 1 2 3 2 3 1   2 3 1 3 2 1 3 2 2 3   1 2 3 1 2 3 2 3 1 2   3 1 1 2 3 1

 Wavefunction dump at record             5202.2

 Convergence thresholds  0.10E-01 (gradient)  0.10E-05 (energy)  0.10E-02 (step length)

 Weight factors for state symmetry  1:    0.10000
 Weight factors for state symmetry  2:    0.10000   0.10000   0.10000
 Weight factors for state symmetry  3:    0.10000   0.10000   0.10000
 Weight factors for state symmetry  4:    0.10000   0.10000   0.10000

 Number of orbital rotations:      198   (     4 Core/Active     97 Core/Virtual   0 Active/Active     97 Active/Virtual)
 Total number of variables:        226


 ITER. MIC  NCI  NEG     ENERGY(VAR)     ENERGY(PROJ)   ENERGY CHANGE     GRAD(0)  GRAD(ORB)   GRAD(CI)     STEP       TIME

   1   23   16    0    -103.64795194    -103.64795262   -0.00000068    0.00175722 0.00000000 0.00000000  0.73D-03      0.05
   2   20   24    0    -103.64795262    -103.64795262   -0.00000000    0.00000022 0.00000000 0.00000000  0.13D-06      0.10

 ** WVFN ****  CONVERGENCE REACHED, FINAL GRADIENT:  0.48D-11



 Results for state 1.1
 =====================

 !MCSCF STATE 1.1 Energy             -103.664944682001
 Nuclear energy                         0.00000000
 Kinetic energy                        34.85040875
 One electron energy                 -180.13759091
 Two electron energy                   76.47264622
 Virial ratio                           3.97456898

 !MCSCF STATE 1.1 Dipole moment         0.00000000     0.00000000     0.00000000
 Dipole moment /Debye                   0.00000000     0.00000000     0.00000000



 Results for state 1.4
 =====================

 !MCSCF STATE 1.4 Energy             -103.664944682000
 Nuclear energy                         0.00000000
 Kinetic energy                        34.85040875
 One electron energy                 -180.13759091
 Two electron energy                   76.47264622
 Virial ratio                           3.97456898

 !MCSCF STATE 1.4 Dipole moment         0.00000000     0.00000000     0.00000000
 Dipole moment /Debye                   0.00000000     0.00000000     0.00000000

 Results for state 2.4
 =====================

 !MCSCF STATE 2.4 Energy             -103.664944682000
 Nuclear energy                         0.00000000
 Kinetic energy                        34.85040875
 One electron energy                 -180.13759091
 Two electron energy                   76.47264622
 Virial ratio                           3.97456898

 !MCSCF STATE 2.4 Dipole moment         0.00000000     0.00000000     0.00000000
 Dipole moment /Debye                   0.00000000     0.00000000     0.00000000

 Results for state 3.4
 =====================

 !MCSCF STATE 3.4 Energy             -103.608304484761
 Nuclear energy                         0.00000000
 Kinetic energy                        34.85040875
 One electron energy                 -180.13759091
 Two electron energy                   76.52928642
 Virial ratio                           3.97294374

 !MCSCF STATE 3.4 Dipole moment         0.00000000     0.00000000     0.00000000
 Dipole moment /Debye                   0.00000000     0.00000000     0.00000000



 Results for state 1.6
 =====================

 !MCSCF STATE 1.6 Energy             -103.664944682000
 Nuclear energy                         0.00000000
 Kinetic energy                        34.85040875
 One electron energy                 -180.13759091
 Two electron energy                   76.47264622
 Virial ratio                           3.97456898

 !MCSCF STATE 1.6 Dipole moment         0.00000000     0.00000000     0.00000000
 Dipole moment /Debye                   0.00000000     0.00000000     0.00000000

 Results for state 2.6
 =====================

 !MCSCF STATE 2.6 Energy             -103.664944682000
 Nuclear energy                         0.00000000
 Kinetic energy                        34.85040875
 One electron energy                 -180.13759091
 Two electron energy                   76.47264622
 Virial ratio                           3.97456898

 !MCSCF STATE 2.6 Dipole moment         0.00000000     0.00000000     0.00000000
 Dipole moment /Debye                   0.00000000     0.00000000     0.00000000

 Results for state 3.6
 =====================

 !MCSCF STATE 3.6 Energy             -103.608304484762
 Nuclear energy                         0.00000000
 Kinetic energy                        34.85040875
 One electron energy                 -180.13759091
 Two electron energy                   76.52928642
 Virial ratio                           3.97294374

 !MCSCF STATE 3.6 Dipole moment         0.00000000     0.00000000     0.00000000
 Dipole moment /Debye                   0.00000000     0.00000000     0.00000000



 Results for state 1.7
 =====================

 !MCSCF STATE 1.7 Energy             -103.664944682000
 Nuclear energy                         0.00000000
 Kinetic energy                        34.85040875
 One electron energy                 -180.13759091
 Two electron energy                   76.47264622
 Virial ratio                           3.97456898

 !MCSCF STATE 1.7 Dipole moment         0.00000000     0.00000000     0.00000000
 Dipole moment /Debye                   0.00000000     0.00000000     0.00000000

 Results for state 2.7
 =====================

 !MCSCF STATE 2.7 Energy             -103.664944682000
 Nuclear energy                         0.00000000
 Kinetic energy                        34.85040875
 One electron energy                 -180.13759091
 Two electron energy                   76.47264622
 Virial ratio                           3.97456898

 !MCSCF STATE 2.7 Dipole moment         0.00000000     0.00000000     0.00000000
 Dipole moment /Debye                   0.00000000     0.00000000     0.00000000

 Results for state 3.7
 =====================

 !MCSCF STATE 3.7 Energy             -103.608304484762
 Nuclear energy                         0.00000000
 Kinetic energy                        34.85040875
 One electron energy                 -180.13759091
 Two electron energy                   76.52928642
 Virial ratio                           3.97294374

 !MCSCF STATE 3.7 Dipole moment         0.00000000     0.00000000     0.00000000
 Dipole moment /Debye                   0.00000000     0.00000000     0.00000000

 State-averaged charge density matrix saved on record  5202.2 (density set 1)


 NATURAL ORBITALS (state averaged)
 =================================

   Orb     Occ        Energy       Coefficients

                                   1 1s      1 1s      1 1s      1 1s      1 1s      1 1s      1 1s      1 1s      1 1s      1 1s   
                                   1 1s      1 1s      1 3d0     1 3d2+    1 3d0     1 3d2+    1 3d0     1 3d2+    1 3d0     1 3d2+ 
                                   1 3d0     1 3d2+    1 3d0     1 3d2+    1 3d0     1 3d2+    1 3d0     1 3d2+    1 3d0     1 3d2+ 
                                   1 3d0     1 3d2+    1 3d0     1 3d2+    1 3d0     1 3d2+ 

   1.1  2.00000    -4.225773    -0.000339  0.004957 -0.056956  0.360839 -0.763200 -0.206261  0.894710  0.489552  0.065830 -0.004296
                                 0.003077 -0.000793  0.000000  0.000000  0.000000  0.000000  0.000000  0.000000  0.000000  0.000000
                                 0.000000  0.000000  0.000000  0.000000  0.000000  0.000000  0.000000  0.000000  0.000000  0.000000
                                 0.000000  0.000000  0.000000  0.000000  0.000000  0.000000

   2.1  2.00000    -0.296843     0.000048 -0.001297  0.018239 -0.124867  0.285244  0.067614 -0.420847 -0.352432 -0.000962  0.422547
                                 0.518133  0.268754  0.000000  0.000000  0.000000  0.000000  0.000000  0.000000  0.000000  0.000000
                                 0.000000  0.000000  0.000000  0.000000  0.000000  0.000000  0.000000  0.000000  0.000000  0.000000
                                 0.000000  0.000000  0.000000  0.000000  0.000000  0.000000

   3.1  1.40000    -0.308187     0.000000  0.000000  0.000000  0.000000  0.000000  0.000000  0.000000  0.000000  0.000000  0.000000
                                 0.000000  0.000000  0.000021  0.000000 -0.000054  0.000000 -0.000430  0.000000  0.013488  0.000000
                                -0.093485  0.000000  0.082568  0.000000  0.320660  0.000000  0.373023  0.000000  0.285683  0.000000
                                 0.140502  0.000000  0.038237  0.000000  0.002178  0.000000

   4.1  1.40000    -0.308187     0.000000  0.000000  0.000000  0.000000  0.000000  0.000000  0.000000  0.000000  0.000000  0.000000
                                 0.000000  0.000000  0.000000  0.000021  0.000000 -0.000054  0.000000 -0.000430  0.000000  0.013488
                                 0.000000 -0.093485  0.000000  0.082568  0.000000  0.320660  0.000000  0.373023  0.000000  0.285683
                                 0.000000  0.140502  0.000000  0.038237  0.000000  0.002178

                                   1 2px     1 2px     1 2px     1 2px     1 2px     1 2px     1 2px     1 2px     1 2px     1 2px  
                                   1 2px     1 2px  

   1.2  2.00000    -2.456011     0.000102 -0.000247 -0.004913  0.072722 -0.272510 -0.016572  0.524897  0.463507  0.168066  0.016255
                                 0.004898 -0.000433

                                   1 2py     1 2py     1 2py     1 2py     1 2py     1 2py     1 2py     1 2py     1 2py     1 2py  
                                   1 2py     1 2py  

   1.3  2.00000    -2.456011     0.000102 -0.000247 -0.004913  0.072722 -0.272510 -0.016572  0.524897  0.463507  0.168066  0.016255
                                 0.004898 -0.000433

                                   1 3d2-    1 3d2-    1 3d2-    1 3d2-    1 3d2-    1 3d2-    1 3d2-    1 3d2-    1 3d2-    1 3d2- 
                                   1 3d2-    1 3d2- 

   1.4  1.40000    -0.308187     0.000021 -0.000054 -0.000430  0.013488 -0.093485  0.082568  0.320660  0.373023  0.285683  0.140502
                                 0.038237  0.002178

                                   1 2pz     1 2pz     1 2pz     1 2pz     1 2pz     1 2pz     1 2pz     1 2pz     1 2pz     1 2pz  
                                   1 2pz     1 2pz  

   1.5  2.00000    -2.456011     0.000102 -0.000247 -0.004913  0.072722 -0.272510 -0.016572  0.524897  0.463507  0.168066  0.016255
                                 0.004898 -0.000433

                                   1 3d1+    1 3d1+    1 3d1+    1 3d1+    1 3d1+    1 3d1+    1 3d1+    1 3d1+    1 3d1+    1 3d1+ 
                                   1 3d1+    1 3d1+ 

   1.6  1.40000    -0.308187     0.000021 -0.000054 -0.000430  0.013488 -0.093485  0.082568  0.320660  0.373023  0.285683  0.140502
                                 0.038237  0.002178

                                   1 3d1-    1 3d1-    1 3d1-    1 3d1-    1 3d1-    1 3d1-    1 3d1-    1 3d1-    1 3d1-    1 3d1- 
                                   1 3d1-    1 3d1- 

   1.7  1.40000    -0.308187     0.000021 -0.000054 -0.000430  0.013488 -0.093485  0.082568  0.320660  0.373023  0.285683  0.140502
                                 0.038237  0.002178
 

 Natural orbital dump (state averaged) at molpro section  5202.2    (Orbital set 2)


 CI vector for state symmetry 1
 ==============================

 22 a a a          1.0000000

 TOTAL ENERGIES                      -103.66494468

 CI vector for state symmetry 2
 ==============================

 2a 2 a a          1.0000000   0.0000000   0.0000000
 aa a 2 2          0.0000000   0.8944272   0.4472136
 a2 2 a a          0.0000000  -0.4472136   0.8944272

 TOTAL ENERGIES                      -103.66494468  -103.66494468  -103.60830448

 CI vector for state symmetry 3
 ==============================

 a2 a 2 a          0.8594490   0.2476842   0.4472136
 2a a 2 a         -0.2336926  -0.5876970   0.7745967
 aa 2 a 2         -0.4546815   0.7702368   0.4472136

 TOTAL ENERGIES                      -103.66494468  -103.66494468  -103.60830448

 CI vector for state symmetry 4
 ==============================

 a2 a a 2          0.8594626  -0.2476370  -0.4472136
 2a a a 2          0.2337249  -0.5876842   0.7745967
 aa 2 2 a          0.4546391   0.7702618   0.4472136

 TOTAL ENERGIES                      -103.66494468  -103.66494468  -103.60830448



 **********************************************************************************************************************************
 DATASETS  * FILE   NREC   LENGTH (MB)   RECORD NAMES
              1      20       21.09       500      610      700      900      950      970     1000      129      960     1100   
                                          VAR    BASINP    GEOM    SYMINP    ZMAT    AOBASIS   BASIS     P2S    ABASIS      S 
                                         1400     1410     1420     1200     1210     1080     1600     1650     1700     1380   
                                           T        V       ECP      H0       H01     AOSYM     SMH    MOLCAS    OPER     JKOP   

              2       6        8.02       700     1000      520     4202     4203     5202   
                                         GEOM     BASIS   MCVARS     RHF     MCSCF    MCSCF   

 PROGRAMS   *        TOTAL     MULTI     MULTI       POP       RHF       INT
 CPU TIMES  *         2.17      0.30      0.19      0.00      0.13      1.32
 REAL TIME  *         4.96 SEC
 DISK USED  *       437.74 MB      
 SF USED    *        15.63 MB      
 GA USED    *         0.00 MB       (max)       0.00 MB       (current)
 **********************************************************************************************************************************


 PROGRAM * RHF-SCF (OPEN SHELL)       Authors: W. Meyer, H.-J. Werner


 NUMBER OF ELECTRONS:      10+    7-    SPACE SYMMETRY=1    SPIN SYMMETRY: Quartet 
 CONVERGENCE THRESHOLDS:    1.00E-05 (Density)    1.00E-07 (Energy)
 MAX. NUMBER OF ITERATIONS:        0
 INTERPOLATION TYPE:            DIIS
 INTERPOLATION STEPS:              2 (START)      1 (STEP)
 LEVEL SHIFTS:                 -0.60 (CLOSED) -0.30 (OPEN) 

 Number of closed-shell orbitals:    7 (   4   1   1   0   1   0   0 )
 Number of open-shell orbitals:      3 (   0   0   0   1   0   1   1 )


 Molecular orbitals read from record     5202.2  Type=MCSCF/NATURAL (state averaged)

 Molecular orbital dump at record        2101.2

 ITERATION    DDIFF          GRAD             ENERGY        2-EL.EN.            DIPOLE MOMENTS         DIIS   ORB.
    1      0.000D+00      0.000D+00      -103.66494468    152.945292    0.00000    0.00000    0.00000    0    start

 Final alpha occupancy:   4   1   1   1   1   1   1
 Final beta  occupancy:   4   1   1   0   1   0   0

 !RHF STATE 1.1 Energy               -103.664944682001
 Nuclear energy                         0.00000000
 One-electron energy                 -180.13759091
 Two-electron energy                   76.47264622
 Virial quotient                       -2.97456898
 !RHF STATE 1.1 Dipole moment           0.00000000     0.00000000     0.00000000
 Dipole moment /Debye                   0.00000000     0.00000000     0.00000000

 ELECTRON ORBITALS
 =================


   Orb  Occ    Energy  Couls-En    Coefficients

                                   1 1s      1 1s      1 1s      1 1s      1 1s      1 1s      1 1s      1 1s      1 1s      1 1s   
                                   1 1s      1 1s      1 3d0     1 3d2+    1 3d0     1 3d2+    1 3d0     1 3d2+    1 3d0     1 3d2+ 
                                   1 3d0     1 3d2+    1 3d0     1 3d2+    1 3d0     1 3d2+    1 3d0     1 3d2+    1 3d0     1 3d2+ 
                                   1 3d0     1 3d2+    1 3d0     1 3d2+    1 3d0     1 3d2+ 

   1.1   2    -4.2258  -18.8559 -0.000339  0.004957 -0.056956  0.360839 -0.763200 -0.206261  0.894710  0.489552  0.065830 -0.004296
                                 0.003077 -0.000793  0.000000  0.000000  0.000000  0.000000  0.000000  0.000000  0.000000  0.000000
                                 0.000000  0.000000  0.000000  0.000000  0.000000  0.000000  0.000000  0.000000  0.000000  0.000000
                                 0.000000  0.000000  0.000000  0.000000  0.000000  0.000000

   2.1   2    -0.2968   -6.2599  0.000048 -0.001297  0.018239 -0.124867  0.285244  0.067614 -0.420847 -0.352432 -0.000962  0.422547
                                 0.518133  0.268754  0.000000  0.000000  0.000000  0.000000  0.000000  0.000000  0.000000  0.000000
                                 0.000000  0.000000  0.000000  0.000000  0.000000  0.000000  0.000000  0.000000  0.000000  0.000000
                                 0.000000  0.000000  0.000000  0.000000  0.000000  0.000000

   3.1   2    -0.3082   -9.4256  0.000000  0.000000  0.000000  0.000000  0.000000  0.000000  0.000000  0.000000  0.000000  0.000000
                                 0.000000  0.000000  0.000021  0.000000 -0.000054  0.000000 -0.000430  0.000000  0.013488  0.000000
                                -0.093485  0.000000  0.082568  0.000000  0.320660  0.000000  0.373023  0.000000  0.285683  0.000000
                                 0.140502  0.000000  0.038237  0.000000  0.002178  0.000000

   4.1   2    -0.3082   -9.4256  0.000000  0.000000  0.000000  0.000000  0.000000  0.000000  0.000000  0.000000  0.000000  0.000000
                                 0.000000  0.000000  0.000000  0.000021  0.000000 -0.000054  0.000000 -0.000430  0.000000  0.013488
                                 0.000000 -0.093485  0.000000  0.082568  0.000000  0.320660  0.000000  0.373023  0.000000  0.285683
                                 0.000000  0.140502  0.000000  0.038237  0.000000  0.002178

   5.1   0     0.1029   -2.7508 -0.000755  0.004334 -0.020020  0.087308 -0.203205  0.135614 -0.165604  0.918814 -1.516221  2.707466
                                -4.948688  3.436656  0.000000  0.000000  0.000000  0.000000  0.000000  0.000000  0.000000  0.000000
                                 0.000000  0.000000  0.000000  0.000000  0.000000  0.000000  0.000000  0.000000  0.000000  0.000000
                                 0.000000  0.000000  0.000000  0.000000  0.000000  0.000000

   6.1   0     0.1184   -2.2235  0.000000  0.000000  0.000000  0.000000  0.000000  0.000000  0.000000  0.000000  0.000000  0.000000
                                 0.000000  0.000000 -0.000159  0.000000  0.000690  0.000000 -0.001911  0.000000  0.003502  0.000000
                                -0.002024  0.000000  0.017433  0.000000 -0.089771  0.000000  0.087990  0.000000 -0.303527  0.000000
                                 0.562821  0.000000 -1.107571  0.000000  1.625688  0.000000

                                   1 2px     1 2px     1 2px     1 2px     1 2px     1 2px     1 2px     1 2px     1 2px     1 2px  
                                   1 2px     1 2px  

   1.2   2    -2.4560  -14.9776  0.000102 -0.000247 -0.004913  0.072722 -0.272510 -0.016572  0.524897  0.463507  0.168066  0.016255
                                 0.004898 -0.000433

   2.2   0     0.0529   -3.6923 -0.000238  0.001086 -0.002269 -0.004995  0.032147  0.036669 -0.182613  0.059788 -0.354447  0.694992
                                -0.847791  1.422931

   3.2   0     0.2564   -3.5952  0.000675 -0.003235  0.010978 -0.043262  0.130861 -0.127297  0.111589 -0.717756  1.099024 -2.103888
                                 4.023902 -2.412814

                                   1 2py     1 2py     1 2py     1 2py     1 2py     1 2py     1 2py     1 2py     1 2py     1 2py  
                                   1 2py     1 2py  

   1.3   2    -2.4560  -14.9776  0.000102 -0.000247 -0.004913  0.072722 -0.272510 -0.016572  0.524897  0.463507  0.168066  0.016255
                                 0.004898 -0.000433

   2.3   0     0.0529   -3.6923 -0.000238  0.001086 -0.002269 -0.004995  0.032147  0.036669 -0.182613  0.059788 -0.354447  0.694992
                                -0.847791  1.422931

   3.3   0     0.2564   -3.5952  0.000675 -0.003235  0.010978 -0.043262  0.130861 -0.127297  0.111589 -0.717756  1.099024 -2.103888
                                 4.023902 -2.412814

                                   1 3d2-    1 3d2-    1 3d2-    1 3d2-    1 3d2-    1 3d2-    1 3d2-    1 3d2-    1 3d2-    1 3d2- 
                                   1 3d2-    1 3d2- 

   1.4   +    -0.3082   -9.4256  0.000021 -0.000054 -0.000430  0.013488 -0.093485  0.082568  0.320660  0.373023  0.285683  0.140502
                                 0.038237  0.002178

   2.4   0     0.1184   -2.2235 -0.000159  0.000690 -0.001911  0.003502 -0.002024  0.017433 -0.089771  0.087990 -0.303527  0.562821
                                -1.107571  1.625688

   3.4   0     0.3545   -2.8947  0.000365 -0.001603  0.004737 -0.015312  0.054102 -0.087130  0.046587 -0.425135  0.611662 -1.585977
                                 3.059642 -1.529034

                                   1 2pz     1 2pz     1 2pz     1 2pz     1 2pz     1 2pz     1 2pz     1 2pz     1 2pz     1 2pz  
                                   1 2pz     1 2pz  

   1.5   2    -2.4560  -14.9776  0.000102 -0.000247 -0.004913  0.072722 -0.272510 -0.016572  0.524897  0.463507  0.168066  0.016255
                                 0.004898 -0.000433

   2.5   0     0.0529   -3.6923 -0.000238  0.001086 -0.002269 -0.004995  0.032147  0.036669 -0.182613  0.059788 -0.354447  0.694992
                                -0.847791  1.422931

   3.5   0     0.2564   -3.5952  0.000675 -0.003235  0.010978 -0.043262  0.130861 -0.127297  0.111589 -0.717756  1.099024 -2.103888
                                 4.023902 -2.412814

                                   1 3d1+    1 3d1+    1 3d1+    1 3d1+    1 3d1+    1 3d1+    1 3d1+    1 3d1+    1 3d1+    1 3d1+ 
                                   1 3d1+    1 3d1+ 

   1.6   +    -0.3082   -9.4256  0.000021 -0.000054 -0.000430  0.013488 -0.093485  0.082568  0.320660  0.373023  0.285683  0.140502
                                 0.038237  0.002178

   2.6   0     0.1184   -2.2235 -0.000159  0.000690 -0.001911  0.003502 -0.002024  0.017433 -0.089771  0.087990 -0.303527  0.562821
                                -1.107571  1.625688

   3.6   0     0.3545   -2.8947  0.000365 -0.001603  0.004737 -0.015312  0.054102 -0.087130  0.046587 -0.425135  0.611662 -1.585977
                                 3.059642 -1.529034

                                   1 3d1-    1 3d1-    1 3d1-    1 3d1-    1 3d1-    1 3d1-    1 3d1-    1 3d1-    1 3d1-    1 3d1- 
                                   1 3d1-    1 3d1- 

   1.7   +    -0.3082   -9.4256  0.000021 -0.000054 -0.000430  0.013488 -0.093485  0.082568  0.320660  0.373023  0.285683  0.140502
                                 0.038237  0.002178

   2.7   0     0.1184   -2.2235 -0.000159  0.000690 -0.001911  0.003502 -0.002024  0.017433 -0.089771  0.087990 -0.303527  0.562821
                                -1.107571  1.625688

   3.7   0     0.3545   -2.8947  0.000365 -0.001603  0.004737 -0.015312  0.054102 -0.087130  0.046587 -0.425135  0.611662 -1.585977
                                 3.059642 -1.529034

 HOMO      4.1    -0.308187 =      -8.3862eV
 LUMO      2.2     0.052907 =       1.4397eV
 LUMO-HOMO         0.361094 =       9.8259eV


 **********************************************************************************************************************************
 DATASETS  * FILE   NREC   LENGTH (MB)   RECORD NAMES
              1      20       21.09       500      610      700      900      950      970     1000      129      960     1100   
                                          VAR    BASINP    GEOM    SYMINP    ZMAT    AOBASIS   BASIS     P2S    ABASIS      S 
                                         1400     1410     1420     1200     1210     1080     1600     1650     1700     1380   
                                           T        V       ECP      H0       H01     AOSYM     SMH    MOLCAS    OPER     JKOP   

              2       7       10.68       700     1000      520     4202     4203     5202     2101   
                                         GEOM     BASIS   MCVARS     RHF     MCSCF    MCSCF     RHF  

 PROGRAMS   *        TOTAL       RHF     MULTI     MULTI       POP       RHF       INT
 CPU TIMES  *         2.20      0.03      0.30      0.19      0.00      0.13      1.32
 REAL TIME  *         5.01 SEC
 DISK USED  *       437.74 MB      
 SF USED    *        15.63 MB      
 GA USED    *         0.00 MB       (max)       0.00 MB       (current)
 **********************************************************************************************************************************


 PROGRAM * CI (Multireference internally contracted CI)     Authors: H.-J. Werner, P.J. Knowles, 1987


 Convergence thresholds:  THRVAR = 1.00D-08  THRDEN = 1.00D-06

 Number of optimized states:  1  Roots:   1
 Number of reference states:  1  Roots:   1

 Reference symmetry:                   1   Quartet 
 Number of electrons:                 17
 Maximum number of shells:             3
 Maximum number of spin couplings:    14

 Reference space:        1 conf        1 CSFs
 N elec internal:       19 conf       19 CSFs
 N-1 el internal:       42 conf       78 CSFs
 N-2 el internal:       18 conf       93 CSFs

 Number of electrons in valence space:                      9
 Maximum number of open shell orbitals in reference space:  3
 Maximum number of open shell orbitals in internal spaces:  7


 Number of core orbitals:           4 (   1   1   1   0   1   0   0 )
 Number of closed-shell orbitals:   3 (   3   0   0   0   0   0   0 )
 Number of active  orbitals:        3 (   0   0   0   1   0   1   1 )
 Number of external orbitals:      98 (  32  11  11  11  11  11  11 )

 Molecular orbitals read from record     2101.2  Type=RHF/CANONICAL (state 1.1)

 Coulomb and exchange operators available. No transformation done.

 Number of p-space configurations:   1

 Reference wavefunction optimized for reference space (refopt=1)

 State     Reference Energy 
   1        -103.66494468

 Number of blocks in overlap matrix:    30   Smallest eigenvalue:  0.10D+01
 Number of N-2 electron functions:      30
 Number of N-1 electron functions:      78

 Number of internal configurations:                    1
 Number of singly external configurations:          1110
 Number of doubly external configurations:         20496
 Total number of contracted configurations:        21607
 Total number of uncontracted configurations:      70351

 Diagonal Coupling coefficients finished.               Storage:    6173 words, CPU-Time:      0.00 seconds.
 Energy denominators for pairs finished in 1 passes.    Storage:   25983 words, CPU-time:      0.00 seconds.

  ITER. STATE  ROOT     SQ.NORM     CORR.ENERGY   TOTAL ENERGY   ENERGY CHANGE       DEN1      VAR(S)    VAR(P)      TIME
    1     1     1     1.00000000     0.00000000  -103.66494468     0.00000000    -0.08341428  0.63D-02  0.49D-01     0.61
    2     1     1     1.06224261    -0.08881393  -103.75375861    -0.08881393    -0.00298280  0.93D-03  0.13D-02     0.64
    3     1     1     1.08375619    -0.09284312  -103.75778780    -0.00402920    -0.00017382  0.65D-04  0.66D-04     0.65
    4     1     1     1.08569120    -0.09306363  -103.75800831    -0.00022051    -0.00000920  0.31D-05  0.33D-05     0.67
    5     1     1     1.08558484    -0.09307525  -103.75801993    -0.00001162    -0.00000045  0.14D-06  0.16D-06     0.69
    6     1     1     1.08558495    -0.09307580  -103.75802048    -0.00000055    -0.00000002  0.37D-08  0.60D-08     0.70


 =====================================
 Analysis of CPU times by interactions
 =====================================

       I      S      P

 I   1.4%
 S  18.6%   1.4%
 P  35.7%   4.3%   0.0%

 Initialization:  22.9%
 Other:           15.7%

 Total CPU:        0.7 seconds
 =====================================



 Reference coefficients greater than 0.0500000
 =============================================
 222///           0.9597720

 Coefficients of doubly external configurations greater than 0.0500000
 =====================================================================

 PAIR    I     J   ->   K     L     NP  SYM  REF     COEFFICIENTS

   1    2.1   2.1      2.5   2.5     1   1    1   -0.06509589
   1    2.1   2.1      2.3   2.3     1   1    1   -0.06509566
   1    2.1   2.1      2.2   2.2     1   1    1   -0.06509564



 RESULTS FOR STATE 1.1
 =====================

 Coefficient of reference function:   C(0) = 0.95977204 (fixed)   0.95977204 (relaxed)

 Energy contributions of configuration classes

 CLASS          SQ.NORM        ECORR1        ECORR2
 +++++++++++++++++++++++++++++++++++++++++++++++++++
 Internals    0.00000000    0.00000000    0.00000000
 Singles      0.01064328   -0.00615397   -0.00658233
 Pairs        0.07494167   -0.08692183   -0.08649347
 Total        1.08558495   -0.09307580   -0.09307580
 +++++++++++++++++++++++++++++++++++++++++++++++++++


 Reference energy                    -103.66494468
 Nuclear energy                         0.00000000
 Kinetic energy                        34.75773939
 One electron energy                 -179.83408022
 Two electron energy                   76.07605974
 Virial quotient                       -2.98517747
 Correlation energy                    -0.09307580
 !CI(SD) STATE 1.1 Energy            -103.758020480476

 Properties without orbital relaxation:

 !CI(SD) STATE 1.1 Dipole moment        0.00000000     0.00000000     0.00000000
 Dipole moment /Debye                   0.00000000     0.00000000     0.00000000

 Cluster corrected energies          -103.76598637 (Davidson, fixed reference)
 Cluster corrected energies          -103.76598637 (Davidson, relaxed reference)

 Cluster corrected energies          -103.76347763 (Pople, fixed reference)
 Cluster corrected energies          -103.76347763 (Pople, relaxed reference)


 Natural orbitals
 ================

   Orb     Occ           Coefficients

                         1 1s      1 1s      1 1s      1 1s      1 1s      1 1s      1 1s      1 1s      1 1s      1 1s   
                         1 1s      1 1s      1 3d0     1 3d2+    1 3d0     1 3d2+    1 3d0     1 3d2+    1 3d0     1 3d2+ 
                         1 3d0     1 3d2+    1 3d0     1 3d2+    1 3d0     1 3d2+    1 3d0     1 3d2+    1 3d0     1 3d2+ 
                         1 3d0     1 3d2+    1 3d0     1 3d2+    1 3d0     1 3d2+ 

   1.1    2.0000000   -0.000339  0.004957 -0.056956  0.360839 -0.763200 -0.206261  0.894710  0.489552  0.065830 -0.004296
                       0.003077 -0.000793  0.000000 -0.000000 -0.000000  0.000000 -0.000000  0.000000  0.000000 -0.000000
                      -0.000000  0.000000  0.000000 -0.000000  0.000000 -0.000000  0.000000 -0.000000  0.000000 -0.000000
                       0.000000 -0.000000  0.000000 -0.000000 -0.000000  0.000000

   2.1    1.9818101   -0.000000  0.000000 -0.000000  0.000001 -0.000002 -0.000000  0.000003  0.000001  0.000002 -0.000006
                       0.000000 -0.000004  0.000020 -0.000000 -0.000053  0.000001 -0.000427  0.000009  0.013365 -0.000286
                      -0.092787  0.001983  0.083015 -0.001774  0.316899 -0.006773  0.362842 -0.007755  0.284263 -0.006076
                       0.153457 -0.003280  0.049685 -0.001062  0.004228 -0.000090

   3.1    1.9818101   -0.000000  0.000000 -0.000000  0.000000 -0.000000 -0.000000  0.000000  0.000000  0.000000 -0.000000
                      -0.000000  0.000000  0.000000  0.000020 -0.000001 -0.000053 -0.000009 -0.000427  0.000286  0.013365
                      -0.001983 -0.092787  0.001774  0.083015  0.006773  0.316899  0.007755  0.362842  0.006076  0.284263
                       0.003280  0.153457  0.001062  0.049683  0.000090  0.004230

   4.1    1.9082807    0.000052 -0.001336  0.018601 -0.127153  0.290652  0.067972 -0.429668 -0.354087 -0.005471  0.442135
                       0.534828  0.237140  0.000000 -0.000000 -0.000000  0.000000 -0.000000  0.000000  0.000000 -0.000000
                      -0.000001  0.000000  0.000001 -0.000000  0.000002 -0.000000  0.000002 -0.000000  0.000002 -0.000000
                       0.000001 -0.000000  0.000000  0.000000  0.000000 -0.000000

   5.1    0.0093782    0.000041  0.001620 -0.030105  0.217837 -0.505190 -0.200122  1.117718  0.698708 -1.505966 -0.883650
                       0.695650  0.696159  0.000000  0.000000  0.000000 -0.000000 -0.000000  0.000000  0.000000 -0.000000
                      -0.000001  0.000000  0.000001 -0.000000  0.000005 -0.000001  0.000005 -0.000000 -0.000005  0.000000
                      -0.000004  0.000001 -0.000001  0.000000 -0.000003  0.000000

   6.1    0.0071047   -0.000000 -0.000000  0.000000 -0.000000  0.000001  0.000000 -0.000002 -0.000001  0.000002  0.000002
                      -0.000003  0.000000  0.000000 -0.000041 -0.000000  0.000140 -0.000001  0.000234  0.000040 -0.015260
                      -0.000295  0.112945  0.000268 -0.102638  0.001370 -0.524529  0.000805 -0.308438 -0.000977  0.374090
                      -0.001269  0.485945 -0.000553  0.211672 -0.000060  0.023006

   7.1    0.0071047    0.000000 -0.000000 -0.000000  0.000002 -0.000005 -0.000004  0.000016  0.000004 -0.000004 -0.000046
                       0.000055 -0.000017 -0.000041 -0.000000  0.000140  0.000000  0.000234  0.000001 -0.015260 -0.000040
                       0.112946  0.000295 -0.102639 -0.000268 -0.524530 -0.001370 -0.308440 -0.000805  0.374094  0.000977
                       0.485950  0.001269  0.211663  0.000553  0.023007  0.000060

   8.1    0.0004731   -0.000000 -0.000000  0.000001 -0.000004  0.000010  0.000006 -0.000045  0.000031  0.000025 -0.000031
                      -0.000012  0.000021  0.000035  0.000210 -0.000162 -0.000960  0.000602  0.003575 -0.005070 -0.030106
                       0.032586  0.193488 -0.041441 -0.246069 -0.166598 -0.989223  0.131082  0.778334  0.132708  0.787987
                      -0.095999 -0.570009 -0.069663 -0.413667 -0.011366 -0.067467

   9.1    0.0004731   -0.000000 -0.000000  0.000010 -0.000083  0.000201  0.000130 -0.000883  0.000587  0.000584 -0.000758
                      -0.000105  0.000351  0.000210 -0.000035 -0.000960  0.000162  0.003575 -0.000602 -0.030106  0.005070
                       0.193487 -0.032586 -0.246070  0.041441 -0.989219  0.166599  0.778334 -0.131082  0.787987 -0.132708
                      -0.570020  0.095998 -0.413646  0.069668 -0.067486  0.011362

  10.1    0.0004542   -0.000400 -0.000641  0.039907 -0.323719  0.783594  0.533442 -3.519252  2.354208  2.372055 -3.259498
                      -0.073515  1.219485 -0.000000  0.000000  0.000000 -0.000000 -0.000001  0.000000  0.000008 -0.000001
                      -0.000052  0.000006  0.000066 -0.000008  0.000262 -0.000031 -0.000216  0.000025 -0.000199  0.000023
                       0.000160 -0.000018  0.000099 -0.000013  0.000016 -0.000000

  11.1    0.0000448    0.000001 -0.000006  0.000025 -0.000107  0.000253 -0.000026 -0.000901  0.001617 -0.001254  0.000162
                       0.000542 -0.000355  0.003451  0.000787 -0.015227 -0.003473  0.045695  0.010423 -0.150898 -0.034421
                       0.575413  0.131255 -1.137562 -0.259487 -0.464852 -0.106030  2.477277  0.565078 -2.216175 -0.505523
                       0.295788  0.067472  0.509772  0.116287  0.123916  0.028259

  12.1    0.0000448   -0.000000  0.000002 -0.000010  0.000041 -0.000095  0.000007  0.000350 -0.000627  0.000492 -0.000077
                      -0.000195  0.000131 -0.000787  0.003451  0.003473 -0.015227 -0.010423  0.045696  0.034421 -0.150899
                      -0.131255  0.575419  0.259484 -1.137585  0.106034 -0.464830 -0.565078  2.477282  0.505521 -2.216205
                      -0.067472  0.295802 -0.116282  0.509800 -0.028264  0.123878

  13.1    0.0000409    0.007531 -0.041713  0.177235 -0.734449  1.748243 -0.420821 -5.559901 10.651697 -9.131482  2.559124
                       2.324106 -1.879520 -0.000001  0.000000  0.000003 -0.000000 -0.000009  0.000001  0.000031 -0.000004
                      -0.000117  0.000015  0.000245 -0.000031  0.000029 -0.000009 -0.000415  0.000062  0.000415 -0.000060
                      -0.000075  0.000012 -0.000121  0.000014  0.000020 -0.000001

  14.1    0.0000087   -0.000011  0.000061 -0.000221  0.000766 -0.002064  0.003162 -0.002151 -0.000595  0.003339 -0.004494
                       0.003440 -0.001247 -0.004507 -0.000091  0.020032  0.000403 -0.061423 -0.001235  0.224150  0.004506
                      -1.053238 -0.021172  3.185900  0.064040 -3.753456 -0.075447  1.990075  0.039999  0.628962  0.012646
                      -2.053677 -0.041283  1.281683  0.025764  0.058085  0.001168

  15.1    0.0000087    0.000002 -0.000008  0.000030 -0.000105  0.000281 -0.000431  0.000294  0.000081 -0.000458  0.000617
                      -0.000472  0.000171  0.000091 -0.004508 -0.000403  0.020034  0.001235 -0.061426 -0.004505  0.224164
                       0.021172 -1.053298 -0.064044  3.186086  0.075456 -3.753770 -0.040013  1.990437 -0.012634  0.628702
                       0.041278 -2.053669 -0.025767  1.281906 -0.001164  0.057888

  16.1    0.0000078   -0.033454  0.176798 -0.634756  2.169811 -5.825869  9.070884 -6.661291 -0.662702  8.384984-12.049655
                       9.546643 -3.542073  0.000002 -0.000000 -0.000007  0.000001  0.000022 -0.000002 -0.000082  0.000009
                       0.000399 -0.000046 -0.001235  0.000144  0.001529 -0.000178 -0.000958  0.000109  0.000012  0.000006
                       0.000586 -0.000081 -0.000420  0.000064 -0.000015 -0.000008

  17.1    0.0000019   -0.000003  0.000016 -0.000066  0.000270 -0.000857  0.001679 -0.002119  0.002030 -0.001588  0.000999
                      -0.000452  0.000108  0.010107  0.000581 -0.042965 -0.002469  0.113617  0.006528 -0.177548 -0.010204
                      -0.329341 -0.018910  2.574815  0.147899 -4.903249 -0.281661  6.273483  0.360384 -6.349700 -0.364772
                       4.820648  0.276940 -2.093264 -0.120261  0.085687  0.004927

  18.1    0.0000019    0.000001 -0.000004  0.000016 -0.000059  0.000177 -0.000339  0.000426 -0.000408  0.000320 -0.000201
                       0.000090 -0.000021 -0.000581  0.010111  0.002469 -0.042979 -0.006528  0.113657  0.010201 -0.177649
                       0.018916 -0.329115 -0.147909  2.574475  0.281671 -4.902963 -0.360394  6.273450  0.364784 -6.350033
                      -0.276956  4.821281  0.120277 -2.093897 -0.004935  0.085986

  19.1    0.0000015   -0.025783  0.145774 -0.610484  2.575372 -8.362193 16.860640-22.484331 23.724769-21.533979 16.568029
                      -9.551635  2.968419 -0.000002  0.000000  0.000007 -0.000001 -0.000020  0.000002  0.000042 -0.000004
                      -0.000021  0.000000 -0.000172  0.000026  0.000397 -0.000056 -0.000566  0.000078  0.000653 -0.000088
                      -0.000608  0.000078  0.000397 -0.000047 -0.000126  0.000013

                         1 2px     1 2px     1 2px     1 2px     1 2px     1 2px     1 2px     1 2px     1 2px     1 2px  
                         1 2px     1 2px  

   1.2    2.0000000    0.000102 -0.000247 -0.004913  0.072722 -0.272510 -0.016572  0.524897  0.463507  0.168066  0.016255
                       0.004898 -0.000433

   2.2    0.0358371   -0.000075  0.000269  0.001615 -0.031523  0.126878 -0.000986 -0.272453 -0.336032  0.030208  0.572276
                       0.456079  0.104600

   3.2    0.0008846   -0.000347  0.001519 -0.000534 -0.046081  0.201390  0.081715 -0.792707 -0.531721  1.475413  0.375152
                      -0.846221 -0.310707

   4.2    0.0000568   -0.000243  0.000937  0.003582 -0.084142  0.343848  0.242527 -2.573871  2.502272  0.775315 -2.521424
                       0.884171  0.518252

   5.2    0.0000070    0.009174 -0.043762  0.140177 -0.471926  1.404293 -1.669244 -1.734923  6.229674 -7.527228  4.769909
                      -0.889661 -0.577126

   6.2    0.0000013   -0.024456  0.117858 -0.378930  1.233861 -3.925062  8.223416 -9.808602  7.576893 -3.188528 -1.056946
                       2.900712 -1.687716

   7.2    0.0000004    0.006343 -0.027071  0.049492  0.173400 -1.748948  5.381071 -8.822839 11.094074-12.162307 11.476641
                      -8.191923  3.181053

   8.2    0.0000000    0.262651 -1.238866  3.629183 -8.134037 12.607497-12.565565 10.124530 -7.488224  5.280994 -3.435730
                       1.828572 -0.574888

   9.2    0.0000000   -0.806217  3.410634 -7.834003 11.018068 -9.272911  6.469369 -4.305476  2.815970 -1.774932  1.021050
                      -0.475163  0.130941

  10.2    0.0000000    1.553230 -5.422665  8.532872 -6.900767  4.609712 -3.024427  1.995295 -1.303455  0.819182 -0.469051
                       0.217479 -0.059911

  11.2    0.0000000   -2.674929  6.031576 -5.205190  3.469628 -2.291325  1.537290 -1.030680  0.678484 -0.427139  0.243960
                      -0.112451  0.030725

  12.2    0.0000000    1.934355 -1.637675  0.963646 -0.670370  0.483166 -0.339126  0.231962 -0.154113  0.097486 -0.055849
                       0.025807 -0.007068

                         1 2py     1 2py     1 2py     1 2py     1 2py     1 2py     1 2py     1 2py     1 2py     1 2py  
                         1 2py     1 2py  

   1.3    2.0000000    0.000102 -0.000247 -0.004913  0.072722 -0.272510 -0.016572  0.524897  0.463507  0.168066  0.016255
                       0.004898 -0.000433

   2.3    0.0358371   -0.000075  0.000269  0.001615 -0.031523  0.126878 -0.000986 -0.272453 -0.336032  0.030208  0.572276
                       0.456079  0.104600

   3.3    0.0008846   -0.000347  0.001519 -0.000534 -0.046081  0.201390  0.081715 -0.792707 -0.531721  1.475412  0.375153
                      -0.846221 -0.310707

   4.3    0.0000568   -0.000243  0.000937  0.003582 -0.084142  0.343848  0.242527 -2.573871  2.502270  0.775316 -2.521424
                       0.884170  0.518253

   5.3    0.0000070    0.009174 -0.043762  0.140177 -0.471926  1.404292 -1.669243 -1.734923  6.229672 -7.527223  4.769903
                      -0.889656 -0.577127

   6.3    0.0000013   -0.024456  0.117858 -0.378931  1.233863 -3.925064  8.223419 -9.808604  7.576893 -3.188527 -1.056946
                       2.900712 -1.687716

   7.3    0.0000004    0.006343 -0.027072  0.049493  0.173398 -1.748944  5.381067 -8.822836 11.094074-12.162309 11.476643
                      -8.191923  3.181053

   8.3    0.0000000    0.262652 -1.238866  3.629183 -8.134037 12.607497-12.565565 10.124532 -7.488226  5.280997 -3.435734
                       1.828574 -0.574889

   9.3    0.0000000   -0.806218  3.410635 -7.834005 11.018069 -9.272911  6.469369 -4.305476  2.815970 -1.774932  1.021050
                      -0.475163  0.130941

  10.3    0.0000000    1.553229 -5.422663  8.532870 -6.900765  4.609710 -3.024426  1.995295 -1.303454  0.819181 -0.469050
                       0.217479 -0.059911

  11.3    0.0000000   -2.674885  6.031540 -5.205169  3.469613 -2.291313  1.537282 -1.030674  0.678480 -0.427137  0.243959
                      -0.112450  0.030725

  12.3    0.0000000    1.934416 -1.637814  0.963764 -0.670448  0.483218 -0.339160  0.231985 -0.154129  0.097496 -0.055855
                       0.025810 -0.007068

                         1 3d2-    1 3d2-    1 3d2-    1 3d2-    1 3d2-    1 3d2-    1 3d2-    1 3d2-    1 3d2-    1 3d2- 
                         1 3d2-    1 3d2- 

   1.4    0.9943676    0.000020 -0.000050 -0.000447  0.013602 -0.094006  0.082369  0.324413  0.375467  0.282546  0.137275
                       0.037295  0.002201

   2.4    0.0029520   -0.000057  0.000214  0.000032 -0.015563  0.119924 -0.120359 -0.541007 -0.297725  0.440243  0.491775
                       0.156205  0.010846

   3.4    0.0001859    0.000089 -0.000429  0.002066 -0.027371  0.196523 -0.269768 -0.994198  0.853218  0.798154 -0.731900
                      -0.349174 -0.047662

   4.4    0.0000190    0.002557 -0.011262  0.033942 -0.122902  0.540073 -1.162355 -0.417766  2.525700 -2.398410  0.442762
                       0.528494  0.092543

   5.4    0.0000034   -0.004339  0.019171 -0.058087  0.211137 -1.006819  3.070185 -3.615835  1.871432  0.759079 -2.273021
                       1.540980 -0.047300

   6.4    0.0000009    0.010491 -0.045244  0.124278 -0.219750 -0.229341  2.501514 -4.875535  6.238290 -6.289088  4.803677
                      -2.145841  0.118085

   7.4    0.0000001    0.085894 -0.377050  1.098883 -2.710546  5.037737 -5.153490  3.877196 -2.268217  0.609805  0.971016
                      -1.889968  1.316869

   8.4    0.0000001    0.050039 -0.222560  0.670929 -1.760930  3.563655 -4.209303  4.132322 -4.072341  4.310279 -4.641974
                       4.242081 -2.251595

   9.4    0.0000000   -0.324869  1.345126 -3.363727  5.756847 -5.044296  3.496369 -2.312175  1.533809 -1.019015  0.656893
                      -0.370597  0.133629

  10.4    0.0000000    0.731149 -2.684472  5.061490 -4.246688  2.737084 -1.713065  1.088742 -0.695829  0.437304 -0.259199
                       0.131255 -0.042404

  11.4    0.0000000   -1.611025  4.115127 -3.545739  2.205784 -1.355870  0.861621 -0.554897  0.355103 -0.220517  0.126968
                      -0.060986  0.018203

  12.4    0.0000000    1.898828 -1.728573  1.028425 -0.653617  0.434048 -0.287728  0.188816 -0.121838  0.075960 -0.043840
                       0.021105 -0.006318

                         1 2pz     1 2pz     1 2pz     1 2pz     1 2pz     1 2pz     1 2pz     1 2pz     1 2pz     1 2pz  
                         1 2pz     1 2pz  

   1.5    2.0000000    0.000102 -0.000247 -0.004913  0.072722 -0.272510 -0.016572  0.524897  0.463507  0.168066  0.016255
                       0.004898 -0.000433

   2.5    0.0358377   -0.000075  0.000269  0.001615 -0.031523  0.126878 -0.000986 -0.272451 -0.336030  0.030205  0.572274
                       0.456080  0.104602

   3.5    0.0008846   -0.000347  0.001519 -0.000534 -0.046081  0.201392  0.081714 -0.792708 -0.531724  1.475419  0.375150
                      -0.846224 -0.310701

   4.5    0.0000568   -0.000243  0.000937  0.003583 -0.084144  0.343851  0.242522 -2.573857  2.502240  0.775381 -2.521525
                       0.884267  0.518209

   5.5    0.0000070    0.009174 -0.043762  0.140179 -0.471935  1.404336 -1.669359 -1.734751  6.229489 -7.527069  4.769795
                      -0.889592 -0.577152

   6.5    0.0000013   -0.024457  0.117859 -0.378937  1.233889 -3.925172  8.223692 -9.809040  7.577461 -3.189173 -1.056343
                       2.900308 -1.687573

   7.5    0.0000004    0.006348 -0.027094  0.049559  0.173231 -1.748584  5.380509 -8.822292 11.093717-12.162170 11.476679
                      -8.192038  3.181124

   8.5    0.0000000    0.262651 -1.238866  3.629180 -8.134034 12.607506-12.565607 10.124613 -7.488340  5.281133 -3.435872
                       1.828681 -0.574933

   9.5    0.0000000   -0.806218  3.410636 -7.834006 11.018072 -9.272916  6.469376 -4.305483  2.815978 -1.774939  1.021055
                      -0.475166  0.130942

  10.5    0.0000000    1.553163 -5.422523  8.532750 -6.900684  4.609656 -3.024389  1.995270 -1.303438  0.819171 -0.469045
                       0.217477 -0.059911

  11.5    0.0000000   -2.675125  6.031835 -5.205461  3.469838 -2.291466  1.537385 -1.030742  0.678525 -0.427165  0.243975
                      -0.112458  0.030727

  12.5    0.0000000    1.934136 -1.637188  0.963237 -0.670101  0.482989 -0.339007  0.231883 -0.154061  0.097453 -0.055830
                       0.025799 -0.007065

                         1 3d1+    1 3d1+    1 3d1+    1 3d1+    1 3d1+    1 3d1+    1 3d1+    1 3d1+    1 3d1+    1 3d1+ 
                         1 3d1+    1 3d1+ 

   1.6    0.9943677    0.000020 -0.000050 -0.000447  0.013602 -0.094006  0.082369  0.324413  0.375467  0.282546  0.137275
                       0.037295  0.002201

   2.6    0.0029521   -0.000057  0.000214  0.000032 -0.015563  0.119923 -0.120358 -0.541004 -0.297725  0.440236  0.491773
                       0.156219  0.010840

   3.6    0.0001859    0.000089 -0.000429  0.002066 -0.027370  0.196522 -0.269769 -0.994183  0.853190  0.798161 -0.731872
                      -0.349189 -0.047671

   4.6    0.0000190    0.002557 -0.011262  0.033942 -0.122901  0.540066 -1.162320 -0.417818  2.525713 -2.398344  0.442654
                       0.528579  0.092504

   5.6    0.0000034   -0.004338  0.019169 -0.058083  0.211126 -1.006791  3.070123 -3.615720  1.871258  0.759270 -2.273157
                       1.541041 -0.047324

   6.6    0.0000009    0.010491 -0.045245  0.124278 -0.219749 -0.229355  2.501588 -4.875651  6.238431 -6.289263  4.803899
                      -2.146086  0.118241

   7.6    0.0000001    0.085931 -0.377210  1.099353 -2.711721  5.039957 -5.156125  3.879823 -2.270823  0.612542  0.968139
                      -1.887423  1.315560

   8.6    0.0000001    0.049974 -0.222275  0.670112 -1.759012  3.560407 -4.205988  4.129737 -4.070680  4.309579 -4.642247
                       4.243027 -2.252341

   9.6    0.0000000   -0.324869  1.345130 -3.363744  5.756889 -5.044389  3.496497 -2.312332  1.534009 -1.019282  0.657235
                      -0.370946  0.133827

  10.6    0.0000000    0.731164 -2.684495  5.061503 -4.246686  2.737071 -1.713046  1.088719 -0.695801  0.437268 -0.259154
                       0.131209 -0.042378

  11.6    0.0000000   -1.611067  4.115157 -3.545744  2.205785 -1.355872  0.861623 -0.554899  0.355104 -0.220518  0.126969
                      -0.060987  0.018203

  12.6    0.0000000    1.898787 -1.728463  1.028318 -0.653545  0.434002 -0.287699  0.188797 -0.121826  0.075953 -0.043836
                       0.021103 -0.006318

                         1 3d1-    1 3d1-    1 3d1-    1 3d1-    1 3d1-    1 3d1-    1 3d1-    1 3d1-    1 3d1-    1 3d1- 
                         1 3d1-    1 3d1- 

   1.7    0.9943677    0.000020 -0.000050 -0.000447  0.013602 -0.094006  0.082369  0.324413  0.375467  0.282546  0.137275
                       0.037295  0.002201

   2.7    0.0029521   -0.000057  0.000214  0.000032 -0.015563  0.119923 -0.120357 -0.541004 -0.297725  0.440236  0.491773
                       0.156218  0.010840

   3.7    0.0001859    0.000089 -0.000429  0.002066 -0.027370  0.196522 -0.269769 -0.994183  0.853190  0.798161 -0.731872
                      -0.349189 -0.047672

   4.7    0.0000190    0.002557 -0.011262  0.033942 -0.122901  0.540066 -1.162320 -0.417819  2.525714 -2.398344  0.442653
                       0.528579  0.092504

   5.7    0.0000034   -0.004338  0.019169 -0.058083  0.211126 -1.006791  3.070121 -3.615716  1.871254  0.759274 -2.273159
                       1.541040 -0.047323

   6.7    0.0000009    0.010491 -0.045245  0.124278 -0.219748 -0.229357  2.501591 -4.875654  6.238432 -6.289262  4.803897
                      -2.146084  0.118240

   7.7    0.0000001    0.085931 -0.377210  1.099352 -2.711717  5.039948 -5.156114  3.879812 -2.270811  0.612529  0.968153
                      -1.887436  1.315566

   8.7    0.0000001    0.049974 -0.222276  0.670115 -1.759019  3.560421 -4.206001  4.129747 -4.070686  4.309582 -4.642246
                       4.243023 -2.252337

   9.7    0.0000000   -0.324869  1.345130 -3.363743  5.756889 -5.044388  3.496496 -2.312332  1.534009 -1.019282  0.657235
                      -0.370946  0.133827

  10.7    0.0000000    0.731164 -2.684495  5.061503 -4.246686  2.737071 -1.713045  1.088719 -0.695801  0.437268 -0.259154
                       0.131209 -0.042378

  11.7    0.0000000   -1.611068  4.115158 -3.545744  2.205786 -1.355872  0.861623 -0.554899  0.355105 -0.220518  0.126969
                      -0.060987  0.018203

  12.7    0.0000000    1.898786 -1.728462  1.028317 -0.653544  0.434002 -0.287698  0.188797 -0.121826  0.075953 -0.043836
                       0.021103 -0.006318

 Electronic charge:   17.000000


 **********************************************************************************************************************************
 DATASETS  * FILE   NREC   LENGTH (MB)   RECORD NAMES
              1      20       21.09       500      610      700      900      950      970     1000      129      960     1100   
                                          VAR    BASINP    GEOM    SYMINP    ZMAT    AOBASIS   BASIS     P2S    ABASIS      S 
                                         1400     1410     1420     1200     1210     1080     1600     1650     1700     1380   
                                           T        V       ECP      H0       H01     AOSYM     SMH    MOLCAS    OPER     JKOP   

              2       7       10.68       700     1000      520     4202     4203     5202     2101   
                                         GEOM     BASIS   MCVARS     RHF     MCSCF    MCSCF     RHF  

 PROGRAMS   *        TOTAL        CI       RHF     MULTI     MULTI       POP       RHF       INT
 CPU TIMES  *         2.93      0.73      0.03      0.30      0.19      0.00      0.13      1.32
 REAL TIME  *         6.80 SEC
 DISK USED  *       437.74 MB      
 SF USED    *        15.63 MB      
 GA USED    *         0.00 MB       (max)       0.00 MB       (current)
 **********************************************************************************************************************************

 CI/USERDEF energy=   -103.758020480476

        CI              RHF-SCF         MULTI           MULTI           RHF-SCF 
   -103.75802048   -103.66494468   -103.60830448   -103.60829982   -103.66590647
 **********************************************************************************************************************************
 Molpro calculation terminated
 Variable memory released
