
 Primary working directories    : /global/cscratch1/sd/aannabe
 Secondary working directories  : /global/cscratch1/sd/aannabe
 Wavefunction directory         : /global/homes/a/aannabe/wfu/
 Main file repository           : /global/cscratch1/sd/aannabe/

 SHA1      : 19cd028119e0e09f93f0674bd8af7968d9b3eff6
 NAME      : 2015.1.36
 ARCHNAME  : linux/x86_64
 FC        : /opt/cray/pe/craype/2.5.14/bin/ftn
 BLASLIB   : -L/opt/intel/compilers_and_libraries_2018.1.163/linux/mkl/lib/intel64 -Wl,-_start-group -lmkl_intel_ilp64 -lmkl_intel_thread -lmkl_core -Wl,-_end-group -liomp5
 id        : lbl

 Nodes     nprocs
 nid00808    15
 Number of processes for MPI-2 version of Molpro:   nprocs(total)=   16   nprocs(compute)=   15   nprocs(helper)=    1

 Using customized tuning parameters: mindgm=7; mindgv=16; mindgc=1; mindgr=1; noblas=0; minvec=7
 default implementation of scratch files=sf  

 ***,Ir
 memory,512,m
 
 gthresh,twoint=1.e-12
 gprint,basis,orbitals
 
 angstrom
 geometry={
 1                                                                               ! Number of atoms
 Ir 0.0 0.0 0.0
 }
 
 basis={
 Including file /global/cscratch1/sd/aannabe/repos/heavy_element_ecps/basis_sets/tutorial_generate/Ir/coefficients/ecp.molpro
 Including file /global/cscratch1/sd/aannabe/repos/heavy_element_ecps/basis_sets/tutorial_generate/Ir/coefficients/basis.molpro
 }
 
 {rhf
  start,atden
  wf,17,1,3
  occ,4,1,1,1,1,1,1,0
  closed,4,1,1,0,1,0,0,0
  sym,1,1,1,3,2
  orbital,4202.2
 }
 pop
 {multi
  start,4202.2
  maxit,40
  occ,4,1,1,1,1,1,1,0
  frozen,2,1,1,0,1,0,0
  wf,17,1,3;state,1
  wf,17,4,3;state,3
  wf,17,6,3;state,3
  wf,17,7,3;state,3
  orbital,4203.2
 }
 {multi
  start,4203.2
  maxit,40
  occ,4,1,1,1,1,1,1,0
  closed,2,1,1,0,1,0,0
  wf,17,1,3;state,1
  wf,17,4,3;state,3
  wf,17,6,3;state,3
  wf,17,7,3;state,3
  natorb,ci,print
  orbital,5202.2
 }
 {rhf,nitord=1,maxit=0
  start,5202.2
  wf,17,1,3
  occ,4,1,1,1,1,1,1,0
  closed,4,1,1,0,1,0,0,0
  print,orbitals=2
 }
 
 

 Variables initialized (889), CPU time= 0.01 sec
 Commands  initialized (702), CPU time= 0.01 sec, 572 directives.
 Default parameters read. Elapsed time= 0.18 sec

 Checking input...
 Passed
1


                                         ***  PROGRAM SYSTEM MOLPRO  ***
                                       Copyright, TTI GmbH Stuttgart, 2015
                                    Version 2015.1 linked Dec 29 2018 15:55:43


 **********************************************************************************************************************************
 LABEL *   Ir                                                                            
  64 bit mpp version                                                                     DATE: 10-Sep-21          TIME: 12:52:40  
 **********************************************************************************************************************************

 SHA1:             19cd028119e0e09f93f0674bd8af7968d9b3eff6
 **********************************************************************************************************************************

 THRESHOLDS:

 ZERO    =  1.00D-12  ONEINT  =  1.00D-12  TWOINT  =  1.00D-12  PREFAC  =  1.00D-14  LOCALI  =  1.00D-09  EORDER  =  1.00D-04
 ENERGY  =  0.00D+00  ETEST   =  0.00D+00  EDENS   =  0.00D+00  THRDEDEF=  1.00D-06  GRADIENT=  1.00D-02  STEP    =  1.00D-03
 ORBITAL =  1.00D-05  CIVEC   =  1.00D-05  COEFF   =  1.00D-04  PRINTCI =  5.00D-02  PUNCHCI =  9.90D+01  OPTGRAD =  3.00D-04
 OPTENERG=  1.00D-06  OPTSTEP =  3.00D-04  THRGRAD =  1.00D-10  COMPRESS=  1.00D-11  VARMIN  =  1.00D-07  VARMAX  =  1.00D-03
 THRDOUB =  0.00D+00  THRDIV  =  1.00D-05  THRRED  =  1.00D-07  THRPSP  =  1.00D+00  THRDC   =  1.00D-10  THRCS   =  1.00D-10
 THRNRM  =  1.00D-08  THREQ   =  0.00D+00  THRDE   =  1.00D+00  THRREF  =  1.00D-05  SPARFAC =  1.00D+00  THRDLP  =  1.00D-07
 THRDIA  =  1.00D-10  THRDLS  =  1.00D-07  THRGPS  =  0.00D+00  THRKEX  =  0.00D+00  THRDIS  =  2.00D-01  THRVAR  =  1.00D-10
 THRLOC  =  1.00D-06  THRGAP  =  1.00D-06  THRLOCT = -1.00D+00  THRGAPT = -1.00D+00  THRORB  =  1.00D-06  THRMLTP =  0.00D+00
 THRCPQCI=  1.00D-10  KEXTA   =  0.00D+00  THRCOARS=  0.00D+00  SYMTOL  =  1.00D-06  GRADTOL =  1.00D-06  THROVL  =  1.00D-08
 THRORTH =  1.00D-08  GRID    =  1.00D-06  GRIDMAX =  1.00D-03  DTMAX   =  0.00D+00  THROCCDE=  1.00D-01  THROCCDE=  1.00D-01



 ZUNIT=ANG
 

Geometry recognized as XYZ


 Variable memory set to  512000000 words,  buffer space   230000 words

 SETTING BASIS          =    USERDEF


 Recomputing integrals since basis changed


 Using spherical harmonics



 PROGRAM * SEWARD (Integral evaluation for generally contracted gaussian basis sets)     Author: Roland Lindh, 1990

 Geometry written to block  1 of record 700

 Orientation using atomic masses  
 Molecule type: Atom
 Symmetry elements: X,Y,Z
 Rotational constants:       0.0000000      0.0000000      0.0000000 GHz  (calculated with average atomic masses)

 Point group  D2h 



 ATOMIC COORDINATES

 NR  ATOM    CHARGE       X              Y              Z

   1  IR     17.00    0.000000000    0.000000000    0.000000000


          IR  CORE POTENTIAL

          g POTENTIAL

 POWERS             1              3              2              2
 EXPONENTIALS   12.17107       12.17014       5.602984       12.32034    
 COEFFICIENTS   17.00000       206.9082      -23.15704      -143.2084    

          s - g POTENTIAL

 POWERS             2              2
 EXPONENTIALS   6.284095       13.82629    
 COEFFICIENTS   76.59951       438.8739    

          p - g POTENTIAL

 POWERS             2              2
 EXPONENTIALS   5.346383       11.26419    
 COEFFICIENTS   61.99194       262.7501    

          d - g POTENTIAL

 POWERS             2              2
 EXPONENTIALS   4.766746       6.815210    
 COEFFICIENTS   31.12365       123.9560    

          f - g POTENTIAL

 POWERS             2              2
 EXPONENTIALS   2.786350       2.592946    
 COEFFICIENTS   10.32928       11.88570    


 BASIS DATA

   Nr Sym  Nuc  Type         Exponents   Contraction coefficients

    1.1 Ag    1  1s         106.927837     1.000000
    2.1 Ag    1  1s          50.645773     1.000000
    3.1 Ag    1  1s          23.988087     1.000000
    4.1 Ag    1  1s          11.361824     1.000000
    5.1 Ag    1  1s           5.381464     1.000000
    6.1 Ag    1  1s           2.548901     1.000000
    7.1 Ag    1  1s           1.207272     1.000000
    8.1 Ag    1  1s           0.571818     1.000000
    9.1 Ag    1  1s           0.270838     1.000000
   10.1 Ag    1  1s           0.128281     1.000000
   11.1 Ag    1  1s           0.060760     1.000000
   12.1 Ag    1  3d0         96.306304     1.000000
   13.1 Ag    1  3d2+        96.306304     1.000000
   14.1 Ag    1  3d0         46.009861     1.000000
   15.1 Ag    1  3d2+        46.009861     1.000000
   16.1 Ag    1  3d0         21.980984     1.000000
   17.1 Ag    1  3d2+        21.980984     1.000000
   18.1 Ag    1  3d0         10.501306     1.000000
   19.1 Ag    1  3d2+        10.501306     1.000000
   20.1 Ag    1  3d0          5.016947     1.000000
   21.1 Ag    1  3d2+         5.016947     1.000000
   22.1 Ag    1  3d0          2.396822     1.000000
   23.1 Ag    1  3d2+         2.396822     1.000000
   24.1 Ag    1  3d0          1.145070     1.000000
   25.1 Ag    1  3d2+         1.145070     1.000000
   26.1 Ag    1  3d0          0.547051     1.000000
   27.1 Ag    1  3d2+         0.547051     1.000000
   28.1 Ag    1  3d0          0.261351     1.000000
   29.1 Ag    1  3d2+         0.261351     1.000000
   30.1 Ag    1  3d0          0.124859     1.000000
   31.1 Ag    1  3d2+         0.124859     1.000000
   32.1 Ag    1  3d0          0.059651     1.000000
   33.1 Ag    1  3d2+         0.059651     1.000000
    1.2 B3u   1  2px        107.500913     1.000000
    2.2 B3u   1  2px         51.134268     1.000000
    3.2 B3u   1  2px         24.322708     1.000000
    4.2 B3u   1  2px         11.569426     1.000000
    5.2 B3u   1  2px          5.503154     1.000000
    6.2 B3u   1  2px          2.617650     1.000000
    7.2 B3u   1  2px          1.245121     1.000000
    8.2 B3u   1  2px          0.592259     1.000000
    9.2 B3u   1  2px          0.281716     1.000000
   10.2 B3u   1  2px          0.134002     1.000000
   11.2 B3u   1  2px          0.063740     1.000000
    1.3 B2u   1  2py        107.500913     1.000000
    2.3 B2u   1  2py         51.134268     1.000000
    3.3 B2u   1  2py         24.322708     1.000000
    4.3 B2u   1  2py         11.569426     1.000000
    5.3 B2u   1  2py          5.503154     1.000000
    6.3 B2u   1  2py          2.617650     1.000000
    7.3 B2u   1  2py          1.245121     1.000000
    8.3 B2u   1  2py          0.592259     1.000000
    9.3 B2u   1  2py          0.281716     1.000000
   10.3 B2u   1  2py          0.134002     1.000000
   11.3 B2u   1  2py          0.063740     1.000000
    1.4 B1g   1  3d2-        96.306304     1.000000
    2.4 B1g   1  3d2-        46.009861     1.000000
    3.4 B1g   1  3d2-        21.980984     1.000000
    4.4 B1g   1  3d2-        10.501306     1.000000
    5.4 B1g   1  3d2-         5.016947     1.000000
    6.4 B1g   1  3d2-         2.396822     1.000000
    7.4 B1g   1  3d2-         1.145070     1.000000
    8.4 B1g   1  3d2-         0.547051     1.000000
    9.4 B1g   1  3d2-         0.261351     1.000000
   10.4 B1g   1  3d2-         0.124859     1.000000
   11.4 B1g   1  3d2-         0.059651     1.000000
    1.5 B1u   1  2pz        107.500913     1.000000
    2.5 B1u   1  2pz         51.134268     1.000000
    3.5 B1u   1  2pz         24.322708     1.000000
    4.5 B1u   1  2pz         11.569426     1.000000
    5.5 B1u   1  2pz          5.503154     1.000000
    6.5 B1u   1  2pz          2.617650     1.000000
    7.5 B1u   1  2pz          1.245121     1.000000
    8.5 B1u   1  2pz          0.592259     1.000000
    9.5 B1u   1  2pz          0.281716     1.000000
   10.5 B1u   1  2pz          0.134002     1.000000
   11.5 B1u   1  2pz          0.063740     1.000000
    1.6 B2g   1  3d1+        96.306304     1.000000
    2.6 B2g   1  3d1+        46.009861     1.000000
    3.6 B2g   1  3d1+        21.980984     1.000000
    4.6 B2g   1  3d1+        10.501306     1.000000
    5.6 B2g   1  3d1+         5.016947     1.000000
    6.6 B2g   1  3d1+         2.396822     1.000000
    7.6 B2g   1  3d1+         1.145070     1.000000
    8.6 B2g   1  3d1+         0.547051     1.000000
    9.6 B2g   1  3d1+         0.261351     1.000000
   10.6 B2g   1  3d1+         0.124859     1.000000
   11.6 B2g   1  3d1+         0.059651     1.000000
    1.7 B3g   1  3d1-        96.306304     1.000000
    2.7 B3g   1  3d1-        46.009861     1.000000
    3.7 B3g   1  3d1-        21.980984     1.000000
    4.7 B3g   1  3d1-        10.501306     1.000000
    5.7 B3g   1  3d1-         5.016947     1.000000
    6.7 B3g   1  3d1-         2.396822     1.000000
    7.7 B3g   1  3d1-         1.145070     1.000000
    8.7 B3g   1  3d1-         0.547051     1.000000
    9.7 B3g   1  3d1-         0.261351     1.000000
   10.7 B3g   1  3d1-         0.124859     1.000000
   11.7 B3g   1  3d1-         0.059651     1.000000

 NUCLEAR CHARGE:                   17
 NUMBER OF PRIMITIVE AOS:         110
 NUMBER OF SYMMETRY AOS:           99
 NUMBER OF CONTRACTIONS:           99   (  33Ag  +  11B3u +  11B2u +  11B1g +  11B1u +  11B2g +  11B3g +   0Au  )
 NUMBER OF CORE ORBITALS:           4   (   1Ag  +   1B3u +   1B2u +   0B1g +   1B1u +   0B2g +   0B3g +   0Au  )
 NUMBER OF VALENCE ORBITALS:        6   (   3Ag  +   0B3u +   0B2u +   1B1g +   0B1u +   1B2g +   1B3g +   0Au  )


 NUCLEAR REPULSION ENERGY    0.00000000

 EXTRA SYMMETRY OF AOS IN SYMMETRY 1:   1 1 1 1 1 1 1 1 1 1   1 2 3 2 3 2 3 2 3 2   3 2 3 2 3 2 3 2 3 2   3 2 3

 Eigenvalues of metric

         1 0.423E-03 0.141E-02 0.450E-02 0.565E-02 0.565E-02 0.134E-01 0.138E-01 0.138E-01
         2 0.193E-02 0.547E-02 0.152E-01 0.396E-01 0.974E-01 0.226E+00 0.494E+00 0.101E+01
         3 0.193E-02 0.547E-02 0.152E-01 0.396E-01 0.974E-01 0.226E+00 0.494E+00 0.101E+01
         4 0.565E-02 0.138E-01 0.341E-01 0.794E-01 0.174E+00 0.358E+00 0.688E+00 0.122E+01
         5 0.193E-02 0.547E-02 0.152E-01 0.396E-01 0.974E-01 0.226E+00 0.494E+00 0.101E+01
         6 0.565E-02 0.138E-01 0.341E-01 0.794E-01 0.174E+00 0.358E+00 0.688E+00 0.122E+01
         7 0.565E-02 0.138E-01 0.341E-01 0.794E-01 0.174E+00 0.358E+00 0.688E+00 0.122E+01


 Contracted 2-electron integrals neglected if value below      1.0D-12
 AO integral compression algorithm  1   Integral accuracy      1.0D-12

     30.409 MB (compressed) written to integral file ( 61.9%)

     Node minimum: 0.262 MB, node maximum: 9.699 MB


 NUMBER OF SORTED TWO-ELECTRON INTEGRALS:     112722.     BUFFER LENGTH:  32768
 NUMBER OF SEGMENTS:   1  SEGMENT LENGTH:     112722      RECORD LENGTH: 524288

 Memory used in sort:       0.67 MW

 SORT1 READ     5871041. AND WROTE       99496. INTEGRALS IN      1 RECORDS. CPU TIME:     0.12 SEC, REAL TIME:     0.13 SEC
 SORT2 READ     1481942. AND WROTE     1692240. INTEGRALS IN     60 RECORDS. CPU TIME:     0.01 SEC, REAL TIME:     0.06 SEC

 Node minimum:      106789.  Node maximum:      120753. integrals

 OPERATOR DM      FOR CENTER  0  COORDINATES:    0.000000    0.000000    0.000000


 **********************************************************************************************************************************
 DATASETS  * FILE   NREC   LENGTH (MB)   RECORD NAMES
              1      19       19.95       500      610      700      900      950      970     1000      129      960     1100   
                                          VAR    BASINP    GEOM    SYMINP    ZMAT    AOBASIS   BASIS     P2S    ABASIS      S 
                                         1400     1410     1420     1200     1210     1080     1600     1650     1700   
                                           T        V       ECP      H0       H01     AOSYM     SMH    MOLCAS    OPER   

 PROGRAMS   *        TOTAL       INT
 CPU TIMES  *         1.10      0.91
 REAL TIME  *         2.06 SEC
 DISK USED  *        79.33 MB      
 GA USED    *         0.00 MB       (max)       0.00 MB       (current)
 **********************************************************************************************************************************


 PROGRAM * RHF-SCF (OPEN SHELL)       Authors: W. Meyer, H.-J. Werner


 NUMBER OF ELECTRONS:      10+    7-    SPACE SYMMETRY=1    SPIN SYMMETRY: Quartet 
 CONVERGENCE THRESHOLDS:    1.00E-05 (Density)    1.00E-07 (Energy)
 MAX. NUMBER OF ITERATIONS:       60
 INTERPOLATION TYPE:            DIIS
 INTERPOLATION STEPS:              2 (START)      1 (STEP)
 LEVEL SHIFTS:                 -0.60 (CLOSED) -0.30 (OPEN) 

 Number of closed-shell orbitals:    7 (   4   1   1   0   1   0   0 )
 Number of open-shell orbitals:      3 (   0   0   0   1   0   1   1 )


 
 Extra symmetries of mos in symmetry 1:   1   1   3   2

   Atom=IR basis=cc-pVTZ-PP        lmin=0  lmax=2

 Orbital guess generated from atomic densities. Full valence occupancy:    4   1   1   1   1   1   1   0


 Molecular orbital dump at record        4202.2

 ITERATION    DDIFF          GRAD             ENERGY        2-EL.EN.            DIPOLE MOMENTS         DIIS   ORB.
    1      0.000D+00      0.000D+00      -103.66041254    153.092697    0.00000    0.00000    0.00000    0    start
    2      0.000D+00      0.453D-02      -103.66391497    153.008039    0.00000    0.00000    0.00000    1    diag,B
    3      0.390D-02      0.127D-02      -103.66477459    153.101608    0.00000    0.00000    0.00000    2    diag,B
    4      0.200D-02      0.621D-03      -103.66502669    153.077302    0.00000    0.00000    0.00000    3    diag,B
    5      0.205D-02      0.234D-03      -103.66506847    153.052038    0.00000    0.00000    0.00000    4    diag,B
    6      0.182D-02      0.100D-03      -103.66507761    153.032284    0.00000    0.00000    0.00000    5    diag,B
    7      0.148D-02      0.307D-04      -103.66507833    153.028237    0.00000    0.00000    0.00000    6    fixocc
    8      0.537D-03      0.584D-05      -103.66507835    153.028022    0.00000    0.00000    0.00000    7    diag,B
    9      0.344D-04      0.162D-05      -103.66507835    153.028199    0.00000    0.00000    0.00000    8    diag,B
   10      0.860D-05      0.378D-06      -103.66507835    153.028208    0.00000    0.00000    0.00000    0    orth

 Final alpha occupancy:   4   1   1   1   1   1   1
 Final beta  occupancy:   4   1   1   0   1   0   0

 !RHF STATE 1.1 Energy               -103.665078349313
 Nuclear energy                         0.00000000
 One-electron energy                 -180.17918246
 Two-electron energy                   76.51410411
 Virial quotient                       -2.97326039
 !RHF STATE 1.1 Dipole moment           0.00000000     0.00000000     0.00000000
 Dipole moment /Debye                   0.00000000     0.00000000     0.00000000

 ELECTRON ORBITALS
 =================


   Orb  Occ    Energy  Couls-En    Coefficients

                                   1 1s      1 1s      1 1s      1 1s      1 1s      1 1s      1 1s      1 1s      1 1s      1 1s   
                                   1 1s      1 3d0     1 3d2+    1 3d0     1 3d2+    1 3d0     1 3d2+    1 3d0     1 3d2+    1 3d0  
                                   1 3d2+    1 3d0     1 3d2+    1 3d0     1 3d2+    1 3d0     1 3d2+    1 3d0     1 3d2+    1 3d0  
                                   1 3d2+    1 3d0     1 3d2+ 

   1.1   2    -4.2226  -18.8525  0.000085  0.002159 -0.044048  0.339614 -0.843079 -0.019476  0.952590  0.370933  0.029173 -0.001515
                                 0.000752  0.000000 -0.000000 -0.000000  0.000000 -0.000000 -0.000000  0.000000  0.000000 -0.000000
                                -0.000000  0.000000  0.000000 -0.000000  0.000000  0.000000 -0.000000  0.000000  0.000000 -0.000000
                                -0.000000  0.000000  0.000000

   2.1   2    -0.2956   -6.2745 -0.000047 -0.000598  0.014567 -0.119335  0.320662 -0.019552 -0.441418 -0.363064  0.234628  0.335273
                                 0.707130 -0.000000  0.000000 -0.000000 -0.000000  0.000000 -0.000000 -0.000000  0.000000  0.000000
                                -0.000000 -0.000000  0.000000  0.000000  0.000000  0.000000  0.000000 -0.000000  0.000000  0.000000
                                 0.000000 -0.000000  0.000000

   3.1   2    -0.4551   -9.5326 -0.000000  0.000000 -0.000000  0.000000 -0.000000  0.000000 -0.000000  0.000000 -0.000000  0.000000
                                -0.000000  0.000000  0.000022 -0.000000 -0.000066 -0.000000 -0.000239  0.000019  0.011305 -0.000160
                                -0.094446  0.000206  0.121560  0.000627  0.369524  0.000646  0.380952  0.000440  0.259383  0.000174
                                 0.102806  0.000030  0.017393

   4.1   2    -0.4551   -9.5326 -0.000000  0.000000 -0.000000  0.000000 -0.000000  0.000000 -0.000000  0.000000 -0.000000  0.000000
                                -0.000000  0.000022 -0.000000 -0.000066  0.000000 -0.000239  0.000000  0.011305 -0.000019 -0.094446
                                 0.000160  0.121560 -0.000206  0.369524 -0.000627  0.380952 -0.000646  0.259383 -0.000440  0.102806
                                -0.000174  0.017393 -0.000030

                                   1 2px     1 2px     1 2px     1 2px     1 2px     1 2px     1 2px     1 2px     1 2px     1 2px  
                                   1 2px  

   1.2   2    -2.4530  -14.9742  0.000130 -0.000456 -0.002587  0.061746 -0.306180  0.123285  0.636733  0.364132  0.075240  0.002165
                                 0.001715

                                   1 2py     1 2py     1 2py     1 2py     1 2py     1 2py     1 2py     1 2py     1 2py     1 2py  
                                   1 2py  

   1.3   2    -2.4530  -14.9742  0.000130 -0.000456 -0.002587  0.061746 -0.306180  0.123285  0.636733  0.364132  0.075240  0.002165
                                 0.001715

                                   1 3d2-    1 3d2-    1 3d2-    1 3d2-    1 3d2-    1 3d2-    1 3d2-    1 3d2-    1 3d2-    1 3d2- 
                                   1 3d2- 

   1.4   +    -0.5254   -9.7004  0.000020 -0.000059 -0.000270  0.011565 -0.095922  0.121526  0.380506  0.391884  0.249388  0.084755
                                 0.010636

                                   1 2pz     1 2pz     1 2pz     1 2pz     1 2pz     1 2pz     1 2pz     1 2pz     1 2pz     1 2pz  
                                   1 2pz  

   1.5   2    -2.4530  -14.9742  0.000130 -0.000456 -0.002587  0.061746 -0.306180  0.123285  0.636733  0.364132  0.075240  0.002165
                                 0.001715

                                   1 3d1+    1 3d1+    1 3d1+    1 3d1+    1 3d1+    1 3d1+    1 3d1+    1 3d1+    1 3d1+    1 3d1+ 
                                   1 3d1+ 

   1.6   +    -0.5254   -9.7004  0.000020 -0.000059 -0.000270  0.011565 -0.095922  0.121526  0.380506  0.391884  0.249388  0.084755
                                 0.010636

                                   1 3d1-    1 3d1-    1 3d1-    1 3d1-    1 3d1-    1 3d1-    1 3d1-    1 3d1-    1 3d1-    1 3d1- 
                                   1 3d1- 

   1.7   +    -0.5254   -9.7004  0.000020 -0.000059 -0.000270  0.011565 -0.095922  0.121526  0.380506  0.391884  0.249388  0.084755
                                 0.010636

 HOMO      4.1    -0.455119 =     -12.3844eV
 LUMO      2.2     0.057723 =       1.5707eV
 LUMO-HOMO         0.512842 =      13.9551eV


 **********************************************************************************************************************************
 DATASETS  * FILE   NREC   LENGTH (MB)   RECORD NAMES
              1      19       19.96       500      610      700      900      950      970     1000      129      960     1100   
                                          VAR    BASINP    GEOM    SYMINP    ZMAT    AOBASIS   BASIS     P2S    ABASIS      S 
                                         1400     1410     1420     1200     1210     1080     1600     1650     1700   
                                           T        V       ECP      H0       H01     AOSYM     SMH    MOLCAS    OPER   

              2       4        2.81       700     1000      520     4202   
                                         GEOM     BASIS   MCVARS     RHF  

 PROGRAMS   *        TOTAL       RHF       INT
 CPU TIMES  *         1.22      0.12      0.91
 REAL TIME  *         2.27 SEC
 DISK USED  *       425.52 MB      
 SF USED    *         0.01 MB      
 GA USED    *         0.00 MB       (max)       0.00 MB       (current)
 **********************************************************************************************************************************


 PROGRAM * POP (Mulliken population analysis)

 
 Density matrix read from record         4202.2  Type=RHF/CHARGE (state 1.1)
 
 Population analysis by basis function type

 Unique atom        s        p        d        f        g    Total    Charge
   1  IR      4.00000  6.00000  7.00000  0.00000  0.00000 17.00000  + 0.00000


 **********************************************************************************************************************************
 DATASETS  * FILE   NREC   LENGTH (MB)   RECORD NAMES
              1      19       19.96       500      610      700      900      950      970     1000      129      960     1100   
                                          VAR    BASINP    GEOM    SYMINP    ZMAT    AOBASIS   BASIS     P2S    ABASIS      S 
                                         1400     1410     1420     1200     1210     1080     1600     1650     1700   
                                           T        V       ECP      H0       H01     AOSYM     SMH    MOLCAS    OPER   

              2       4        2.81       700     1000      520     4202   
                                         GEOM     BASIS   MCVARS     RHF  

 PROGRAMS   *        TOTAL       POP       RHF       INT
 CPU TIMES  *         1.22      0.00      0.12      0.91
 REAL TIME  *         2.28 SEC
 DISK USED  *       425.52 MB      
 SF USED    *         0.01 MB      
 GA USED    *         0.00 MB       (max)       0.00 MB       (current)
 **********************************************************************************************************************************


 PROGRAM * MULTI (Direct Multiconfiguration SCF)       Authors: P.J. Knowles, H.-J. Werner (1984)     S.T. Elbert (1988)


 Number of frozen core orbitals:    5 (   2   1   1   0   1   0   0   0 )
 Number of active  orbitals:        5 (   2   0   0   1   0   1   1   0 )
 Number of external orbitals:      89 (  29  10  10  10  10  10  10   0 )

 State symmetry 1

 Number of electrons:     7    Spin symmetry=Quartet   Space symmetry=1
 Number of states:        1
 Number of CSFs:          1   (1 determinants, 10 intermediate states)

 State symmetry 2

 Number of electrons:     7    Spin symmetry=Quartet   Space symmetry=4
 Number of states:        3
 Number of CSFs:          3   (3 determinants, 10 intermediate states)

 State symmetry 3

 Number of electrons:     7    Spin symmetry=Quartet   Space symmetry=6
 Number of states:        3
 Number of CSFs:          3   (3 determinants, 10 intermediate states)

 State symmetry 4

 Number of electrons:     7    Spin symmetry=Quartet   Space symmetry=7
 Number of states:        3
 Number of CSFs:          3   (3 determinants, 10 intermediate states)

 Iteration controls:
             1  2  3  4  5  6  7  8  9 10 11 12 13 14 15 16 17 18 19 20 21 22 23 24 25 26 27 28 29 30 31 32 33 34 35 36 37 38 39
 DIAGCI      T  T  T  T  T  T  T  T  T  T  T  T  T  T  T  T  T  T  T  T  T  T  T  T  T  T  T  T  T  T  T  T  T  T  T  T  T  T  T
 WERNER      T  T  T  T  T  T  T  T  T  T  T  T  T  T  T  T  T  T  T  T  T  T  T  T  T  T  T  T  T  T  T  T  T  T  T  T  T  T  T
 INTERNAL    F  T  T  T  T  T  T  T  T  T  T  T  T  T  T  T  T  T  T  T  T  T  T  T  T  T  T  T  T  T  T  T  T  T  T  T  T  T  T

 Valence orbitals read from record       4202.2  Type=RHF/CANONICAL (state 1.1)
 Frozen core orbitals read from record   4202.2  Type=RHF/CANONICAL (state 1.1)
 *** IN SYMMETRY 1 ORBITAL  3 SYMMETRY CONTAMINATION OF 0.169D-02 HAS BEEN REMOVED
 *** IN SYMMETRY 1 ORBITAL  4 SYMMETRY CONTAMINATION OF 0.169D-02 HAS BEEN REMOVED

 EXTRA SYMMETRY OF MOS IN SYMMETRY 1:   0 0 3 2 3 2 1 3 2 1   3 2 1 3 2 2 3 1 3 2   1 3 2 2 3 1 2 3 1 1   3 2 1

 Wavefunction dump at record             4203.2

 Convergence thresholds  0.10E-01 (gradient)  0.10E-05 (energy)  0.10E-02 (step length)

 Weight factors for state symmetry  1:    0.10000
 Weight factors for state symmetry  2:    0.10000   0.10000   0.10000
 Weight factors for state symmetry  3:    0.10000   0.10000   0.10000
 Weight factors for state symmetry  4:    0.10000   0.10000   0.10000

 Number of orbital rotations:       88   (     0 Core/Active      0 Core/Virtual   0 Active/Active     88 Active/Virtual)
 Total number of variables:        116


 ITER. MIC  NCI  NEG     ENERGY(VAR)     ENERGY(PROJ)   ENERGY CHANGE     GRAD(0)  GRAD(ORB)   GRAD(CI)     STEP       TIME

   1   22   16    0    -103.64587640    -103.64712369   -0.00124729    0.04303783 0.00000000 0.00000000  0.35D-01      0.06
   2   13   16    0    -103.64712721    -103.64712724   -0.00000003    0.00022715 0.00000000 0.00000000  0.16D-03      0.08
   3   22   16    0    -103.64712724    -103.64712724    0.00000000    0.00000001 0.00000000 0.00000000  0.47D-08      0.11

 ** WVFN ****  CONVERGENCE REACHED, FINAL GRADIENT:  0.14D-13



 Results for state 1.1
 =====================

 !MCSCF STATE 1.1 Energy             -103.664115776719
 Nuclear energy                         0.00000000
 Kinetic energy                        34.85045440
 One electron energy                 -180.16159484
 Two electron energy                   76.49747907
 Virial ratio                           3.97454130

 !MCSCF STATE 1.1 Dipole moment         0.00000000     0.00000000     0.00000000
 Dipole moment /Debye                   0.00000000     0.00000000     0.00000000



 Results for state 1.4
 =====================

 !MCSCF STATE 1.4 Energy             -103.664115776719
 Nuclear energy                         0.00000000
 Kinetic energy                        34.85045440
 One electron energy                 -180.16159484
 Two electron energy                   76.49747907
 Virial ratio                           3.97454130

 !MCSCF STATE 1.4 Dipole moment         0.00000000     0.00000000     0.00000000
 Dipole moment /Debye                   0.00000000     0.00000000     0.00000000

 Results for state 2.4
 =====================

 !MCSCF STATE 2.4 Energy             -103.664115776719
 Nuclear energy                         0.00000000
 Kinetic energy                        34.85045440
 One electron energy                 -180.16159484
 Two electron energy                   76.49747907
 Virial ratio                           3.97454130

 !MCSCF STATE 2.4 Dipole moment         0.00000000     0.00000000     0.00000000
 Dipole moment /Debye                   0.00000000     0.00000000     0.00000000

 Results for state 3.4
 =====================

 !MCSCF STATE 3.4 Energy             -103.607487331042
 Nuclear energy                         0.00000000
 Kinetic energy                        34.85045440
 One electron energy                 -180.16159484
 Two electron energy                   76.55410751
 Virial ratio                           3.97291640

 !MCSCF STATE 3.4 Dipole moment         0.00000000     0.00000000     0.00000000
 Dipole moment /Debye                   0.00000000     0.00000000     0.00000000



 Results for state 1.6
 =====================

 !MCSCF STATE 1.6 Energy             -103.664115776719
 Nuclear energy                         0.00000000
 Kinetic energy                        34.85045440
 One electron energy                 -180.16159484
 Two electron energy                   76.49747907
 Virial ratio                           3.97454130

 !MCSCF STATE 1.6 Dipole moment         0.00000000     0.00000000     0.00000000
 Dipole moment /Debye                   0.00000000     0.00000000     0.00000000

 Results for state 2.6
 =====================

 !MCSCF STATE 2.6 Energy             -103.664115776718
 Nuclear energy                         0.00000000
 Kinetic energy                        34.85045440
 One electron energy                 -180.16159484
 Two electron energy                   76.49747907
 Virial ratio                           3.97454130

 !MCSCF STATE 2.6 Dipole moment         0.00000000     0.00000000     0.00000000
 Dipole moment /Debye                   0.00000000     0.00000000     0.00000000

 Results for state 3.6
 =====================

 !MCSCF STATE 3.6 Energy             -103.607487331043
 Nuclear energy                         0.00000000
 Kinetic energy                        34.85045440
 One electron energy                 -180.16159484
 Two electron energy                   76.55410751
 Virial ratio                           3.97291640

 !MCSCF STATE 3.6 Dipole moment         0.00000000     0.00000000     0.00000000
 Dipole moment /Debye                   0.00000000     0.00000000     0.00000000



 Results for state 1.7
 =====================

 !MCSCF STATE 1.7 Energy             -103.664115776719
 Nuclear energy                         0.00000000
 Kinetic energy                        34.85045440
 One electron energy                 -180.16159484
 Two electron energy                   76.49747907
 Virial ratio                           3.97454130

 !MCSCF STATE 1.7 Dipole moment         0.00000000     0.00000000     0.00000000
 Dipole moment /Debye                   0.00000000     0.00000000     0.00000000

 Results for state 2.7
 =====================

 !MCSCF STATE 2.7 Energy             -103.664115776718
 Nuclear energy                         0.00000000
 Kinetic energy                        34.85045440
 One electron energy                 -180.16159484
 Two electron energy                   76.49747907
 Virial ratio                           3.97454130

 !MCSCF STATE 2.7 Dipole moment         0.00000000     0.00000000     0.00000000
 Dipole moment /Debye                   0.00000000     0.00000000     0.00000000

 Results for state 3.7
 =====================

 !MCSCF STATE 3.7 Energy             -103.607487331043
 Nuclear energy                         0.00000000
 Kinetic energy                        34.85045440
 One electron energy                 -180.16159484
 Two electron energy                   76.55410751
 Virial ratio                           3.97291640

 !MCSCF STATE 3.7 Dipole moment         0.00000000     0.00000000     0.00000000
 Dipole moment /Debye                   0.00000000     0.00000000     0.00000000

 State-averaged charge density matrix saved on record  4203.2 (density set 1)


 NATURAL ORBITALS (state averaged)
 =================================

   Orb     Occ        Energy       Coefficients

                                   1 1s      1 1s      1 1s      1 1s      1 1s      1 1s      1 1s      1 1s      1 1s      1 1s   
                                   1 1s      1 3d0     1 3d2+    1 3d0     1 3d2+    1 3d0     1 3d2+    1 3d0     1 3d2+    1 3d0  
                                   1 3d2+    1 3d0     1 3d2+    1 3d0     1 3d2+    1 3d0     1 3d2+    1 3d0     1 3d2+    1 3d0  
                                   1 3d2+    1 3d0     1 3d2+ 

   3.1  1.40000    -0.306618     0.000000  0.000000  0.000000  0.000000  0.000000  0.000000  0.000000  0.000000  0.000000  0.000000
                                 0.000000  0.000021  0.000000 -0.000064  0.000000 -0.000250  0.000000  0.011406  0.000000 -0.095040
                                 0.000000  0.121610  0.000000  0.373810  0.000000  0.385242  0.000000  0.255693  0.000000  0.095696
                                 0.000000  0.014462  0.000000

   4.1  1.40000    -0.306618     0.000000  0.000000  0.000000  0.000000  0.000000  0.000000  0.000000  0.000000  0.000000  0.000000
                                 0.000000  0.000000  0.000021  0.000000 -0.000064  0.000000 -0.000250  0.000000  0.011406  0.000000
                                -0.095040  0.000000  0.121610  0.000000  0.373810  0.000000  0.385242  0.000000  0.255693  0.000000
                                 0.095696  0.000000  0.014462

                                   1 3d2-    1 3d2-    1 3d2-    1 3d2-    1 3d2-    1 3d2-    1 3d2-    1 3d2-    1 3d2-    1 3d2- 
                                   1 3d2- 

   1.4  1.40000    -0.306618     0.000021 -0.000064 -0.000250  0.011406 -0.095040  0.121610  0.373810  0.385242  0.255693  0.095696
                                 0.014462

                                   1 3d1+    1 3d1+    1 3d1+    1 3d1+    1 3d1+    1 3d1+    1 3d1+    1 3d1+    1 3d1+    1 3d1+ 
                                   1 3d1+ 

   1.6  1.40000    -0.306618     0.000021 -0.000064 -0.000250  0.011406 -0.095040  0.121610  0.373810  0.385242  0.255693  0.095696
                                 0.014462

                                   1 3d1-    1 3d1-    1 3d1-    1 3d1-    1 3d1-    1 3d1-    1 3d1-    1 3d1-    1 3d1-    1 3d1- 
                                   1 3d1- 

   1.7  1.40000    -0.306618     0.000021 -0.000064 -0.000250  0.011406 -0.095040  0.121610  0.373810  0.385242  0.255693  0.095696
                                 0.014462
 

 EXTRA SYMMETRY OF MOS IN SYMMETRY 1:   0 0 2 3 2 3 1 3 2 1   3 2 1 3 2 2 3 1 2 3   1 3 2 2 3 1 2 3 1 1   3 2 1

 Natural orbital dump (state averaged) at molpro section  4203.2    (Orbital set 2)



 **********************************************************************************************************************************
 DATASETS  * FILE   NREC   LENGTH (MB)   RECORD NAMES
              1      20       20.26       500      610      700      900      950      970     1000      129      960     1100   
                                          VAR    BASINP    GEOM    SYMINP    ZMAT    AOBASIS   BASIS     P2S    ABASIS      S 
                                         1400     1410     1420     1200     1210     1080     1600     1650     1700     1380   
                                           T        V       ECP      H0       H01     AOSYM     SMH    MOLCAS    OPER     JKOP   

              2       5        5.36       700     1000      520     4202     4203   
                                         GEOM     BASIS   MCVARS     RHF     MCSCF   

 PROGRAMS   *        TOTAL     MULTI       POP       RHF       INT
 CPU TIMES  *         1.37      0.15      0.00      0.12      0.91
 REAL TIME  *         2.96 SEC
 DISK USED  *       425.52 MB      
 SF USED    *        12.84 MB      
 GA USED    *         0.00 MB       (max)       0.00 MB       (current)
 **********************************************************************************************************************************


 PROGRAM * MULTI (Direct Multiconfiguration SCF)       Authors: P.J. Knowles, H.-J. Werner (1984)     S.T. Elbert (1988)


 Number of closed-shell orbitals:   5 (   2   1   1   0   1   0   0   0 )
 Number of active  orbitals:        5 (   2   0   0   1   0   1   1   0 )
 Number of external orbitals:      89 (  29  10  10  10  10  10  10   0 )

 State symmetry 1

 Number of electrons:     7    Spin symmetry=Quartet   Space symmetry=1
 Number of states:        1
 Number of CSFs:          1   (1 determinants, 10 intermediate states)

 State symmetry 2

 Number of electrons:     7    Spin symmetry=Quartet   Space symmetry=4
 Number of states:        3
 Number of CSFs:          3   (3 determinants, 10 intermediate states)

 State symmetry 3

 Number of electrons:     7    Spin symmetry=Quartet   Space symmetry=6
 Number of states:        3
 Number of CSFs:          3   (3 determinants, 10 intermediate states)

 State symmetry 4

 Number of electrons:     7    Spin symmetry=Quartet   Space symmetry=7
 Number of states:        3
 Number of CSFs:          3   (3 determinants, 10 intermediate states)

 Iteration controls:
             1  2  3  4  5  6  7  8  9 10 11 12 13 14 15 16 17 18 19 20 21 22 23 24 25 26 27 28 29 30 31 32 33 34 35 36 37 38 39
 DIAGCI      T  T  T  T  T  T  T  T  T  T  T  T  T  T  T  T  T  T  T  T  T  T  T  T  T  T  T  T  T  T  T  T  T  T  T  T  T  T  T
 WERNER      T  T  T  T  T  T  T  T  T  T  T  T  T  T  T  T  T  T  T  T  T  T  T  T  T  T  T  T  T  T  T  T  T  T  T  T  T  T  T
 INTERNAL    F  T  T  T  T  T  T  T  T  T  T  T  T  T  T  T  T  T  T  T  T  T  T  T  T  T  T  T  T  T  T  T  T  T  T  T  T  T  T

 Molecular orbitals read from record     4203.2  Type=MCSCF/NATURAL (state averaged)

 EXTRA SYMMETRY OF MOS IN SYMMETRY 1:   1 1 2 3 2 3 1 3 2 1   3 2 1 3 2 2 3 1 2 3   1 3 2 2 3 1 2 3 1 1   3 2 1

 Wavefunction dump at record             5202.2

 Convergence thresholds  0.10E-01 (gradient)  0.10E-05 (energy)  0.10E-02 (step length)

 Weight factors for state symmetry  1:    0.10000
 Weight factors for state symmetry  2:    0.10000   0.10000   0.10000
 Weight factors for state symmetry  3:    0.10000   0.10000   0.10000
 Weight factors for state symmetry  4:    0.10000   0.10000   0.10000

 Number of orbital rotations:      180   (     4 Core/Active     88 Core/Virtual   0 Active/Active     88 Active/Virtual)
 Total number of variables:        208


 ITER. MIC  NCI  NEG     ENERGY(VAR)     ENERGY(PROJ)   ENERGY CHANGE     GRAD(0)  GRAD(ORB)   GRAD(CI)     STEP       TIME

   1   21   16    0    -103.64712724    -103.64712792   -0.00000067    0.00175564 0.00000000 0.00000000  0.70D-03      0.04
   2   14   20    0    -103.64712792    -103.64712792   -0.00000000    0.00000021 0.00000000 0.00000000  0.11D-06      0.09

 ** WVFN ****  CONVERGENCE REACHED, FINAL GRADIENT:  0.11D-11



 Results for state 1.1
 =====================

 !MCSCF STATE 1.1 Energy             -103.664114775158
 Nuclear energy                         0.00000000
 Kinetic energy                        34.85268500
 One electron energy                 -180.16554317
 Two electron energy                   76.50142839
 Virial ratio                           3.97435089

 !MCSCF STATE 1.1 Dipole moment         0.00000000     0.00000000     0.00000000
 Dipole moment /Debye                   0.00000000     0.00000000     0.00000000



 Results for state 1.4
 =====================

 !MCSCF STATE 1.4 Energy             -103.664114775158
 Nuclear energy                         0.00000000
 Kinetic energy                        34.85268500
 One electron energy                 -180.16554317
 Two electron energy                   76.50142839
 Virial ratio                           3.97435089

 !MCSCF STATE 1.4 Dipole moment         0.00000000     0.00000000     0.00000000
 Dipole moment /Debye                   0.00000000     0.00000000     0.00000000

 Results for state 2.4
 =====================

 !MCSCF STATE 2.4 Energy             -103.664114775158
 Nuclear energy                         0.00000000
 Kinetic energy                        34.85268500
 One electron energy                 -180.16554317
 Two electron energy                   76.50142839
 Virial ratio                           3.97435089

 !MCSCF STATE 2.4 Dipole moment         0.00000000     0.00000000     0.00000000
 Dipole moment /Debye                   0.00000000     0.00000000     0.00000000

 Results for state 3.4
 =====================

 !MCSCF STATE 3.4 Energy             -103.607491910726
 Nuclear energy                         0.00000000
 Kinetic energy                        34.85268500
 One electron energy                 -180.16554317
 Two electron energy                   76.55805126
 Virial ratio                           3.97272626

 !MCSCF STATE 3.4 Dipole moment         0.00000000     0.00000000     0.00000000
 Dipole moment /Debye                   0.00000000     0.00000000     0.00000000



 Results for state 1.6
 =====================

 !MCSCF STATE 1.6 Energy             -103.664114775158
 Nuclear energy                         0.00000000
 Kinetic energy                        34.85268500
 One electron energy                 -180.16554317
 Two electron energy                   76.50142839
 Virial ratio                           3.97435089

 !MCSCF STATE 1.6 Dipole moment         0.00000000     0.00000000     0.00000000
 Dipole moment /Debye                   0.00000000     0.00000000     0.00000000

 Results for state 2.6
 =====================

 !MCSCF STATE 2.6 Energy             -103.664114775157
 Nuclear energy                         0.00000000
 Kinetic energy                        34.85268500
 One electron energy                 -180.16554317
 Two electron energy                   76.50142839
 Virial ratio                           3.97435089

 !MCSCF STATE 2.6 Dipole moment         0.00000000     0.00000000     0.00000000
 Dipole moment /Debye                   0.00000000     0.00000000     0.00000000

 Results for state 3.6
 =====================

 !MCSCF STATE 3.6 Energy             -103.607491910727
 Nuclear energy                         0.00000000
 Kinetic energy                        34.85268500
 One electron energy                 -180.16554317
 Two electron energy                   76.55805126
 Virial ratio                           3.97272626

 !MCSCF STATE 3.6 Dipole moment         0.00000000     0.00000000     0.00000000
 Dipole moment /Debye                   0.00000000     0.00000000     0.00000000



 Results for state 1.7
 =====================

 !MCSCF STATE 1.7 Energy             -103.664114775158
 Nuclear energy                         0.00000000
 Kinetic energy                        34.85268500
 One electron energy                 -180.16554317
 Two electron energy                   76.50142839
 Virial ratio                           3.97435089

 !MCSCF STATE 1.7 Dipole moment         0.00000000     0.00000000     0.00000000
 Dipole moment /Debye                   0.00000000     0.00000000     0.00000000

 Results for state 2.7
 =====================

 !MCSCF STATE 2.7 Energy             -103.664114775157
 Nuclear energy                         0.00000000
 Kinetic energy                        34.85268500
 One electron energy                 -180.16554317
 Two electron energy                   76.50142839
 Virial ratio                           3.97435089

 !MCSCF STATE 2.7 Dipole moment         0.00000000     0.00000000     0.00000000
 Dipole moment /Debye                   0.00000000     0.00000000     0.00000000

 Results for state 3.7
 =====================

 !MCSCF STATE 3.7 Energy             -103.607491910727
 Nuclear energy                         0.00000000
 Kinetic energy                        34.85268500
 One electron energy                 -180.16554317
 Two electron energy                   76.55805126
 Virial ratio                           3.97272626

 !MCSCF STATE 3.7 Dipole moment         0.00000000     0.00000000     0.00000000
 Dipole moment /Debye                   0.00000000     0.00000000     0.00000000

 State-averaged charge density matrix saved on record  5202.2 (density set 1)


 NATURAL ORBITALS (state averaged)
 =================================

   Orb     Occ        Energy       Coefficients

                                   1 1s      1 1s      1 1s      1 1s      1 1s      1 1s      1 1s      1 1s      1 1s      1 1s   
                                   1 1s      1 3d0     1 3d2+    1 3d0     1 3d2+    1 3d0     1 3d2+    1 3d0     1 3d2+    1 3d0  
                                   1 3d2+    1 3d0     1 3d2+    1 3d0     1 3d2+    1 3d0     1 3d2+    1 3d0     1 3d2+    1 3d0  
                                   1 3d2+    1 3d0     1 3d2+ 

   1.1  2.00000    -4.223946     0.000085  0.002159 -0.044053  0.339645 -0.843160 -0.019483  0.952830  0.370754  0.029149 -0.001508
                                 0.000751  0.000000  0.000000  0.000000  0.000000  0.000000  0.000000  0.000000  0.000000  0.000000
                                 0.000000  0.000000  0.000000  0.000000  0.000000  0.000000  0.000000  0.000000  0.000000  0.000000
                                 0.000000  0.000000  0.000000

   2.1  2.00000    -0.295947    -0.000047 -0.000597  0.014573 -0.119420  0.320902 -0.019481 -0.442126 -0.363002  0.234908  0.336607
                                 0.705779  0.000000  0.000000  0.000000  0.000000  0.000000  0.000000  0.000000  0.000000  0.000000
                                 0.000000  0.000000  0.000000  0.000000  0.000000  0.000000  0.000000  0.000000  0.000000  0.000000
                                 0.000000  0.000000  0.000000

   3.1  1.40000    -0.306392     0.000000  0.000000  0.000000  0.000000  0.000000  0.000000  0.000000  0.000000  0.000000  0.000000
                                 0.000000  0.000000  0.000021  0.000000 -0.000064  0.000000 -0.000250  0.000000  0.011405  0.000000
                                -0.095031  0.000000  0.121594  0.000000  0.373774  0.000000  0.385216  0.000000  0.255725  0.000000
                                 0.095754  0.000000  0.014482

   4.1  1.40000    -0.306392     0.000000  0.000000  0.000000  0.000000  0.000000  0.000000  0.000000  0.000000  0.000000  0.000000
                                 0.000000  0.000021  0.000000 -0.000064  0.000000 -0.000250  0.000000  0.011405  0.000000 -0.095031
                                 0.000000  0.121594  0.000000  0.373774  0.000000  0.385216  0.000000  0.255725  0.000000  0.095754
                                 0.000000  0.014482  0.000000

                                   1 2px     1 2px     1 2px     1 2px     1 2px     1 2px     1 2px     1 2px     1 2px     1 2px  
                                   1 2px  

   1.2  2.00000    -2.454125     0.000130 -0.000456 -0.002587  0.061754 -0.306224  0.123313  0.636889  0.364009  0.075183  0.002181
                                 0.001712

                                   1 2py     1 2py     1 2py     1 2py     1 2py     1 2py     1 2py     1 2py     1 2py     1 2py  
                                   1 2py  

   1.3  2.00000    -2.454125     0.000130 -0.000456 -0.002587  0.061754 -0.306224  0.123313  0.636889  0.364009  0.075183  0.002181
                                 0.001712

                                   1 3d2-    1 3d2-    1 3d2-    1 3d2-    1 3d2-    1 3d2-    1 3d2-    1 3d2-    1 3d2-    1 3d2- 
                                   1 3d2- 

   1.4  1.40000    -0.306392     0.000021 -0.000064 -0.000250  0.011405 -0.095031  0.121594  0.373774  0.385216  0.255725  0.095754
                                 0.014482

                                   1 2pz     1 2pz     1 2pz     1 2pz     1 2pz     1 2pz     1 2pz     1 2pz     1 2pz     1 2pz  
                                   1 2pz  

   1.5  2.00000    -2.454125     0.000130 -0.000456 -0.002587  0.061754 -0.306224  0.123313  0.636889  0.364009  0.075183  0.002181
                                 0.001712

                                   1 3d1+    1 3d1+    1 3d1+    1 3d1+    1 3d1+    1 3d1+    1 3d1+    1 3d1+    1 3d1+    1 3d1+ 
                                   1 3d1+ 

   1.6  1.40000    -0.306392     0.000021 -0.000064 -0.000250  0.011405 -0.095031  0.121594  0.373774  0.385216  0.255725  0.095754
                                 0.014482

                                   1 3d1-    1 3d1-    1 3d1-    1 3d1-    1 3d1-    1 3d1-    1 3d1-    1 3d1-    1 3d1-    1 3d1- 
                                   1 3d1- 

   1.7  1.40000    -0.306392     0.000021 -0.000064 -0.000250  0.011405 -0.095031  0.121594  0.373774  0.385216  0.255725  0.095754
                                 0.014482
 

 EXTRA SYMMETRY OF MOS IN SYMMETRY 1:   1 1 3 2 2 3 1 3 2 1   3 2 1 3 2 2 3 1 2 3   1 3 2 2 3 1 2 3 1 1   3 2 1

 Natural orbital dump (state averaged) at molpro section  5202.2    (Orbital set 2)


 CI vector for state symmetry 1
 ==============================

 22 a a a          1.0000000

 TOTAL ENERGIES                      -103.66411478

 CI vector for state symmetry 2
 ==============================

 a2 2 a a          1.0000000   0.0000000   0.0000000
 2a 2 a a          0.0000000   0.4472136   0.8944272
 aa a 2 2          0.0000000   0.8944272  -0.4472136

 TOTAL ENERGIES                      -103.66411478  -103.66411478  -103.60749191

 CI vector for state symmetry 3
 ==============================

 aa 2 a 2          0.8037909  -0.3923267  -0.4472136
 a2 a 2 a          0.1287344  -0.6192152   0.7745967
 2a a 2 a          0.5808164   0.6801855   0.4472136

 TOTAL ENERGIES                      -103.66411478  -103.66411478  -103.60749191

 CI vector for state symmetry 4
 ==============================

 aa 2 2 a          0.8031945   0.3935461  -0.4472136
 a2 a a 2          0.1277945   0.6194099   0.7745967
 2a a a 2         -0.5818480   0.6793032  -0.4472136

 TOTAL ENERGIES                      -103.66411478  -103.66411478  -103.60749191



 **********************************************************************************************************************************
 DATASETS  * FILE   NREC   LENGTH (MB)   RECORD NAMES
              1      20       20.90       500      610      700      900      950      970     1000      129      960     1100   
                                          VAR    BASINP    GEOM    SYMINP    ZMAT    AOBASIS   BASIS     P2S    ABASIS      S 
                                         1400     1410     1420     1200     1210     1080     1600     1650     1700     1380   
                                           T        V       ECP      H0       H01     AOSYM     SMH    MOLCAS    OPER     JKOP   

              2       6        7.99       700     1000      520     4202     4203     5202   
                                         GEOM     BASIS   MCVARS     RHF     MCSCF    MCSCF   

 PROGRAMS   *        TOTAL     MULTI     MULTI       POP       RHF       INT
 CPU TIMES  *         1.51      0.14      0.15      0.00      0.12      0.91
 REAL TIME  *         3.63 SEC
 DISK USED  *       425.52 MB      
 SF USED    *        15.01 MB      
 GA USED    *         0.00 MB       (max)       0.00 MB       (current)
 **********************************************************************************************************************************


 PROGRAM * RHF-SCF (OPEN SHELL)       Authors: W. Meyer, H.-J. Werner


 NUMBER OF ELECTRONS:      10+    7-    SPACE SYMMETRY=1    SPIN SYMMETRY: Quartet 
 CONVERGENCE THRESHOLDS:    1.00E-05 (Density)    1.00E-07 (Energy)
 MAX. NUMBER OF ITERATIONS:        0
 INTERPOLATION TYPE:            DIIS
 INTERPOLATION STEPS:              2 (START)      1 (STEP)
 LEVEL SHIFTS:                 -0.60 (CLOSED) -0.30 (OPEN) 

 Number of closed-shell orbitals:    7 (   4   1   1   0   1   0   0 )
 Number of open-shell orbitals:      3 (   0   0   0   1   0   1   1 )


 Molecular orbitals read from record     5202.2  Type=MCSCF/NATURAL (state averaged)

 Molecular orbital dump at record        2101.2

 ITERATION    DDIFF          GRAD             ENERGY        2-EL.EN.            DIPOLE MOMENTS         DIIS   ORB.
    1      0.000D+00      0.000D+00      -103.66411478    153.002857    0.00000    0.00000    0.00000    0    start

 Final alpha occupancy:   4   1   1   1   1   1   1
 Final beta  occupancy:   4   1   1   0   1   0   0

 !RHF STATE 1.1 Energy               -103.664114775158
 Nuclear energy                         0.00000000
 One-electron energy                 -180.16554317
 Two-electron energy                   76.50142839
 Virial quotient                       -2.97435089
 !RHF STATE 1.1 Dipole moment           0.00000000     0.00000000     0.00000000
 Dipole moment /Debye                   0.00000000     0.00000000     0.00000000

 ELECTRON ORBITALS
 =================


   Orb  Occ    Energy  Couls-En    Coefficients

                                   1 1s      1 1s      1 1s      1 1s      1 1s      1 1s      1 1s      1 1s      1 1s      1 1s   
                                   1 1s      1 3d0     1 3d2+    1 3d0     1 3d2+    1 3d0     1 3d2+    1 3d0     1 3d2+    1 3d0  
                                   1 3d2+    1 3d0     1 3d2+    1 3d0     1 3d2+    1 3d0     1 3d2+    1 3d0     1 3d2+    1 3d0  
                                   1 3d2+    1 3d0     1 3d2+ 

   1.1   2    -4.2239  -18.8540  0.000085  0.002159 -0.044053  0.339645 -0.843160 -0.019483  0.952830  0.370754  0.029149 -0.001508
                                 0.000751  0.000000  0.000000  0.000000  0.000000  0.000000  0.000000  0.000000  0.000000  0.000000
                                 0.000000  0.000000  0.000000  0.000000  0.000000  0.000000  0.000000  0.000000  0.000000  0.000000
                                 0.000000  0.000000  0.000000

   2.1   2    -0.2959   -6.2770 -0.000047 -0.000597  0.014573 -0.119420  0.320902 -0.019481 -0.442126 -0.363002  0.234908  0.336607
                                 0.705779  0.000000  0.000000  0.000000  0.000000  0.000000  0.000000  0.000000  0.000000  0.000000
                                 0.000000  0.000000  0.000000  0.000000  0.000000  0.000000  0.000000  0.000000  0.000000  0.000000
                                 0.000000  0.000000  0.000000

   3.1   2    -0.3064   -9.4228  0.000000  0.000000  0.000000  0.000000  0.000000  0.000000  0.000000  0.000000  0.000000  0.000000
                                 0.000000  0.000000  0.000021  0.000000 -0.000064  0.000000 -0.000250  0.000000  0.011405  0.000000
                                -0.095031  0.000000  0.121594  0.000000  0.373774  0.000000  0.385216  0.000000  0.255725  0.000000
                                 0.095754  0.000000  0.014482

   4.1   2    -0.3064   -9.4228  0.000000  0.000000  0.000000  0.000000  0.000000  0.000000  0.000000  0.000000  0.000000  0.000000
                                 0.000000  0.000021  0.000000 -0.000064  0.000000 -0.000250  0.000000  0.011405  0.000000 -0.095031
                                 0.000000  0.121594  0.000000  0.373774  0.000000  0.385216  0.000000  0.255725  0.000000  0.095754
                                 0.000000  0.014482  0.000000

   5.1   0     0.1736   -2.6534  0.000000  0.000000  0.000000  0.000000  0.000000  0.000000  0.000000  0.000000  0.000000  0.000000
                                 0.000000  0.000154  0.000000 -0.000668  0.000000  0.002015  0.000000 -0.006973  0.000000  0.028410
                                 0.000000 -0.051856  0.000000  0.013432  0.000000 -0.241462  0.000000  0.360948  0.000000 -0.884115
                                 0.000000  1.506153  0.000000

   6.1   0     0.1736   -2.6534  0.000000  0.000000  0.000000  0.000000  0.000000  0.000000  0.000000  0.000000  0.000000  0.000000
                                 0.000000  0.000000  0.000154  0.000000 -0.000668  0.000000  0.002015  0.000000 -0.006973  0.000000
                                 0.028410  0.000000 -0.051856  0.000000  0.013432  0.000000 -0.241462  0.000000  0.360948  0.000000
                                -0.884115  0.000000  1.506153

                                   1 2px     1 2px     1 2px     1 2px     1 2px     1 2px     1 2px     1 2px     1 2px     1 2px  
                                   1 2px  

   1.2   2    -2.4541  -14.9756  0.000130 -0.000456 -0.002587  0.061754 -0.306224  0.123313  0.636889  0.364009  0.075183  0.002181
                                 0.001712

   2.2   0     0.0648   -3.9718  0.000130 -0.000620  0.002587 -0.017550  0.076298 -0.065345 -0.064358 -0.273231  0.409432 -0.548986
                                 1.300080

   3.2   0     0.3501   -3.8989 -0.000668  0.003033 -0.007948  0.003742  0.043055  0.081574 -0.536199  0.529749 -1.476107  3.340163
                                -2.031852

                                   1 2py     1 2py     1 2py     1 2py     1 2py     1 2py     1 2py     1 2py     1 2py     1 2py  
                                   1 2py  

   1.3   2    -2.4541  -14.9756  0.000130 -0.000456 -0.002587  0.061754 -0.306224  0.123313  0.636889  0.364009  0.075183  0.002181
                                 0.001712

   2.3   0     0.0648   -3.9718  0.000130 -0.000620  0.002587 -0.017550  0.076298 -0.065345 -0.064358 -0.273231  0.409432 -0.548986
                                 1.300080

   3.3   0     0.3501   -3.8989 -0.000668  0.003033 -0.007948  0.003742  0.043055  0.081574 -0.536199  0.529749 -1.476107  3.340163
                                -2.031852

                                   1 3d2-    1 3d2-    1 3d2-    1 3d2-    1 3d2-    1 3d2-    1 3d2-    1 3d2-    1 3d2-    1 3d2- 
                                   1 3d2- 

   1.4   +    -0.3064   -9.4228  0.000021 -0.000064 -0.000250  0.011405 -0.095031  0.121594  0.373774  0.385216  0.255725  0.095754
                                 0.014482

   2.4   0     0.1736   -2.6534  0.000154 -0.000668  0.002015 -0.006973  0.028410 -0.051856  0.013432 -0.241462  0.360948 -0.884115
                                 1.506153

   3.4   0     0.5474   -3.3843 -0.000428  0.001839 -0.005189  0.008953  0.006112  0.030540 -0.367686  0.319496 -1.333207  2.705532
                                -1.337167

                                   1 2pz     1 2pz     1 2pz     1 2pz     1 2pz     1 2pz     1 2pz     1 2pz     1 2pz     1 2pz  
                                   1 2pz  

   1.5   2    -2.4541  -14.9756  0.000130 -0.000456 -0.002587  0.061754 -0.306224  0.123313  0.636889  0.364009  0.075183  0.002181
                                 0.001712

   2.5   0     0.0648   -3.9718  0.000130 -0.000620  0.002587 -0.017550  0.076298 -0.065345 -0.064358 -0.273231  0.409432 -0.548986
                                 1.300080

   3.5   0     0.3501   -3.8989 -0.000668  0.003033 -0.007948  0.003742  0.043055  0.081574 -0.536199  0.529749 -1.476107  3.340163
                                -2.031852

                                   1 3d1+    1 3d1+    1 3d1+    1 3d1+    1 3d1+    1 3d1+    1 3d1+    1 3d1+    1 3d1+    1 3d1+ 
                                   1 3d1+ 

   1.6   +    -0.3064   -9.4228  0.000021 -0.000064 -0.000250  0.011405 -0.095031  0.121594  0.373774  0.385216  0.255725  0.095754
                                 0.014482

   2.6   0     0.1736   -2.6534  0.000154 -0.000668  0.002015 -0.006973  0.028410 -0.051856  0.013432 -0.241462  0.360948 -0.884115
                                 1.506153

   3.6   0     0.5474   -3.3843 -0.000428  0.001839 -0.005189  0.008953  0.006112  0.030540 -0.367686  0.319496 -1.333207  2.705532
                                -1.337167

                                   1 3d1-    1 3d1-    1 3d1-    1 3d1-    1 3d1-    1 3d1-    1 3d1-    1 3d1-    1 3d1-    1 3d1- 
                                   1 3d1- 

   1.7   +    -0.3064   -9.4228  0.000021 -0.000064 -0.000250  0.011405 -0.095031  0.121594  0.373774  0.385216  0.255725  0.095754
                                 0.014482

   2.7   0     0.1736   -2.6534  0.000154 -0.000668  0.002015 -0.006973  0.028410 -0.051856  0.013432 -0.241462  0.360948 -0.884115
                                 1.506153

   3.7   0     0.5474   -3.3843 -0.000428  0.001839 -0.005189  0.008953  0.006112  0.030540 -0.367686  0.319496 -1.333207  2.705532
                                -1.337167

 HOMO      4.1    -0.306392 =      -8.3374eV
 LUMO      2.2     0.064845 =       1.7645eV
 LUMO-HOMO         0.371237 =      10.1019eV


 **********************************************************************************************************************************
 DATASETS  * FILE   NREC   LENGTH (MB)   RECORD NAMES
              1      20       20.90       500      610      700      900      950      970     1000      129      960     1100   
                                          VAR    BASINP    GEOM    SYMINP    ZMAT    AOBASIS   BASIS     P2S    ABASIS      S 
                                         1400     1410     1420     1200     1210     1080     1600     1650     1700     1380   
                                           T        V       ECP      H0       H01     AOSYM     SMH    MOLCAS    OPER     JKOP   

              2       7       10.62       700     1000      520     4202     4203     5202     2101   
                                         GEOM     BASIS   MCVARS     RHF     MCSCF    MCSCF     RHF  

 PROGRAMS   *        TOTAL       RHF     MULTI     MULTI       POP       RHF       INT
 CPU TIMES  *         1.53      0.01      0.14      0.15      0.00      0.12      0.91
 REAL TIME  *         3.67 SEC
 DISK USED  *       425.52 MB      
 SF USED    *        15.01 MB      
 GA USED    *         0.00 MB       (max)       0.00 MB       (current)
 **********************************************************************************************************************************

 RHF/USERDEF energy=   -103.664114775158

        RHF-SCF         MULTI           MULTI           RHF-SCF 
   -103.66411478   -103.60749191   -103.60748733   -103.66507835
 **********************************************************************************************************************************
 Molpro calculation terminated
 Variable memory released
