
 Primary working directories    : /global/cscratch1/sd/gwang18
 Secondary working directories  : /global/cscratch1/sd/gwang18
 Wavefunction directory         : /global/homes/g/gwang18/wfu/
 Main file repository           : /global/cscratch1/sd/gwang18/

 SHA1      : 19cd028119e0e09f93f0674bd8af7968d9b3eff6
 NAME      : 2015.1.36
 ARCHNAME  : linux/x86_64
 FC        : /opt/cray/pe/craype/2.5.14/bin/ftn
 BLASLIB   : -L/opt/intel/compilers_and_libraries_2018.1.163/linux/mkl/lib/intel64 -Wl,-_start-group -lmkl_intel_ilp64 -lmkl_intel_thread -lmkl_core -Wl,-_end-group -liomp5
 id        : lbl

 Nodes     nprocs
 nid00009     7
 Number of processes for MPI-2 version of Molpro:   nprocs(total)=    8   nprocs(compute)=    7   nprocs(helper)=    1

 Using customized tuning parameters: mindgm=7; mindgv=16; mindgc=1; mindgr=1; noblas=0; minvec=7
 default implementation of scratch files=sf  

 ***,Calculation of binding energy
 memory,512,m
 gthresh,twoint=1.0E-12
 
 basis={
 Including file /global/cscratch1/sd/gwang18/aps_2020_so/I/ccsd-t_arep_so_ccECP/I2/ecp.pp
 Including file /global/cscratch1/sd/gwang18/aps_2020_so/I/ccsd-t_arep_so_ccECP/I2/aug-cc-pV5Z.basis
 }
 
 ne    =14
 symm  =1
 ss    =0
 
 do i=1,2
     z(i) = 2.35 + 0.60*(i-1)
     geometry={
         2
         I2
         I  0.0 0.0 0.0
         I  0.0 0.0 z(i)
     }
     {rhf
      wf,nelec=ne,spin=ss ,sym=symm
                                                                                 !print,orbitals=3
     }
     scf(i)=energy
     _CC_NORM_MAX=2.0
     {uccsd(t),shifts=0.4,shiftp=0.4;maxit,100;core}
     ccsd(i)=energy
 enddo
 
 basis={
 Including file /global/cscratch1/sd/gwang18/aps_2020_so/I/ccsd-t_arep_so_ccECP/I2/ecp.pp
 Including file /global/cscratch1/sd/gwang18/aps_2020_so/I/ccsd-t_arep_so_ccECP/I2/aug-cc-pV5Z.basis
 }
 
 geometry={
    1
    I
    I 0.0 0.0 0.0
 }
 {rhf;
  start,atden
  wf,7,3,1
  occ,1,1,1,0,1,0,0,0
  closed,1,1,0,0,1,0,00
 }
 A_scf=energy
 B_scf=energy
 _CC_NORM_MAX=2.0
 {uccsd(t);maxit,100;core}
 A_ccsd=energy
 B_ccsd=energy
 
 table,z,scf,ccsd, A_scf,A_ccsd,B_scf,B_ccsd
 save, 5z_1.csv, new
 

 Variables initialized (889), CPU time= 0.01 sec
 Commands  initialized (702), CPU time= 0.01 sec, 572 directives.
 Default parameters read. Elapsed time= 0.16 sec

 Checking input...
 Passed
1


                                         ***  PROGRAM SYSTEM MOLPRO  ***
                                       Copyright, TTI GmbH Stuttgart, 2015
                                    Version 2015.1 linked Dec 29 2018 15:55:43


 **********************************************************************************************************************************
 LABEL *   Calculation of binding energy                                                 
  64 bit mpp version                                                                     DATE: 14-Dec-20          TIME: 21:54:23  
 **********************************************************************************************************************************

 SHA1:             19cd028119e0e09f93f0674bd8af7968d9b3eff6
 **********************************************************************************************************************************

 THRESHOLDS:

 ZERO    =  1.00D-12  ONEINT  =  1.00D-12  TWOINT  =  1.00D-12  PREFAC  =  1.00D-14  LOCALI  =  1.00D-09  EORDER  =  1.00D-04
 ENERGY  =  0.00D+00  ETEST   =  0.00D+00  EDENS   =  0.00D+00  THRDEDEF=  1.00D-06  GRADIENT=  1.00D-02  STEP    =  1.00D-03
 ORBITAL =  1.00D-05  CIVEC   =  1.00D-05  COEFF   =  1.00D-04  PRINTCI =  5.00D-02  PUNCHCI =  9.90D+01  OPTGRAD =  3.00D-04
 OPTENERG=  1.00D-06  OPTSTEP =  3.00D-04  THRGRAD =  1.00D-10  COMPRESS=  1.00D-11  VARMIN  =  1.00D-07  VARMAX  =  1.00D-03
 THRDOUB =  0.00D+00  THRDIV  =  1.00D-05  THRRED  =  1.00D-07  THRPSP  =  1.00D+00  THRDC   =  1.00D-10  THRCS   =  1.00D-10
 THRNRM  =  1.00D-08  THREQ   =  0.00D+00  THRDE   =  1.00D+00  THRREF  =  1.00D-05  SPARFAC =  1.00D+00  THRDLP  =  1.00D-07
 THRDIA  =  1.00D-10  THRDLS  =  1.00D-07  THRGPS  =  0.00D+00  THRKEX  =  0.00D+00  THRDIS  =  2.00D-01  THRVAR  =  1.00D-10
 THRLOC  =  1.00D-06  THRGAP  =  1.00D-06  THRLOCT = -1.00D+00  THRGAPT = -1.00D+00  THRORB  =  1.00D-06  THRMLTP =  0.00D+00
 THRCPQCI=  1.00D-10  KEXTA   =  0.00D+00  THRCOARS=  0.00D+00  SYMTOL  =  1.00D-06  GRADTOL =  1.00D-06  THROVL  =  1.00D-08
 THRORTH =  1.00D-08  GRID    =  1.00D-06  GRIDMAX =  1.00D-03  DTMAX   =  0.00D+00  THROCCDE=  1.00D-01  THROCCDE=  1.00D-01



 Variable memory set to  512000000 words,  buffer space   230000 words

 SETTING BASIS          =    USERDEF
 SETTING NE             =        14.00000000                                  
 SETTING SYMM           =         1.00000000                                  
 SETTING SS             =     0.00000000D+00                                  

 DO I                   =         1.00000000   
 SETTING Z(1)           =         2.35000000                                  

Geometry recognized as XYZ



 Recomputing integrals since basis changed


 Using spherical harmonics



 PROGRAM * SEWARD (Integral evaluation for generally contracted gaussian basis sets)     Author: Roland Lindh, 1990

 Geometry written to block  1 of record 700


 Point group  C2v 



 ATOMIC COORDINATES

 NR  ATOM    CHARGE       X              Y              Z

   1  I       7.00    0.000000000    0.000000000    0.000000000
   2  I       7.00    0.000000000    0.000000000    4.440856393

 Bond lengths in Bohr (Angstrom)

 1-2  4.440856393
     ( 2.350000000)

 NUCLEAR CHARGE:                   14
 NUMBER OF PRIMITIVE AOS:         540
 NUMBER OF SYMMETRY AOS:          412
 NUMBER OF CONTRACTIONS:          412   ( 164A1  +  96B1  +  96B2  +  56A2  )
 NUMBER OF CORE ORBITALS:           0   (   0A1  +   0B1  +   0B2  +   0A2  )
 NUMBER OF VALENCE ORBITALS:        8   (   4A1  +   2B1  +   2B2  +   0A2  )


 NUCLEAR REPULSION ENERGY   11.03390780

 EXTRA SYMMETRY OF AOS IN SYMMETRY 1:   1 1 1 1 1 1 1 1 1 1   1 1 1 1 1 1 1 1 1 1   1 1 1 1 1 1 1 1 1 1   1 1 2 1 2 1 2 1 2 1
                                        2 1 2 1 2 1 2 1 2 1   2 1 2 1 2 1 2 1 2 1   2 1 2 1 2 1 2 1 3 2   1 3 2 1 3 2 2 3 1 2
                                        3 1 1 1 1 1 1 1 1 1   1 1 1 1 1 1 1 1 1 1   1 1 1 1 1 1 1 1 1 1   1 1 1 1 2 1 2 1 2 1
                                        2 1 2 1 2 1 2 1 2 1   2 1 2 1 2 1 2 1 2 1   2 1 2 1 2 1 2 1 2 1   3 2 1 3 2 1 3 2 2 3
                                        1 2 3 1
 EXTRA SYMMETRY OF AOS IN SYMMETRY 2:   1 1 1 1 1 1 1 1 1 1   1 1 1 1 1 1 1 1 1 1   1 1 1 1 1 1 1 1 1 2   1 2 1 2 1 2 1 2 1 2
                                        1 2 1 2 3 1 2 3 1 1   1 1 1 1 1 1 1 1 1 1   1 1 1 1 1 1 1 1 1 1   1 1 1 1 1 1 1 2 1 2
                                        1 2 1 2 1 2 1 2 1 2   1 2 3 1 2 3
 EXTRA SYMMETRY OF AOS IN SYMMETRY 3:   1 1 1 1 1 1 1 1 1 1   1 1 1 1 1 1 1 1 1 1   1 1 1 1 1 1 1 1 1 2   1 2 1 2 1 2 1 2 1 2
                                        1 2 1 2 3 1 2 3 1 1   1 1 1 1 1 1 1 1 1 1   1 1 1 1 1 1 1 1 1 1   1 1 1 1 1 1 1 2 1 2
                                        1 2 1 2 1 2 1 2 1 2   1 2 3 1 2 3
 EXTRA SYMMETRY OF AOS IN SYMMETRY 4:   1 1 1 1 1 1 1 1 1 1   1 1 1 1 1 1 1 1 1 2   1 2 1 2 2 1 2 1 1 1   1 1 1 1 1 1 1 1 1 1
                                        1 1 1 1 1 1 1 2 1 2   1 2 2 1 2 1

 Eigenvalues of metric

         1 0.265E-05 0.144E-04 0.150E-04 0.281E-04 0.463E-04 0.716E-04 0.901E-04 0.188E-03
         2 0.485E-04 0.190E-03 0.218E-03 0.247E-03 0.265E-03 0.540E-03 0.108E-02 0.116E-02
         3 0.485E-04 0.190E-03 0.218E-03 0.247E-03 0.265E-03 0.540E-03 0.108E-02 0.116E-02
         4 0.266E-03 0.273E-03 0.149E-02 0.166E-02 0.391E-02 0.691E-02 0.696E-02 0.987E-02


 Contracted 2-electron integrals neglected if value below      1.0D-12
 AO integral compression algorithm  1   Integral accuracy      1.0D-12

     2475.426 MB (compressed) written to integral file ( 26.9%)

     Node minimum: 284.164 MB, node maximum: 423.625 MB


 NUMBER OF SORTED TWO-ELECTRON INTEGRALS:  131525442.     BUFFER LENGTH:  32768
 NUMBER OF SEGMENTS:   5  SEGMENT LENGTH:   31993758      RECORD LENGTH: 524288

 Memory used in sort:      32.55 MW

 SORT1 READ  1152059255. AND WROTE    63395996. INTEGRALS IN    184 RECORDS. CPU TIME:    76.18 SEC, REAL TIME:   101.90 SEC
 SORT2 READ   437529474. AND WROTE   920790429. INTEGRALS IN   9709 RECORDS. CPU TIME:     8.65 SEC, REAL TIME:     9.57 SEC

 Node minimum:   131521518.  Node maximum:   131622487. integrals

 OPERATOR DM      FOR CENTER  0  COORDINATES:    0.000000    0.000000    0.000000


 **********************************************************************************************************************************
 DATASETS  * FILE   NREC   LENGTH (MB)   RECORD NAMES
              1      19       21.94       500      610      700      900      950      970     1000      129      960     1100   
                                          VAR    BASINP    GEOM    SYMINP    ZMAT    AOBASIS   BASIS     P2S    ABASIS      S 
                                         1400     1410     1420     1200     1210     1080     1600     1650     1700   
                                           T        V       ECP      H0       H01     AOSYM     SMH    MOLCAS    OPER   

 PROGRAMS   *        TOTAL       INT
 CPU TIMES  *       119.90    119.47
 REAL TIME  *       158.55 SEC
 DISK USED  *         7.69 GB      
 GA USED    *         0.00 MB       (max)       0.00 MB       (current)
 **********************************************************************************************************************************


 PROGRAM * RHF-SCF (CLOSED SHELL)       Authors: W. Meyer, H.-J. Werner


 NUMBER OF ELECTRONS:       7+    7-    SPACE SYMMETRY=1    SPIN SYMMETRY: Singlet 
 CONVERGENCE THRESHOLDS:    1.00E-05 (Density)    1.00E-07 (Energy)
 MAX. NUMBER OF ITERATIONS:       60
 INTERPOLATION TYPE:            DIIS
 INTERPOLATION STEPS:              2 (START)      1 (STEP)
 LEVEL SHIFTS:                  0.00 (CLOSED)  0.00 (OPEN) 



 Orbital guess generated from atomic densities. Full valence occupancy:    4   2   2   0

 Molecular orbital dump at record        2100.2

 Initial occupancy:   3   2   2   0

 ITERATION    DDIFF          GRAD             ENERGY        2-EL.EN.            DIPOLE MOMENTS         DIIS   ORB.
    1      0.000D+00      0.000D+00       -22.41506510     50.408238    0.00000    0.00000    0.00000    0    start
    2      0.000D+00      0.357D-02       -22.42824394     51.275307    0.00000    0.00000    0.00000    1    diag
    3      0.170D-02      0.148D-02       -22.43072492     50.998608    0.00000    0.00000    0.00000    2    diag
    4      0.432D-03      0.258D-03       -22.43088340     51.017978    0.00000    0.00000   -0.00000    3    diag
    5      0.116D-03      0.521D-04       -22.43089199     51.015568    0.00000    0.00000    0.00000    4    diag
    6      0.246D-04      0.563D-05       -22.43089209     51.015272    0.00000    0.00000    0.00000    5    diag
    7      0.363D-05      0.728D-06       -22.43089209     51.015296    0.00000    0.00000   -0.00000    0    orth

 Final occupancy:   3   2   2   0

 !RHF STATE 1.1 Energy                -22.430892088133
 Nuclear energy                        11.03390780
 One-electron energy                  -58.97244787
 Two-electron energy                   25.50764798
 Virial quotient                       -3.05234062
 !RHF STATE 1.1 Dipole moment           0.00000000     0.00000000    -0.00000000
 Dipole moment /Debye                   0.00000000     0.00000000    -0.00000000

 Orbital energies:

         1.1          2.1          3.1          4.1          5.1
     -1.033718    -0.822033    -0.498238     0.021441     0.043773

         1.2          2.2          3.2          4.2
     -0.470614    -0.341679     0.052236     0.069299

         1.3          2.3          3.3          4.3
     -0.470614    -0.341679     0.052236     0.069299

         1.4          2.4
      0.139102     0.203030

 HOMO      2.2    -0.341679 =      -9.2976eV
 LUMO      4.1     0.021441 =       0.5834eV
 LUMO-HOMO         0.363120 =       9.8810eV


 **********************************************************************************************************************************
 DATASETS  * FILE   NREC   LENGTH (MB)   RECORD NAMES
              1      19       22.00       500      610      700      900      950      970     1000      129      960     1100   
                                          VAR    BASINP    GEOM    SYMINP    ZMAT    AOBASIS   BASIS     P2S    ABASIS      S 
                                         1400     1410     1420     1200     1210     1080     1600     1650     1700   
                                           T        V       ECP      H0       H01     AOSYM     SMH    MOLCAS    OPER   

              2       4        3.81       700     1000      520     2100   
                                         GEOM     BASIS   MCVARS     RHF  

 PROGRAMS   *        TOTAL       RHF       INT
 CPU TIMES  *       124.87      4.97    119.47
 REAL TIME  *       164.17 SEC
 DISK USED  *         7.89 GB      
 SF USED    *         0.20 MB      
 GA USED    *         0.00 MB       (max)       0.00 MB       (current)
 **********************************************************************************************************************************
 SETTING SCF(1)         =       -22.43089209  AU                              
 SETTING _CC_NORM_MAX   =         2.00000000                                  


 PROGRAM * CCSD (Unrestricted open-shell coupled cluster)     Authors: C. Hampel, H.-J. Werner, 1991, M. Deegan, P.J. Knowles, 1992


 Convergence thresholds:  THRVAR = 1.00D-08  THRDEN = 1.00D-06

 CCSD(T)     terms to be evaluated (factor= 1.000)


 Number of closed-shell orbitals:   7 (   3   2   2   0 )
 Number of external orbitals:     405 ( 161  94  94  56 )

 Memory could be reduced to 235.18 Mwords without degradation in triples

 Number of N-1 electron functions:              14
 Number of N-2 electron functions:              91
 Number of singly external CSFs:              1718
 Number of doubly external CSFs:           2923117
 Total number of CSFs:                     2924835

 Molecular orbitals read from record     2100.2  Type=RHF/CANONICAL (state 1.1)

 Integral transformation finished. Total CPU:   5.73 sec, npass=  1  Memory used:  18.37 MW

 Starting RMP2 calculation

 ITER.      SQ.NORM     CORR.ENERGY   TOTAL ENERGY   ENERGY CHANGE        DEN1      VAR(S)    VAR(P)  DIIS     TIME
   1      1.14464262    -0.35141725   -22.78230934    -0.35141725    -0.00692797  0.57D-11  0.32D-02  1  1     6.01
   2      1.15383230    -0.35967223   -22.79056432    -0.00825498    -0.00003375  0.37D-12  0.18D-04  2  2     6.42
   3      1.15433712    -0.35992054   -22.79081263    -0.00024831    -0.00000025  0.26D-13  0.15D-06  3  3     6.69
   4      1.15435390    -0.35992441   -22.79081650    -0.00000387    -0.00000000  0.19D-14  0.21D-08  4  4     7.13
   5      1.15435455    -0.35992460   -22.79081669    -0.00000019    -0.00000000  0.12D-15  0.30D-10  5  5     7.45

 Norm of t1 vector:      0.00001057      S-energy:    -0.00000000      T1 diagnostic:  0.00000200
 Norm of t2 vector:      0.39287981      P-energy:    -0.35992460
                                         Alpha-Beta:  -0.28149576
                                         Alpha-Alpha: -0.03921442
                                         Beta-Beta:   -0.03921442

 Spin contamination <S**2-Sz**2-Sz>     0.00000000
  Reference energy                    -22.430892088133
  RHF-RMP2 correlation energy          -0.359924601467
 !RHF-RMP2 energy                     -22.790816689600

 Starting UCCSD calculation

 ITER.      SQ.NORM     CORR.ENERGY   TOTAL ENERGY   ENERGY CHANGE        DEN1      VAR(S)    VAR(P)  DIIS     TIME
   1      1.15122700    -0.35851153   -22.78940362    -0.35851153    -0.01349447  0.48D-03  0.49D-02  1  1    11.18
   2      1.17050802    -0.37424430   -22.80513639    -0.01573277    -0.00052090  0.52D-04  0.18D-03  2  2    14.81
   3      1.17422414    -0.37590724   -22.80679933    -0.00166294    -0.00004103  0.82D-05  0.15D-04  3  3    18.53
   4      1.17531518    -0.37624595   -22.80713804    -0.00033871    -0.00000509  0.13D-05  0.20D-05  4  4    22.37
   5      1.17564804    -0.37631368   -22.80720577    -0.00006773    -0.00000063  0.18D-06  0.24D-06  5  5    26.12
   6      1.17571851    -0.37631606   -22.80720815    -0.00000238    -0.00000007  0.13D-07  0.31D-07  6  6    29.61
   7      1.17573056    -0.37631679   -22.80720888    -0.00000073    -0.00000001  0.11D-08  0.41D-08  6  1    33.34

 Norm of t1 vector:      0.04460221      S-energy:     0.00000007      T1 diagnostic:  0.00842903
                                                                       D1 diagnostic:  0.01550870
 Norm of t2 vector:      0.41682275      P-energy:    -0.37631686
                                         Alpha-Beta:  -0.30311355
                                         Alpha-Alpha: -0.03660165
                                         Beta-Beta:   -0.03660165

 Spin contamination <S**2-Sz**2-Sz>     0.00000000

 Memory could be reduced to 237.31 Mwords without degradation in triples
 

 RESULTS
 =======

  Reference energy                    -22.430892088133
  UCCSD singles energy                  0.000000069416
  UCCSD pair energy                    -0.376316857782
  UCCSD correlation energy             -0.376316788366
  Triples (T) contribution             -0.018998726947
  Total correlation energy             -0.395315515313
 
  RHF-UCCSD energy                    -22.807208876499
  RHF-UCCSD[T] energy                 -22.826381632379
  RHF-UCCSD-T energy                  -22.826164744063
 !RHF-UCCSD(T) energy                 -22.826207603446

 Program statistics:

 Available memory in ccsd:               511999438
 Min. memory needed in ccsd:               9124914
 Max. memory used in ccsd:                12600551
 Max. memory used in cckext:              11740758 ( 7 integral passes)
 Max. memory used in cckint:              18374905 ( 1 integral passes)



 **********************************************************************************************************************************
 DATASETS  * FILE   NREC   LENGTH (MB)   RECORD NAMES
              1      19       22.00       500      610      700      900      950      970     1000      129      960     1100   
                                          VAR    BASINP    GEOM    SYMINP    ZMAT    AOBASIS   BASIS     P2S    ABASIS      S 
                                         1400     1410     1420     1200     1210     1080     1600     1650     1700   
                                           T        V       ECP      H0       H01     AOSYM     SMH    MOLCAS    OPER   

              2       4        3.81       700     1000      520     2100   
                                         GEOM     BASIS   MCVARS     RHF  

 PROGRAMS   *        TOTAL  UCCSD(T)       RHF       INT
 CPU TIMES  *       221.57     96.69      4.97    119.47
 REAL TIME  *       374.16 SEC
 DISK USED  *        10.42 GB      
 SF USED    *         3.14 GB      
 GA USED    *         0.00 MB       (max)       0.00 MB       (current)
 **********************************************************************************************************************************
 SETTING CCSD(1)        =       -22.82620760  AU                              

 DO I                   =         2.00000000   
 SETTING Z(2)           =         2.95000000                                  

Geometry recognized as XYZ



 Recomputing integrals since geometry changed


 PROGRAM * SEWARD (Integral evaluation for generally contracted gaussian basis sets)     Author: Roland Lindh, 1990

 Geometry written to block  1 of record 700


 Point group  C2v 



 ATOMIC COORDINATES

 NR  ATOM    CHARGE       X              Y              Z

   1  I       7.00    0.000000000    0.000000000    0.000000000
   2  I       7.00    0.000000000    0.000000000    5.574692067

 Bond lengths in Bohr (Angstrom)

 1-2  5.574692067
     ( 2.950000000)

 NUCLEAR CHARGE:                   14
 NUMBER OF PRIMITIVE AOS:         540
 NUMBER OF SYMMETRY AOS:          412
 NUMBER OF CONTRACTIONS:          412   ( 164A1  +  96B1  +  96B2  +  56A2  )
 NUMBER OF CORE ORBITALS:           0   (   0A1  +   0B1  +   0B2  +   0A2  )
 NUMBER OF VALENCE ORBITALS:        8   (   4A1  +   2B1  +   2B2  +   0A2  )


 NUCLEAR REPULSION ENERGY    8.78972316

 EXTRA SYMMETRY OF AOS IN SYMMETRY 1:   1 1 1 1 1 1 1 1 1 1   1 1 1 1 1 1 1 1 1 1   1 1 1 1 1 1 1 1 1 1   1 1 2 1 2 1 2 1 2 1
                                        2 1 2 1 2 1 2 1 2 1   2 1 2 1 2 1 2 1 2 1   2 1 2 1 2 1 2 1 3 2   1 3 2 1 3 2 2 3 1 2
                                        3 1 1 1 1 1 1 1 1 1   1 1 1 1 1 1 1 1 1 1   1 1 1 1 1 1 1 1 1 1   1 1 1 1 2 1 2 1 2 1
                                        2 1 2 1 2 1 2 1 2 1   2 1 2 1 2 1 2 1 2 1   2 1 2 1 2 1 2 1 2 1   3 2 1 3 2 1 3 2 2 3
                                        1 2 3 1
 EXTRA SYMMETRY OF AOS IN SYMMETRY 2:   1 1 1 1 1 1 1 1 1 1   1 1 1 1 1 1 1 1 1 1   1 1 1 1 1 1 1 1 1 2   1 2 1 2 1 2 1 2 1 2
                                        1 2 1 2 3 1 2 3 1 1   1 1 1 1 1 1 1 1 1 1   1 1 1 1 1 1 1 1 1 1   1 1 1 1 1 1 1 2 1 2
                                        1 2 1 2 1 2 1 2 1 2   1 2 3 1 2 3
 EXTRA SYMMETRY OF AOS IN SYMMETRY 3:   1 1 1 1 1 1 1 1 1 1   1 1 1 1 1 1 1 1 1 1   1 1 1 1 1 1 1 1 1 2   1 2 1 2 1 2 1 2 1 2
                                        1 2 1 2 3 1 2 3 1 1   1 1 1 1 1 1 1 1 1 1   1 1 1 1 1 1 1 1 1 1   1 1 1 1 1 1 1 2 1 2
                                        1 2 1 2 1 2 1 2 1 2   1 2 3 1 2 3
 EXTRA SYMMETRY OF AOS IN SYMMETRY 4:   1 1 1 1 1 1 1 1 1 1   1 1 1 1 1 1 1 1 1 2   1 2 1 2 2 1 2 1 1 1   1 1 1 1 1 1 1 1 1 1
                                        1 1 1 1 1 1 1 2 1 2   1 2 2 1 2 1

 Eigenvalues of metric

         1 0.837E-05 0.167E-04 0.173E-04 0.639E-04 0.104E-03 0.164E-03 0.174E-03 0.220E-03
         2 0.209E-03 0.220E-03 0.252E-03 0.269E-03 0.516E-03 0.122E-02 0.128E-02 0.158E-02
         3 0.209E-03 0.220E-03 0.252E-03 0.269E-03 0.516E-03 0.122E-02 0.128E-02 0.158E-02
         4 0.269E-03 0.272E-03 0.159E-02 0.166E-02 0.641E-02 0.695E-02 0.146E-01 0.193E-01


 Contracted 2-electron integrals neglected if value below      1.0D-12
 AO integral compression algorithm  1   Integral accuracy      1.0D-12

     2181.562 MB (compressed) written to integral file ( 23.7%)

     Node minimum: 192.152 MB, node maximum: 400.294 MB


 NUMBER OF SORTED TWO-ELECTRON INTEGRALS:  131525442.     BUFFER LENGTH:  32768
 NUMBER OF SEGMENTS:   5  SEGMENT LENGTH:   31993758      RECORD LENGTH: 524288

 Memory used in sort:      32.55 MW

 SORT1 READ  1152059255. AND WROTE    56956372. INTEGRALS IN    166 RECORDS. CPU TIME:    28.96 SEC, REAL TIME:    52.14 SEC
 SORT2 READ   389552680. AND WROTE   920790429. INTEGRALS IN  10318 RECORDS. CPU TIME:     6.45 SEC, REAL TIME:     7.25 SEC

 Node minimum:   131521518.  Node maximum:   131622487. integrals

 OPERATOR DM      FOR CENTER  0  COORDINATES:    0.000000    0.000000    0.000000


 **********************************************************************************************************************************
 DATASETS  * FILE   NREC   LENGTH (MB)   RECORD NAMES
              1      19       21.94       500      610      700      900      950      970     1000      129      960     1100   
                                          VAR    BASINP    GEOM    SYMINP    ZMAT    AOBASIS   BASIS     P2S    ABASIS      S 
                                         1400     1410     1420     1200     1210     1080     1600     1650     1700   
                                           T        V       ECP      H0       H01     AOSYM     SMH    MOLCAS    OPER   

              2       4        3.81       700     1000      520     2100   
                                         GEOM     BASIS   MCVARS     RHF  

 PROGRAMS   *        TOTAL       INT  UCCSD(T)       RHF       INT
 CPU TIMES  *       299.91     78.33     96.69      4.97    119.47
 REAL TIME  *       488.01 SEC
 DISK USED  *        10.45 GB      
 SF USED    *         3.14 GB      
 GA USED    *         0.00 MB       (max)       0.00 MB       (current)
 **********************************************************************************************************************************


 PROGRAM * RHF-SCF (CLOSED SHELL)       Authors: W. Meyer, H.-J. Werner


 NUMBER OF ELECTRONS:       7+    7-    SPACE SYMMETRY=1    SPIN SYMMETRY: Singlet 
 CONVERGENCE THRESHOLDS:    1.00E-05 (Density)    1.00E-07 (Energy)
 MAX. NUMBER OF ITERATIONS:       60
 INTERPOLATION TYPE:            DIIS
 INTERPOLATION STEPS:              2 (START)      1 (STEP)
 LEVEL SHIFTS:                  0.00 (CLOSED)  0.00 (OPEN) 



 Molecular orbitals read from record     2100.2  Type=RHF/CANONICAL (state 1.1)

 Molecular orbital dump at record        2100.2

 ITERATION    DDIFF          GRAD             ENERGY        2-EL.EN.            DIPOLE MOMENTS         DIIS   ORB.
    1      0.000D+00      0.000D+00       -22.36143735     47.403164    0.00000    0.00000   -0.00000    0    start
    2      0.000D+00      0.391D-01       -22.44733545     47.015011    0.00000    0.00000    0.00000    1    diag
    3      0.361D-02      0.123D-02       -22.44938616     47.199252    0.00000    0.00000   -0.00000    2    diag
    4      0.712D-03      0.445D-03       -22.44966745     47.138014    0.00000    0.00000    0.00000    3    diag
    5      0.136D-03      0.121D-03       -22.44969662     47.150508    0.00000    0.00000    0.00000    4    diag
    6      0.810D-04      0.960D-05       -22.44969694     47.150704    0.00000    0.00000    0.00000    5    diag
    7      0.925D-05      0.114D-05       -22.44969694     47.150704    0.00000    0.00000    0.00000    6    diag
    8      0.992D-06      0.118D-06       -22.44969694     47.150705    0.00000    0.00000    0.00000    0    orth

 Final occupancy:   3   2   2   0

 !RHF STATE 1.1 Energy                -22.449696940647
 Nuclear energy                         8.78972316
 One-electron energy                  -54.81477268
 Two-electron energy                   23.57535258
 Virial quotient                       -3.19372047
 !RHF STATE 1.1 Dipole moment           0.00000000     0.00000000     0.00000000
 Dipole moment /Debye                   0.00000000     0.00000000     0.00000000

 Orbital energies:

         1.1          2.1          3.1          4.1          5.1
     -0.934726    -0.859183    -0.440981    -0.065782     0.042350

         1.2          2.2          3.2          4.2
     -0.424643    -0.373928     0.054077     0.068050

         1.3          2.3          3.3          4.3
     -0.424643    -0.373928     0.054077     0.068050

         1.4          2.4
      0.143726     0.194633

 HOMO      2.2    -0.373928 =     -10.1751eV
 LUMO      4.1    -0.065782 =      -1.7900eV
 LUMO-HOMO         0.308147 =       8.3851eV


 **********************************************************************************************************************************
 DATASETS  * FILE   NREC   LENGTH (MB)   RECORD NAMES
              1      19       22.00       500      610      700      900      950      970     1000      129      960     1100   
                                          VAR    BASINP    GEOM    SYMINP    ZMAT    AOBASIS   BASIS     P2S    ABASIS      S 
                                         1400     1410     1420     1200     1210     1080     1600     1650     1700   
                                           T        V       ECP      H0       H01     AOSYM     SMH    MOLCAS    OPER   

              2       4        3.81       700     1000      520     2100   
                                         GEOM     BASIS   MCVARS     RHF  

 PROGRAMS   *        TOTAL       RHF       INT  UCCSD(T)       RHF       INT
 CPU TIMES  *       304.49      4.58     78.33     96.69      4.97    119.47
 REAL TIME  *       494.14 SEC
 DISK USED  *        10.45 GB      
 SF USED    *         3.14 GB      
 GA USED    *         0.00 MB       (max)       0.00 MB       (current)
 **********************************************************************************************************************************
 SETTING SCF(2)         =       -22.44969694  AU                              
 SETTING _CC_NORM_MAX   =         2.00000000                                  


 PROGRAM * CCSD (Unrestricted open-shell coupled cluster)     Authors: C. Hampel, H.-J. Werner, 1991, M. Deegan, P.J. Knowles, 1992


 Convergence thresholds:  THRVAR = 1.00D-08  THRDEN = 1.00D-06

 CCSD(T)     terms to be evaluated (factor= 1.000)


 Number of closed-shell orbitals:   7 (   3   2   2   0 )
 Number of external orbitals:     405 ( 161  94  94  56 )

 Memory could be reduced to 238.97 Mwords without degradation in triples

 Number of N-1 electron functions:              14
 Number of N-2 electron functions:              91
 Number of singly external CSFs:              1718
 Number of doubly external CSFs:           2923117
 Total number of CSFs:                     2924835

 Molecular orbitals read from record     2100.2  Type=RHF/CANONICAL (state 1.1)

 Integral transformation finished. Total CPU:   5.26 sec, npass=  1  Memory used:  18.37 MW

 Starting RMP2 calculation

 ITER.      SQ.NORM     CORR.ENERGY   TOTAL ENERGY   ENERGY CHANGE        DEN1      VAR(S)    VAR(P)  DIIS     TIME
   1      1.15554720    -0.34704892   -22.79674586    -0.34704892    -0.00794328  0.20D-12  0.41D-02  1  1     6.54
   2      1.16811470    -0.35665695   -22.80635389    -0.00960803    -0.00007646  0.15D-13  0.55D-04  2  2     7.57
   3      1.16931114    -0.35712677   -22.80682371    -0.00046982    -0.00000122  0.10D-14  0.95D-06  3  3     8.66
   4      1.16939941    -0.35714700   -22.80684394    -0.00002023    -0.00000001  0.62D-16  0.96D-08  4  4     9.78
   5      1.16940339    -0.35714807   -22.80684501    -0.00000107    -0.00000000  0.47D-17  0.16D-09  5  5    10.91
   6      1.16940358    -0.35714812   -22.80684506    -0.00000005    -0.00000000  0.31D-18  0.32D-11  6  6    12.15

 Norm of t1 vector:      0.00000191      S-energy:    -0.00000000      T1 diagnostic:  0.00000036
 Norm of t2 vector:      0.41158666      P-energy:    -0.35714812
                                         Alpha-Beta:  -0.28361470
                                         Alpha-Alpha: -0.03676671
                                         Beta-Beta:   -0.03676671

 Spin contamination <S**2-Sz**2-Sz>     0.00000000
  Reference energy                    -22.449696940647
  RHF-RMP2 correlation energy          -0.357148117570
 !RHF-RMP2 energy                     -22.806845058217

 Starting UCCSD calculation

 ITER.      SQ.NORM     CORR.ENERGY   TOTAL ENERGY   ENERGY CHANGE        DEN1      VAR(S)    VAR(P)  DIIS     TIME
   1      1.16498632    -0.35548998   -22.80518693    -0.35548998    -0.01559292  0.54D-03  0.66D-02  1  1    16.40
   2      1.19252071    -0.37384838   -22.82354532    -0.01835840    -0.00090573  0.79D-04  0.45D-03  2  2    20.64
   3      1.20084539    -0.37652224   -22.82621919    -0.00267386    -0.00010898  0.13D-04  0.61D-04  3  3    24.84
   4      1.20447766    -0.37730352   -22.82700046    -0.00078128    -0.00001452  0.16D-05  0.84D-05  4  4    29.09
   5      1.20569116    -0.37748174   -22.82717868    -0.00017821    -0.00000184  0.23D-06  0.99D-06  5  5    33.46
   6      1.20594040    -0.37749457   -22.82719152    -0.00001284    -0.00000031  0.27D-07  0.20D-06  6  6    37.61
   7      1.20599158    -0.37749878   -22.82719572    -0.00000421    -0.00000008  0.42D-08  0.58D-07  6  1    41.82
   8      1.20600639    -0.37750026   -22.82719720    -0.00000148    -0.00000001  0.36D-09  0.11D-07  6  2    46.23
   9      1.20601037    -0.37750103   -22.82719797    -0.00000077    -0.00000000  0.20D-09  0.17D-08  6  3    50.93

 Norm of t1 vector:      0.05297687      S-energy:    -0.00000003      T1 diagnostic:  0.01001169
                                                                       D1 diagnostic:  0.02346361
 Norm of t2 vector:      0.45078134      P-energy:    -0.37750101
                                         Alpha-Beta:  -0.30911035
                                         Alpha-Alpha: -0.03419533
                                         Beta-Beta:   -0.03419533

 Doubles amplitudes (print threshold =  0.500E-01):

         I         J         SYM. A    SYM. B    A         B      T(IJ, AB) [Alpha-Beta]

         3         3         1         1         1         1     -0.15374459

 Spin contamination <S**2-Sz**2-Sz>     0.00000000

 Memory could be reduced to 237.31 Mwords without degradation in triples
 

 RESULTS
 =======

  Reference energy                    -22.449696940647
  UCCSD singles energy                 -0.000000026607
  UCCSD pair energy                    -0.377501005319
  UCCSD correlation energy             -0.377501031926
  Triples (T) contribution             -0.020933308065
  Total correlation energy             -0.398434339991
 
  RHF-UCCSD energy                    -22.827197972573
  RHF-UCCSD[T] energy                 -22.848321435736
  RHF-UCCSD-T energy                  -22.848081587591
 !RHF-UCCSD(T) energy                 -22.848131280638

 Program statistics:

 Available memory in ccsd:               511999438
 Min. memory needed in ccsd:               9124914
 Max. memory used in ccsd:                12600551
 Max. memory used in cckext:              11740758 ( 9 integral passes)
 Max. memory used in cckint:              18374905 ( 1 integral passes)



 **********************************************************************************************************************************
 DATASETS  * FILE   NREC   LENGTH (MB)   RECORD NAMES
              1      19       22.00       500      610      700      900      950      970     1000      129      960     1100   
                                          VAR    BASINP    GEOM    SYMINP    ZMAT    AOBASIS   BASIS     P2S    ABASIS      S 
                                         1400     1410     1420     1200     1210     1080     1600     1650     1700   
                                           T        V       ECP      H0       H01     AOSYM     SMH    MOLCAS    OPER   

              2       4        3.81       700     1000      520     2100   
                                         GEOM     BASIS   MCVARS     RHF  

 PROGRAMS   *        TOTAL  UCCSD(T)       RHF       INT  UCCSD(T)       RHF       INT
 CPU TIMES  *       418.89    114.35      4.58     78.33     96.69      4.97    119.47
 REAL TIME  *       689.79 SEC
 DISK USED  *        10.45 GB      
 SF USED    *         3.14 GB      
 GA USED    *         0.00 MB       (max)       0.00 MB       (current)
 **********************************************************************************************************************************
 SETTING CCSD(2)        =       -22.84813128  AU                              
 SETTING BASIS          =    USERDEF

Geometry recognized as XYZ



 Recomputing integrals since geometry and symmetry changed


 Using spherical harmonics



 PROGRAM * SEWARD (Integral evaluation for generally contracted gaussian basis sets)     Author: Roland Lindh, 1990

 Geometry written to block  1 of record 701

 Orientation using atomic masses  
 Molecule type: Atom
 Symmetry elements: X,Y,Z
 Rotational constants:       0.0000000      0.0000000      0.0000000 GHz  (calculated with average atomic masses)

 Point group  D2h 



 ATOMIC COORDINATES

 NR  ATOM    CHARGE       X              Y              Z

   1  I       7.00    0.000000000    0.000000000    0.000000000

 NUCLEAR CHARGE:                    7
 NUMBER OF PRIMITIVE AOS:         270
 NUMBER OF SYMMETRY AOS:          206
 NUMBER OF CONTRACTIONS:          206   (  54Ag  +  28B3u +  28B2u +  20B1g +  28B1u +  20B2g +  20B3g +   8Au  )
 NUMBER OF CORE ORBITALS:           0   (   0Ag  +   0B3u +   0B2u +   0B1g +   0B1u +   0B2g +   0B3g +   0Au  )
 NUMBER OF VALENCE ORBITALS:        4   (   1Ag  +   1B3u +   1B2u +   0B1g +   1B1u +   0B2g +   0B3g +   0Au  )

 MOLECULE CHANGED: INITIALIZING OCCUPATION AND DUMP RECORDS


 NUCLEAR REPULSION ENERGY    0.00000000

 EXTRA SYMMETRY OF AOS IN SYMMETRY 1:   1 1 1 1 1 1 1 1 1 1   1 1 1 1 1 1 1 2 3 2   3 2 3 2 3 2 3 2 3 2   3 2 3 2 3 2 3 2 3 2
                                        3 2 3 2 3 4 5 6 4 5   6 4 5 6
 EXTRA SYMMETRY OF AOS IN SYMMETRY 2:   1 1 1 1 1 1 1 1 1 1   1 1 1 1 2 3 2 3 2 3   2 3 4 5 6 4 5 6
 EXTRA SYMMETRY OF AOS IN SYMMETRY 3:   1 1 1 1 1 1 1 1 1 1   1 1 1 1 2 3 2 3 2 3   2 3 4 5 6 4 5 6
 EXTRA SYMMETRY OF AOS IN SYMMETRY 4:   1 1 1 1 1 1 1 1 1 1   1 1 1 1 2 3 2 3 2 3
 EXTRA SYMMETRY OF AOS IN SYMMETRY 5:   1 1 1 1 1 1 1 1 1 1   1 1 1 1 2 3 2 3 2 3   2 3 4 5 6 4 5 6
 EXTRA SYMMETRY OF AOS IN SYMMETRY 6:   1 1 1 1 1 1 1 1 1 1   1 1 1 1 2 3 2 3 2 3
 EXTRA SYMMETRY OF AOS IN SYMMETRY 7:   1 1 1 1 1 1 1 1 1 1   1 1 1 1 2 3 2 3 2 3
 EXTRA SYMMETRY OF AOS IN SYMMETRY 8:   1 1 1 1 2 3 2 3

 Eigenvalues of metric

         1 0.173E-04 0.124E-03 0.272E-03 0.272E-03 0.493E-03 0.165E-02 0.165E-02 0.190E-02
         2 0.220E-03 0.122E-02 0.425E-02 0.118E-01 0.250E-01 0.250E-01 0.320E-01 0.809E-01
         3 0.220E-03 0.122E-02 0.425E-02 0.118E-01 0.250E-01 0.250E-01 0.320E-01 0.809E-01
         4 0.272E-03 0.165E-02 0.687E-02 0.229E-01 0.564E-01 0.111E+00 0.120E+00 0.120E+00
         5 0.220E-03 0.122E-02 0.425E-02 0.118E-01 0.250E-01 0.250E-01 0.320E-01 0.809E-01
         6 0.272E-03 0.165E-02 0.687E-02 0.229E-01 0.564E-01 0.111E+00 0.120E+00 0.120E+00
         7 0.272E-03 0.165E-02 0.687E-02 0.229E-01 0.564E-01 0.111E+00 0.120E+00 0.120E+00
         8 0.250E-01 0.181E+00 0.181E+00 0.212E+00 0.992E+00 0.182E+01 0.182E+01 0.277E+01


 Contracted 2-electron integrals neglected if value below      1.0D-12
 AO integral compression algorithm  1   Integral accuracy      1.0D-12

     175.636 MB (compressed) written to integral file ( 42.6%)

     Node minimum: 16.515 MB, node maximum: 40.108 MB


 NUMBER OF SORTED TWO-ELECTRON INTEGRALS:    4212750.     BUFFER LENGTH:  32768
 NUMBER OF SEGMENTS:   1  SEGMENT LENGTH:    4212750      RECORD LENGTH: 524288

 Memory used in sort:       4.77 MW

 SORT1 READ    51224722. AND WROTE     2731398. INTEGRALS IN      8 RECORDS. CPU TIME:     2.63 SEC, REAL TIME:     2.77 SEC
 SORT2 READ    19130330. AND WROTE    29443005. INTEGRALS IN    504 RECORDS. CPU TIME:     0.14 SEC, REAL TIME:     0.44 SEC

 Node minimum:     4192565.  Node maximum:     4215792. integrals

 OPERATOR DM      FOR CENTER  0  COORDINATES:    0.000000    0.000000    0.000000


 **********************************************************************************************************************************
 DATASETS  * FILE   NREC   LENGTH (MB)   RECORD NAMES
              1      20       20.40       500      610      700      701      900      950      970     1001      129      960   
                                          VAR    BASINP    GEOM     GEOM    SYMINP    ZMAT    AOBASIS   BASIS     P2S    ABASIS    
                                         1100     1400     1410     1420     1200     1210     1080     1600     1650     1700   
                                           S        T        V       ECP      H0       H01     AOSYM     SMH    MOLCAS    OPER   

              2       6        5.01       700     1000      520     2100      701     1001   
                                         GEOM     BASIS   MCVARS     RHF     GEOM     BASIS   

 PROGRAMS   *        TOTAL       INT  UCCSD(T)       RHF       INT  UCCSD(T)       RHF       INT
 CPU TIMES  *       424.98      6.09    114.35      4.58     78.33     96.69      4.97    119.47
 REAL TIME  *       699.34 SEC
 DISK USED  *        10.45 GB      
 SF USED    *         3.14 GB      
 GA USED    *         0.00 MB       (max)       0.00 MB       (current)
 **********************************************************************************************************************************


 PROGRAM * RHF-SCF (OPEN SHELL)       Authors: W. Meyer, H.-J. Werner


 NUMBER OF ELECTRONS:       4+    3-    SPACE SYMMETRY=3    SPIN SYMMETRY: Doublet 
 CONVERGENCE THRESHOLDS:    1.00E-05 (Density)    1.00E-07 (Energy)
 MAX. NUMBER OF ITERATIONS:       60
 INTERPOLATION TYPE:            DIIS
 INTERPOLATION STEPS:              2 (START)      1 (STEP)
 LEVEL SHIFTS:                 -0.60 (CLOSED) -0.30 (OPEN) 

 Number of closed-shell orbitals:    3 (   1   1   0   0   1   0   0   0 )
 Number of open-shell orbitals:      1 (   0   0   1   0   0   0   0   0 )


 Orbital guess generated from atomic densities. Full valence occupancy:    1   1   1   0   1   0   0   0


 Molecular orbital dump at record        2101.2

 ITERATION    DDIFF          GRAD             ENERGY        2-EL.EN.            DIPOLE MOMENTS         DIIS   ORB.
    1      0.000D+00      0.000D+00       -11.21415238     14.764956    0.00000    0.00000    0.00000    0    start
    2      0.000D+00      0.304D-02       -11.21667279     14.832804    0.00000    0.00000    0.00000    1    diag,B
    3      0.113D-02      0.104D-02       -11.21716629     14.867077    0.00000    0.00000    0.00000    2    diag,B
    4      0.462D-03      0.268D-03       -11.21720688     14.874771    0.00000    0.00000    0.00000    3    diag,B
    5      0.253D-03      0.709D-04       -11.21720985     14.876144    0.00000    0.00000    0.00000    4    diag,B
    6      0.119D-03      0.172D-04       -11.21721003     14.876561    0.00000    0.00000    0.00000    5    diag,B
    7      0.320D-04      0.480D-05       -11.21721004     14.876664    0.00000    0.00000    0.00000    6    fixocc
    8      0.935D-05      0.185D-05       -11.21721005     14.876676    0.00000    0.00000    0.00000    0    orth

 Final alpha occupancy:   1   1   1   0   1   0   0   0
 Final beta  occupancy:   1   1   0   0   1   0   0   0

 !RHF STATE 1.3 Energy                -11.217210045813
 Nuclear energy                         0.00000000
 One-electron energy                  -18.65554807
 Two-electron energy                    7.43833802
 Virial quotient                       -3.15796383
 !RHF STATE 1.3 Dipole moment           0.00000000     0.00000000     0.00000000
 Dipole moment /Debye                   0.00000000     0.00000000     0.00000000

 Orbital energies:

         1.1          2.1          3.1
     -0.879752     0.049928     0.148330

         1.2          2.2          3.2
     -0.391203     0.054826     0.230356

         1.3          2.3          3.3
     -0.454563     0.050817     0.217957

         1.4          2.4
      0.152330     0.397568

         1.5          2.5          3.5
     -0.391203     0.054826     0.230356

         1.6          2.6
      0.161365     0.416934

         1.7          2.7
      0.152330     0.397568

         1.8          2.8
      0.366675     0.829969

 HOMO      1.2    -0.391203 =     -10.6452eV
 LUMO      2.1     0.049928 =       1.3586eV
 LUMO-HOMO         0.441131 =      12.0038eV


 **********************************************************************************************************************************
 DATASETS  * FILE   NREC   LENGTH (MB)   RECORD NAMES
              1      20       20.42       500      610      700      701      900      950      970     1001      129      960   
                                          VAR    BASINP    GEOM     GEOM    SYMINP    ZMAT    AOBASIS   BASIS     P2S    ABASIS    
                                         1100     1400     1410     1420     1200     1210     1080     1600     1650     1700   
                                           S        T        V       ECP      H0       H01     AOSYM     SMH    MOLCAS    OPER   

              2       7        7.69       700     1000      520     2100      701     1001     2101   
                                         GEOM     BASIS   MCVARS     RHF     GEOM     BASIS     RHF  

 PROGRAMS   *        TOTAL       RHF       INT  UCCSD(T)       RHF       INT  UCCSD(T)       RHF       INT
 CPU TIMES  *       425.36      0.38      6.09    114.35      4.58     78.33     96.69      4.97    119.47
 REAL TIME  *       699.84 SEC
 DISK USED  *        10.45 GB      
 SF USED    *         3.14 GB      
 GA USED    *         0.00 MB       (max)       0.00 MB       (current)
 **********************************************************************************************************************************
 SETTING A_SCF          =       -11.21721005  AU                              
 SETTING B_SCF          =       -11.21721005  AU                              
 SETTING _CC_NORM_MAX   =         2.00000000                                  


 PROGRAM * CCSD (Unrestricted open-shell coupled cluster)     Authors: C. Hampel, H.-J. Werner, 1991, M. Deegan, P.J. Knowles, 1992


 Convergence thresholds:  THRVAR = 1.00D-08  THRDEN = 1.00D-06

 CCSD(T)     terms to be evaluated (factor= 1.000)


 Number of closed-shell orbitals:   3 (   1   1   0   0   1   0   0   0 )
 Number of active  orbitals:        1 (   0   0   1   0   0   0   0   0 )
 Number of external orbitals:     202 (  53  27  27  20  27  20  20   8 )

 Memory could be reduced to 15.57 Mwords without degradation in triples

 Number of N-1 electron functions:               7
 Number of N-2 electron functions:              21
 Number of singly external CSFs:               242
 Number of doubly external CSFs:             88479
 Total number of CSFs:                       88721

 Molecular orbitals read from record     2101.2  Type=RHF/CANONICAL (state 1.3)

 Integral transformation finished. Total CPU:   0.19 sec, npass=  1  Memory used:   1.66 MW

 Starting RMP2 calculation

 ITER.      SQ.NORM     CORR.ENERGY   TOTAL ENERGY   ENERGY CHANGE        DEN1      VAR(S)    VAR(P)  DIIS     TIME
   1      1.06576210    -0.15559073   -11.37280078    -0.15559073    -0.00087304  0.17D-04  0.43D-03  1  1     0.29
   2      1.06686819    -0.15654907   -11.37375912    -0.00095834    -0.00000138  0.60D-07  0.73D-06  2  2     0.42
   3      1.06689731    -0.15656282   -11.37377286    -0.00001374    -0.00000000  0.89D-09  0.18D-08  3  3     0.42
   4      1.06689775    -0.15656291   -11.37377296    -0.00000010    -0.00000000  0.16D-10  0.80D-11  4  4     0.51

 Norm of t1 vector:      0.04784201      S-energy:    -0.00312300      T1 diagnostic:  0.00010124
 Norm of t2 vector:      0.25418279      P-energy:    -0.15343991
                                         Alpha-Beta:  -0.12391710
                                         Alpha-Alpha: -0.01994885
                                         Beta-Beta:   -0.00957396

 Spin contamination <S**2-Sz**2-Sz>     0.00366403
  Reference energy                    -11.217210045813
  RHF-RMP2 correlation energy          -0.156562913553
 !RHF-RMP2 energy                     -11.373772959366

 Starting UCCSD calculation

 ITER.      SQ.NORM     CORR.ENERGY   TOTAL ENERGY   ENERGY CHANGE        DEN1      VAR(S)    VAR(P)  DIIS     TIME
   1      1.07454197    -0.16364007   -11.38085011    -0.16364007    -0.00486778  0.31D-03  0.19D-02  1  1     0.60
   2      1.08194460    -0.16921718   -11.38642722    -0.00557711    -0.00016455  0.46D-05  0.71D-04  2  2     0.76
   3      1.08315435    -0.16975185   -11.38696189    -0.00053467    -0.00001113  0.62D-06  0.55D-05  3  3     0.87
   4      1.08344210    -0.16984491   -11.38705496    -0.00009307    -0.00000088  0.52D-07  0.49D-06  4  4     1.08
   5      1.08351411    -0.16986493   -11.38707498    -0.00002002    -0.00000006  0.70D-08  0.37D-07  5  5     1.17
   6      1.08351937    -0.16986448   -11.38707453     0.00000045    -0.00000001  0.65D-09  0.38D-08  6  6     1.33

 Norm of t1 vector:      0.05680787      S-energy:    -0.00334948      T1 diagnostic:  0.00588719
                                                                       D1 diagnostic:  0.01131816
 Norm of t2 vector:      0.28335885      P-energy:    -0.16651500
                                         Alpha-Beta:  -0.13776220
                                         Alpha-Alpha: -0.01947834
                                         Beta-Beta:   -0.00927446

 Spin contamination <S**2-Sz**2-Sz>     0.00256831

 Memory could be reduced to 11.81 Mwords without degradation in triples
 

 RESULTS
 =======

  Reference energy                    -11.217210045813
  UCCSD singles energy                 -0.003349482554
  UCCSD pair energy                    -0.166515000756
  UCCSD correlation energy             -0.169864483309
  Triples (T) contribution             -0.006782540884
  Total correlation energy             -0.176647024193
 
  RHF-UCCSD energy                    -11.387074529122
  RHF-UCCSD[T] energy                 -11.393804659781
  RHF-UCCSD-T energy                  -11.393858743766
 !RHF-UCCSD(T) energy                 -11.393857070006

 Program statistics:

 Available memory in ccsd:               511999732
 Min. memory needed in ccsd:                413798
 Max. memory used in ccsd:                  501617
 Max. memory used in cckext:                451508 ( 6 integral passes)
 Max. memory used in cckint:               1664357 ( 1 integral passes)



 **********************************************************************************************************************************
 DATASETS  * FILE   NREC   LENGTH (MB)   RECORD NAMES
              1      20       20.42       500      610      700      701      900      950      970     1001      129      960   
                                          VAR    BASINP    GEOM     GEOM    SYMINP    ZMAT    AOBASIS   BASIS     P2S    ABASIS    
                                         1100     1400     1410     1420     1200     1210     1080     1600     1650     1700   
                                           S        T        V       ECP      H0       H01     AOSYM     SMH    MOLCAS    OPER   

              2       7        7.69       700     1000      520     2100      701     1001     2101   
                                         GEOM     BASIS   MCVARS     RHF     GEOM     BASIS     RHF  

 PROGRAMS   *        TOTAL  UCCSD(T)       RHF       INT  UCCSD(T)       RHF       INT  UCCSD(T)       RHF       INT
 CPU TIMES  *       427.29      1.93      0.38      6.09    114.35      4.58     78.33     96.69      4.97    119.47
 REAL TIME  *       703.19 SEC
 DISK USED  *        10.45 GB      
 SF USED    *         3.14 GB      
 GA USED    *         0.00 MB       (max)       0.00 MB       (current)
 **********************************************************************************************************************************
 SETTING A_CCSD         =       -11.39385707  AU                              
 SETTING B_CCSD         =       -11.39385707  AU                              
                                                                                                                                                                                                                                                                

      Z        SCF            CCSD           A_SCF          A_CCSD         B_SCF          B_CCSD
    2.35   -22.43089209   -22.82620760   -11.21721005   -11.39385707   -11.21721005   -11.39385707
    2.95   -22.44969694   -22.84813128     0.00000000     0.00000000     0.00000000     0.00000000
                                                  

 UCCSD(T)/USERDEF energy=    -11.393857070006

        UCCSD(T)        RHF-SCF         UCCSD(T)        RHF-SCF         UCCSD(T)        RHF-SCF 
    -11.39385707    -11.21721005    -22.84813128    -22.44969694    -22.82620760    -22.43089209
 **********************************************************************************************************************************
 Molpro calculation terminated
 Variable memory released
