/global/cscratch1/sd/bkincaid/cutoffs/Mo/50-250/runs/scf_110

     Program PWSCF v.6.4.1 starts on 17Jan2022 at 22:38:10 

     This program is part of the open-source Quantum ESPRESSO suite
     for quantum simulation of materials; please cite
         "P. Giannozzi et al., J. Phys.:Condens. Matter 21 395502 (2009);
         "P. Giannozzi et al., J. Phys.:Condens. Matter 29 465901 (2017);
          URL http://www.quantum-espresso.org", 
     in publications or presentations arising from this work. More details at
     http://www.quantum-espresso.org/quote

     Parallel version (MPI & OpenMP), running on      32 processor cores
     Number of MPI processes:                32
     Threads/MPI process:                     1

     MPI processes distributed on     1 nodes
     R & G space division:  proc/nbgrp/npool/nimage =      32
     Reading input from scf_110.in

     Current dimensions of program PWSCF are:
     Max number of different atomic species (ntypx) = 10
     Max number of k-points (npk) =  40000
     Max angular momentum in pseudopotentials (lmaxx) =  3

     IMPORTANT: XC functional enforced from input :
     Exchange-correlation      = PBE ( 1  4  3  4 0 0)
     Any further DFT definition will be discarded
     Please, verify this is what you really want


     gamma-point specific algorithms are used

     Subspace diagonalization in iterative solution of the eigenvalue problem:
     one sub-group per band group will be used
     scalapack distributed-memory algorithm (size of sub-group:  4*  4 procs)

     Message from routine setup:
     DEPRECATED: symmetry with ibrav=0, use correct ibrav instead
 
     Parallelization info
     --------------------
     sticks:   dense  smooth     PW     G-vecs:    dense   smooth      PW
     Min         561     561    139                56794    56794    7092
     Max         564     564    142                56800    56800    7102
     Sum       18009   18009   4493              1817535  1817535  227095
 


     bravais-lattice index     =            0
     lattice parameter (alat)  =      22.6767  a.u.
     unit-cell volume          =   11661.1222 (a.u.)^3
     number of atoms/cell      =            1
     number of atomic types    =            1
     number of electrons       =        14.00 (up:  10.00, down:   4.00)
     number of Kohn-Sham states=           12
     kinetic-energy cutoff     =     110.0000  Ry
     charge density cutoff     =     440.0000  Ry
     convergence threshold     =      1.0E-06
     mixing beta               =       0.7000
     number of iterations used =            8  plain     mixing
     Exchange-correlation      = PBE ( 1  4  3  4 0 0)

     celldm(1)=  22.676714  celldm(2)=   0.000000  celldm(3)=   0.000000
     celldm(4)=   0.000000  celldm(5)=   0.000000  celldm(6)=   0.000000

     crystal axes: (cart. coord. in units of alat)
               a(1) = (   1.000000   0.000000   0.000000 )  
               a(2) = (   0.000000   1.000000   0.000000 )  
               a(3) = (   0.000000   0.000000   1.000000 )  

     reciprocal axes: (cart. coord. in units 2 pi/alat)
               b(1) = (  1.000000  0.000000  0.000000 )  
               b(2) = (  0.000000  1.000000  0.000000 )  
               b(3) = (  0.000000  0.000000  1.000000 )  


     PseudoPot. # 1 for Mo read from file:
     ./Mo.upf
     MD5 check sum: 8a384037cce4b47caa47c893dc3d0248
     Pseudo is Norm-conserving, Zval = 14.0
     Generated by new atomic code, or converted to UPF format
     Using radial grid of 1172 points,  2 beta functions with: 
                l(1) =   1
                l(2) =   2

     atomic species   valence    mass     pseudopotential
        Mo            14.00    95.94000     Mo( 1.00)

     Starting magnetic structure 
     atomic species   magnetization
        Mo           0.500

     48 Sym. Ops., with inversion, found


                                    s                        frac. trans.

      isym =  1     identity                                     

 cryst.   s( 1) = (     1          0          0      )
                  (     0          1          0      )
                  (     0          0          1      )

 cart.    s( 1) = (  1.0000000  0.0000000  0.0000000 )
                  (  0.0000000  1.0000000  0.0000000 )
                  (  0.0000000  0.0000000  1.0000000 )


      isym =  2     180 deg rotation - cart. axis [0,0,1]        

 cryst.   s( 2) = (    -1          0          0      )
                  (     0         -1          0      )
                  (     0          0          1      )

 cart.    s( 2) = ( -1.0000000  0.0000000  0.0000000 )
                  (  0.0000000 -1.0000000  0.0000000 )
                  (  0.0000000  0.0000000  1.0000000 )


      isym =  3     180 deg rotation - cart. axis [0,1,0]        

 cryst.   s( 3) = (    -1          0          0      )
                  (     0          1          0      )
                  (     0          0         -1      )

 cart.    s( 3) = ( -1.0000000  0.0000000  0.0000000 )
                  (  0.0000000  1.0000000  0.0000000 )
                  (  0.0000000  0.0000000 -1.0000000 )


      isym =  4     180 deg rotation - cart. axis [1,0,0]        

 cryst.   s( 4) = (     1          0          0      )
                  (     0         -1          0      )
                  (     0          0         -1      )

 cart.    s( 4) = (  1.0000000  0.0000000  0.0000000 )
                  (  0.0000000 -1.0000000  0.0000000 )
                  (  0.0000000  0.0000000 -1.0000000 )


      isym =  5     180 deg rotation - cart. axis [1,1,0]        

 cryst.   s( 5) = (     0          1          0      )
                  (     1          0          0      )
                  (     0          0         -1      )

 cart.    s( 5) = (  0.0000000  1.0000000  0.0000000 )
                  (  1.0000000  0.0000000  0.0000000 )
                  (  0.0000000  0.0000000 -1.0000000 )


      isym =  6     180 deg rotation - cart. axis [1,-1,0]       

 cryst.   s( 6) = (     0         -1          0      )
                  (    -1          0          0      )
                  (     0          0         -1      )

 cart.    s( 6) = (  0.0000000 -1.0000000  0.0000000 )
                  ( -1.0000000  0.0000000  0.0000000 )
                  (  0.0000000  0.0000000 -1.0000000 )


      isym =  7      90 deg rotation - cart. axis [0,0,-1]       

 cryst.   s( 7) = (     0         -1          0      )
                  (     1          0          0      )
                  (     0          0          1      )

 cart.    s( 7) = (  0.0000000  1.0000000  0.0000000 )
                  ( -1.0000000  0.0000000  0.0000000 )
                  (  0.0000000  0.0000000  1.0000000 )


      isym =  8      90 deg rotation - cart. axis [0,0,1]        

 cryst.   s( 8) = (     0          1          0      )
                  (    -1          0          0      )
                  (     0          0          1      )

 cart.    s( 8) = (  0.0000000 -1.0000000  0.0000000 )
                  (  1.0000000  0.0000000  0.0000000 )
                  (  0.0000000  0.0000000  1.0000000 )


      isym =  9     180 deg rotation - cart. axis [1,0,1]        

 cryst.   s( 9) = (     0          0          1      )
                  (     0         -1          0      )
                  (     1          0          0      )

 cart.    s( 9) = (  0.0000000  0.0000000  1.0000000 )
                  (  0.0000000 -1.0000000  0.0000000 )
                  (  1.0000000  0.0000000  0.0000000 )


      isym = 10     180 deg rotation - cart. axis [-1,0,1]       

 cryst.   s(10) = (     0          0         -1      )
                  (     0         -1          0      )
                  (    -1          0          0      )

 cart.    s(10) = (  0.0000000  0.0000000 -1.0000000 )
                  (  0.0000000 -1.0000000  0.0000000 )
                  ( -1.0000000  0.0000000  0.0000000 )


      isym = 11      90 deg rotation - cart. axis [0,1,0]        

 cryst.   s(11) = (     0          0         -1      )
                  (     0          1          0      )
                  (     1          0          0      )

 cart.    s(11) = (  0.0000000  0.0000000  1.0000000 )
                  (  0.0000000  1.0000000  0.0000000 )
                  ( -1.0000000  0.0000000  0.0000000 )


      isym = 12      90 deg rotation - cart. axis [0,-1,0]       

 cryst.   s(12) = (     0          0          1      )
                  (     0          1          0      )
                  (    -1          0          0      )

 cart.    s(12) = (  0.0000000  0.0000000 -1.0000000 )
                  (  0.0000000  1.0000000  0.0000000 )
                  (  1.0000000  0.0000000  0.0000000 )


      isym = 13     180 deg rotation - cart. axis [0,1,1]        

 cryst.   s(13) = (    -1          0          0      )
                  (     0          0          1      )
                  (     0          1          0      )

 cart.    s(13) = ( -1.0000000  0.0000000  0.0000000 )
                  (  0.0000000  0.0000000  1.0000000 )
                  (  0.0000000  1.0000000  0.0000000 )


      isym = 14     180 deg rotation - cart. axis [0,1,-1]       

 cryst.   s(14) = (    -1          0          0      )
                  (     0          0         -1      )
                  (     0         -1          0      )

 cart.    s(14) = ( -1.0000000  0.0000000  0.0000000 )
                  (  0.0000000  0.0000000 -1.0000000 )
                  (  0.0000000 -1.0000000  0.0000000 )


      isym = 15      90 deg rotation - cart. axis [-1,0,0]       

 cryst.   s(15) = (     1          0          0      )
                  (     0          0         -1      )
                  (     0          1          0      )

 cart.    s(15) = (  1.0000000  0.0000000  0.0000000 )
                  (  0.0000000  0.0000000  1.0000000 )
                  (  0.0000000 -1.0000000  0.0000000 )


      isym = 16      90 deg rotation - cart. axis [1,0,0]        

 cryst.   s(16) = (     1          0          0      )
                  (     0          0          1      )
                  (     0         -1          0      )

 cart.    s(16) = (  1.0000000  0.0000000  0.0000000 )
                  (  0.0000000  0.0000000 -1.0000000 )
                  (  0.0000000  1.0000000  0.0000000 )


      isym = 17     120 deg rotation - cart. axis [-1,-1,-1]     

 cryst.   s(17) = (     0          0          1      )
                  (     1          0          0      )
                  (     0          1          0      )

 cart.    s(17) = (  0.0000000  1.0000000  0.0000000 )
                  (  0.0000000  0.0000000  1.0000000 )
                  (  1.0000000  0.0000000  0.0000000 )


      isym = 18     120 deg rotation - cart. axis [-1,1,1]       

 cryst.   s(18) = (     0          0         -1      )
                  (    -1          0          0      )
                  (     0          1          0      )

 cart.    s(18) = (  0.0000000 -1.0000000  0.0000000 )
                  (  0.0000000  0.0000000  1.0000000 )
                  ( -1.0000000  0.0000000  0.0000000 )


      isym = 19     120 deg rotation - cart. axis [1,1,-1]       

 cryst.   s(19) = (     0          0         -1      )
                  (     1          0          0      )
                  (     0         -1          0      )

 cart.    s(19) = (  0.0000000  1.0000000  0.0000000 )
                  (  0.0000000  0.0000000 -1.0000000 )
                  ( -1.0000000  0.0000000  0.0000000 )


      isym = 20     120 deg rotation - cart. axis [1,-1,1]       

 cryst.   s(20) = (     0          0          1      )
                  (    -1          0          0      )
                  (     0         -1          0      )

 cart.    s(20) = (  0.0000000 -1.0000000  0.0000000 )
                  (  0.0000000  0.0000000 -1.0000000 )
                  (  1.0000000  0.0000000  0.0000000 )


      isym = 21     120 deg rotation - cart. axis [1,1,1]        

 cryst.   s(21) = (     0          1          0      )
                  (     0          0          1      )
                  (     1          0          0      )

 cart.    s(21) = (  0.0000000  0.0000000  1.0000000 )
                  (  1.0000000  0.0000000  0.0000000 )
                  (  0.0000000  1.0000000  0.0000000 )


      isym = 22     120 deg rotation - cart. axis [-1,1,-1]      

 cryst.   s(22) = (     0         -1          0      )
                  (     0          0         -1      )
                  (     1          0          0      )

 cart.    s(22) = (  0.0000000  0.0000000  1.0000000 )
                  ( -1.0000000  0.0000000  0.0000000 )
                  (  0.0000000 -1.0000000  0.0000000 )


      isym = 23     120 deg rotation - cart. axis [1,-1,-1]      

 cryst.   s(23) = (     0         -1          0      )
                  (     0          0          1      )
                  (    -1          0          0      )

 cart.    s(23) = (  0.0000000  0.0000000 -1.0000000 )
                  ( -1.0000000  0.0000000  0.0000000 )
                  (  0.0000000  1.0000000  0.0000000 )


      isym = 24     120 deg rotation - cart. axis [-1,-1,1]      

 cryst.   s(24) = (     0          1          0      )
                  (     0          0         -1      )
                  (    -1          0          0      )

 cart.    s(24) = (  0.0000000  0.0000000 -1.0000000 )
                  (  1.0000000  0.0000000  0.0000000 )
                  (  0.0000000 -1.0000000  0.0000000 )


      isym = 25     inversion                                    

 cryst.   s(25) = (    -1          0          0      )
                  (     0         -1          0      )
                  (     0          0         -1      )

 cart.    s(25) = ( -1.0000000  0.0000000  0.0000000 )
                  (  0.0000000 -1.0000000  0.0000000 )
                  (  0.0000000  0.0000000 -1.0000000 )


      isym = 26     inv. 180 deg rotation - cart. axis [0,0,1]   

 cryst.   s(26) = (     1          0          0      )
                  (     0          1          0      )
                  (     0          0         -1      )

 cart.    s(26) = (  1.0000000  0.0000000  0.0000000 )
                  (  0.0000000  1.0000000  0.0000000 )
                  (  0.0000000  0.0000000 -1.0000000 )


      isym = 27     inv. 180 deg rotation - cart. axis [0,1,0]   

 cryst.   s(27) = (     1          0          0      )
                  (     0         -1          0      )
                  (     0          0          1      )

 cart.    s(27) = (  1.0000000  0.0000000  0.0000000 )
                  (  0.0000000 -1.0000000  0.0000000 )
                  (  0.0000000  0.0000000  1.0000000 )


      isym = 28     inv. 180 deg rotation - cart. axis [1,0,0]   

 cryst.   s(28) = (    -1          0          0      )
                  (     0          1          0      )
                  (     0          0          1      )

 cart.    s(28) = ( -1.0000000  0.0000000  0.0000000 )
                  (  0.0000000  1.0000000  0.0000000 )
                  (  0.0000000  0.0000000  1.0000000 )


      isym = 29     inv. 180 deg rotation - cart. axis [1,1,0]   

 cryst.   s(29) = (     0         -1          0      )
                  (    -1          0          0      )
                  (     0          0          1      )

 cart.    s(29) = (  0.0000000 -1.0000000  0.0000000 )
                  ( -1.0000000  0.0000000  0.0000000 )
                  (  0.0000000  0.0000000  1.0000000 )


      isym = 30     inv. 180 deg rotation - cart. axis [1,-1,0]  

 cryst.   s(30) = (     0          1          0      )
                  (     1          0          0      )
                  (     0          0          1      )

 cart.    s(30) = (  0.0000000  1.0000000  0.0000000 )
                  (  1.0000000  0.0000000  0.0000000 )
                  (  0.0000000  0.0000000  1.0000000 )


      isym = 31     inv.  90 deg rotation - cart. axis [0,0,-1]  

 cryst.   s(31) = (     0          1          0      )
                  (    -1          0          0      )
                  (     0          0         -1      )

 cart.    s(31) = (  0.0000000 -1.0000000  0.0000000 )
                  (  1.0000000  0.0000000  0.0000000 )
                  (  0.0000000  0.0000000 -1.0000000 )


      isym = 32     inv.  90 deg rotation - cart. axis [0,0,1]   

 cryst.   s(32) = (     0         -1          0      )
                  (     1          0          0      )
                  (     0          0         -1      )

 cart.    s(32) = (  0.0000000  1.0000000  0.0000000 )
                  ( -1.0000000  0.0000000  0.0000000 )
                  (  0.0000000  0.0000000 -1.0000000 )


      isym = 33     inv. 180 deg rotation - cart. axis [1,0,1]   

 cryst.   s(33) = (     0          0         -1      )
                  (     0          1          0      )
                  (    -1          0          0      )

 cart.    s(33) = (  0.0000000  0.0000000 -1.0000000 )
                  (  0.0000000  1.0000000  0.0000000 )
                  ( -1.0000000  0.0000000  0.0000000 )


      isym = 34     inv. 180 deg rotation - cart. axis [-1,0,1]  

 cryst.   s(34) = (     0          0          1      )
                  (     0          1          0      )
                  (     1          0          0      )

 cart.    s(34) = (  0.0000000  0.0000000  1.0000000 )
                  (  0.0000000  1.0000000  0.0000000 )
                  (  1.0000000  0.0000000  0.0000000 )


      isym = 35     inv.  90 deg rotation - cart. axis [0,1,0]   

 cryst.   s(35) = (     0          0          1      )
                  (     0         -1          0      )
                  (    -1          0          0      )

 cart.    s(35) = (  0.0000000  0.0000000 -1.0000000 )
                  (  0.0000000 -1.0000000  0.0000000 )
                  (  1.0000000  0.0000000  0.0000000 )


      isym = 36     inv.  90 deg rotation - cart. axis [0,-1,0]  

 cryst.   s(36) = (     0          0         -1      )
                  (     0         -1          0      )
                  (     1          0          0      )

 cart.    s(36) = (  0.0000000  0.0000000  1.0000000 )
                  (  0.0000000 -1.0000000  0.0000000 )
                  ( -1.0000000  0.0000000  0.0000000 )


      isym = 37     inv. 180 deg rotation - cart. axis [0,1,1]   

 cryst.   s(37) = (     1          0          0      )
                  (     0          0         -1      )
                  (     0         -1          0      )

 cart.    s(37) = (  1.0000000  0.0000000  0.0000000 )
                  (  0.0000000  0.0000000 -1.0000000 )
                  (  0.0000000 -1.0000000  0.0000000 )


      isym = 38     inv. 180 deg rotation - cart. axis [0,1,-1]  

 cryst.   s(38) = (     1          0          0      )
                  (     0          0          1      )
                  (     0          1          0      )

 cart.    s(38) = (  1.0000000  0.0000000  0.0000000 )
                  (  0.0000000  0.0000000  1.0000000 )
                  (  0.0000000  1.0000000  0.0000000 )


      isym = 39     inv.  90 deg rotation - cart. axis [-1,0,0]  

 cryst.   s(39) = (    -1          0          0      )
                  (     0          0          1      )
                  (     0         -1          0      )

 cart.    s(39) = ( -1.0000000  0.0000000  0.0000000 )
                  (  0.0000000  0.0000000 -1.0000000 )
                  (  0.0000000  1.0000000  0.0000000 )


      isym = 40     inv.  90 deg rotation - cart. axis [1,0,0]   

 cryst.   s(40) = (    -1          0          0      )
                  (     0          0         -1      )
                  (     0          1          0      )

 cart.    s(40) = ( -1.0000000  0.0000000  0.0000000 )
                  (  0.0000000  0.0000000  1.0000000 )
                  (  0.0000000 -1.0000000  0.0000000 )


      isym = 41     inv. 120 deg rotation - cart. axis [-1,-1,-1]

 cryst.   s(41) = (     0          0         -1      )
                  (    -1          0          0      )
                  (     0         -1          0      )

 cart.    s(41) = (  0.0000000 -1.0000000  0.0000000 )
                  (  0.0000000  0.0000000 -1.0000000 )
                  ( -1.0000000  0.0000000  0.0000000 )


      isym = 42     inv. 120 deg rotation - cart. axis [-1,1,1]  

 cryst.   s(42) = (     0          0          1      )
                  (     1          0          0      )
                  (     0         -1          0      )

 cart.    s(42) = (  0.0000000  1.0000000  0.0000000 )
                  (  0.0000000  0.0000000 -1.0000000 )
                  (  1.0000000  0.0000000  0.0000000 )


      isym = 43     inv. 120 deg rotation - cart. axis [1,1,-1]  

 cryst.   s(43) = (     0          0          1      )
                  (    -1          0          0      )
                  (     0          1          0      )

 cart.    s(43) = (  0.0000000 -1.0000000  0.0000000 )
                  (  0.0000000  0.0000000  1.0000000 )
                  (  1.0000000  0.0000000  0.0000000 )


      isym = 44     inv. 120 deg rotation - cart. axis [1,-1,1]  

 cryst.   s(44) = (     0          0         -1      )
                  (     1          0          0      )
                  (     0          1          0      )

 cart.    s(44) = (  0.0000000  1.0000000  0.0000000 )
                  (  0.0000000  0.0000000  1.0000000 )
                  ( -1.0000000  0.0000000  0.0000000 )


      isym = 45     inv. 120 deg rotation - cart. axis [1,1,1]   

 cryst.   s(45) = (     0         -1          0      )
                  (     0          0         -1      )
                  (    -1          0          0      )

 cart.    s(45) = (  0.0000000  0.0000000 -1.0000000 )
                  ( -1.0000000  0.0000000  0.0000000 )
                  (  0.0000000 -1.0000000  0.0000000 )


      isym = 46     inv. 120 deg rotation - cart. axis [-1,1,-1] 

 cryst.   s(46) = (     0          1          0      )
                  (     0          0          1      )
                  (    -1          0          0      )

 cart.    s(46) = (  0.0000000  0.0000000 -1.0000000 )
                  (  1.0000000  0.0000000  0.0000000 )
                  (  0.0000000  1.0000000  0.0000000 )


      isym = 47     inv. 120 deg rotation - cart. axis [1,-1,-1] 

 cryst.   s(47) = (     0          1          0      )
                  (     0          0         -1      )
                  (     1          0          0      )

 cart.    s(47) = (  0.0000000  0.0000000  1.0000000 )
                  (  1.0000000  0.0000000  0.0000000 )
                  (  0.0000000 -1.0000000  0.0000000 )


      isym = 48     inv. 120 deg rotation - cart. axis [-1,-1,1] 

 cryst.   s(48) = (     0         -1          0      )
                  (     0          0          1      )
                  (     1          0          0      )

 cart.    s(48) = (  0.0000000  0.0000000  1.0000000 )
                  ( -1.0000000  0.0000000  0.0000000 )
                  (  0.0000000  1.0000000  0.0000000 )


   Cartesian axes

     site n.     atom                  positions (alat units)
         1           Mo  tau(   1) = (   0.5000000   0.5000000   0.5000000  )

   Crystallographic axes

     site n.     atom                  positions (cryst. coord.)
         1           Mo  tau(   1) = (  0.5000000  0.5000000  0.5000000  )

     number of k points=     1
                       cart. coord. in units 2pi/alat
        k(    1) = (   0.0000000   0.0000000   0.0000000), wk =   1.0000000

                       cryst. coord.
        k(    1) = (   0.0000000   0.0000000   0.0000000), wk =   1.0000000

     Dense  grid:   908768 G-vectors     FFT dimensions: ( 160, 160, 160)

     Dynamical RAM for                 wfc:       0.65 MB

     Dynamical RAM for     wfc (w. buffer):       1.95 MB

     Dynamical RAM for           str. fact:       0.43 MB

     Dynamical RAM for           local pot:       0.00 MB

     Dynamical RAM for          nlocal pot:       0.43 MB

     Dynamical RAM for                qrad:       0.87 MB

     Dynamical RAM for          rho,v,vnew:       8.46 MB

     Dynamical RAM for               rhoin:       2.82 MB

     Dynamical RAM for            rho*nmix:      13.87 MB

     Dynamical RAM for           G-vectors:       1.84 MB

     Dynamical RAM for          h,s,v(r/c):       0.00 MB

     Dynamical RAM for          <psi|beta>:       0.00 MB

     Dynamical RAM for                 psi:       2.60 MB

     Dynamical RAM for                hpsi:       2.60 MB

     Dynamical RAM for      wfcinit/wfcrot:       1.30 MB

     Estimated static dynamical RAM per process >      37.40 MB

     Estimated max dynamical RAM per process >      42.60 MB

     Estimated total dynamical RAM >       1.33 GB
     Generating pointlists ...
     new r_m :   0.4125 (alat units)  9.3541 (a.u.) for type    1

     Initial potential from superposition of free atoms

     starting charge   11.99998, renormalised to   14.00000

     negative rho (up, down):  8.280E-03 0.000E+00
     Starting wfcs are    9 randomized atomic wfcs +    3 random wfcs

     total cpu time spent up to now is        1.1 secs

     Self-consistent Calculation

     iteration #  1     ecut=   110.00 Ry     beta= 0.70
     Davidson diagonalization with overlap
     ethr =  1.00E-02,  avg # of iterations =  9.5

     negative rho (up, down):  3.169E-06 4.237E-01

     total cpu time spent up to now is        2.5 secs

     total energy              =    -126.69936093 Ry
     Harris-Foulkes estimate   =    -138.31875008 Ry
     estimated scf accuracy    <      15.04789002 Ry

     total magnetization       =     6.00 Bohr mag/cell
     absolute magnetization    =     6.01 Bohr mag/cell

     iteration #  2     ecut=   110.00 Ry     beta= 0.70
     Davidson diagonalization with overlap
     ethr =  1.00E-02,  avg # of iterations =  6.5

     negative rho (up, down):  1.010E-06 4.184E-01

     total cpu time spent up to now is        3.6 secs

     total energy              =    -136.35105906 Ry
     Harris-Foulkes estimate   =    -141.43977527 Ry
     estimated scf accuracy    <       8.75344584 Ry

     total magnetization       =     6.00 Bohr mag/cell
     absolute magnetization    =     6.00 Bohr mag/cell

     iteration #  3     ecut=   110.00 Ry     beta= 0.70
     Davidson diagonalization with overlap
     ethr =  1.00E-02,  avg # of iterations =  2.0

     negative rho (up, down):  6.887E-07 4.176E-01

     total cpu time spent up to now is        4.4 secs

     total energy              =    -136.60924304 Ry
     Harris-Foulkes estimate   =    -136.92956129 Ry
     estimated scf accuracy    <       1.61401058 Ry

     total magnetization       =     6.00 Bohr mag/cell
     absolute magnetization    =     6.00 Bohr mag/cell

     iteration #  4     ecut=   110.00 Ry     beta= 0.70
     Davidson diagonalization with overlap
     ethr =  1.00E-02,  avg # of iterations =  1.0

     negative rho (up, down):  7.258E-07 6.103E-01

     total cpu time spent up to now is        5.1 secs

     total energy              =    -135.75783671 Ry
     Harris-Foulkes estimate   =    -136.61782630 Ry
     estimated scf accuracy    <       1.13111858 Ry

     total magnetization       =     6.00 Bohr mag/cell
     absolute magnetization    =     6.00 Bohr mag/cell

     iteration #  5     ecut=   110.00 Ry     beta= 0.70
     Davidson diagonalization with overlap
     ethr =  8.08E-03,  avg # of iterations =  2.5

     negative rho (up, down):  3.071E-06 6.885E-01

     total cpu time spent up to now is        5.8 secs

     total energy              =    -136.03096587 Ry
     Harris-Foulkes estimate   =    -135.99749579 Ry
     estimated scf accuracy    <       0.05513273 Ry

     total magnetization       =     6.00 Bohr mag/cell
     absolute magnetization    =     6.00 Bohr mag/cell

     iteration #  6     ecut=   110.00 Ry     beta= 0.70
     Davidson diagonalization with overlap
     ethr =  3.94E-04,  avg # of iterations =  7.5

     negative rho (up, down):  6.674E-02 3.244E-01

     total cpu time spent up to now is        6.9 secs

     total energy              =    -136.01291027 Ry
     Harris-Foulkes estimate   =    -136.04833136 Ry
     estimated scf accuracy    <       0.23345352 Ry

     total magnetization       =     6.00 Bohr mag/cell
     absolute magnetization    =     6.00 Bohr mag/cell

     iteration #  7     ecut=   110.00 Ry     beta= 0.70
     Davidson diagonalization with overlap
     ethr =  3.94E-04,  avg # of iterations =  2.0

     negative rho (up, down):  2.998E-02 4.642E-01

     total cpu time spent up to now is        7.7 secs

     total energy              =    -135.98597821 Ry
     Harris-Foulkes estimate   =    -136.01858794 Ry
     estimated scf accuracy    <       0.09466179 Ry

     total magnetization       =     6.00 Bohr mag/cell
     absolute magnetization    =     6.00 Bohr mag/cell

     iteration #  8     ecut=   110.00 Ry     beta= 0.70
     Davidson diagonalization with overlap
     ethr =  3.94E-04,  avg # of iterations =  4.0

     negative rho (up, down):  2.196E-02 4.959E-01

     total cpu time spent up to now is        8.4 secs

     total energy              =    -135.99027971 Ry
     Harris-Foulkes estimate   =    -135.99283728 Ry
     estimated scf accuracy    <       0.01681795 Ry

     total magnetization       =     6.00 Bohr mag/cell
     absolute magnetization    =     6.00 Bohr mag/cell

     iteration #  9     ecut=   110.00 Ry     beta= 0.70
     Davidson diagonalization with overlap
     ethr =  1.20E-04,  avg # of iterations =  5.5

     negative rho (up, down):  1.398E-02 5.264E-01

     total cpu time spent up to now is        9.3 secs

     total energy              =    -135.98742831 Ry
     Harris-Foulkes estimate   =    -135.99055160 Ry
     estimated scf accuracy    <       0.01148216 Ry

     total magnetization       =     6.00 Bohr mag/cell
     absolute magnetization    =     6.00 Bohr mag/cell

     iteration # 10     ecut=   110.00 Ry     beta= 0.70
     Davidson diagonalization with overlap
     ethr =  8.20E-05,  avg # of iterations =  2.0

     negative rho (up, down):  7.214E-04 4.764E-01

     total cpu time spent up to now is       10.0 secs

     total energy              =    -135.98499787 Ry
     Harris-Foulkes estimate   =    -135.98791081 Ry
     estimated scf accuracy    <       0.00491499 Ry

     total magnetization       =     6.00 Bohr mag/cell
     absolute magnetization    =     6.00 Bohr mag/cell

     iteration # 11     ecut=   110.00 Ry     beta= 0.70
     Davidson diagonalization with overlap
     ethr =  3.51E-05,  avg # of iterations =  7.0

     negative rho (up, down):  0.000E+00 2.928E-02

     total cpu time spent up to now is       11.0 secs

     total energy              =    -135.98521361 Ry
     Harris-Foulkes estimate   =    -135.98563335 Ry
     estimated scf accuracy    <       0.00070544 Ry

     total magnetization       =     6.00 Bohr mag/cell
     absolute magnetization    =     6.00 Bohr mag/cell

     iteration # 12     ecut=   110.00 Ry     beta= 0.70
     Davidson diagonalization with overlap
     ethr =  5.04E-06,  avg # of iterations =  7.5

     negative rho (up, down):  0.000E+00 7.389E-02

     total cpu time spent up to now is       12.0 secs

     total energy              =    -135.98541245 Ry
     Harris-Foulkes estimate   =    -135.98544191 Ry
     estimated scf accuracy    <       0.00008430 Ry

     total magnetization       =     6.00 Bohr mag/cell
     absolute magnetization    =     6.00 Bohr mag/cell

     iteration # 13     ecut=   110.00 Ry     beta= 0.70
     Davidson diagonalization with overlap
     ethr =  6.02E-07,  avg # of iterations =  2.0

     negative rho (up, down):  1.220E-06 1.057E-01

     total cpu time spent up to now is       12.7 secs

     total energy              =    -135.98541140 Ry
     Harris-Foulkes estimate   =    -135.98542091 Ry
     estimated scf accuracy    <       0.00002412 Ry

     total magnetization       =     6.00 Bohr mag/cell
     absolute magnetization    =     6.00 Bohr mag/cell

     iteration # 14     ecut=   110.00 Ry     beta= 0.70
     Davidson diagonalization with overlap
     ethr =  1.72E-07,  avg # of iterations =  1.5

     negative rho (up, down):  2.955E-06 1.225E-01

     total cpu time spent up to now is       13.5 secs

     total energy              =    -135.98540978 Ry
     Harris-Foulkes estimate   =    -135.98541284 Ry
     estimated scf accuracy    <       0.00000612 Ry

     total magnetization       =     6.00 Bohr mag/cell
     absolute magnetization    =     6.00 Bohr mag/cell

     iteration # 15     ecut=   110.00 Ry     beta= 0.70
     Davidson diagonalization with overlap
     ethr =  4.37E-08,  avg # of iterations =  1.0

     negative rho (up, down):  2.158E-06 1.040E-01

     total cpu time spent up to now is       14.2 secs

     total energy              =    -135.98540458 Ry
     Harris-Foulkes estimate   =    -135.98541003 Ry
     estimated scf accuracy    <       0.00000216 Ry

     total magnetization       =     6.00 Bohr mag/cell
     absolute magnetization    =     6.00 Bohr mag/cell

     iteration # 16     ecut=   110.00 Ry     beta= 0.70
     Davidson diagonalization with overlap
     ethr =  1.54E-08,  avg # of iterations =  2.0
 
     Magnetic moment per site:
     atom:    1    charge:   13.9991    magn:    5.9991    constr:    0.0000

     total cpu time spent up to now is       14.9 secs

     End of self-consistent calculation

 ------ SPIN UP ------------


          k = 0.0000 0.0000 0.0000 (113548 PWs)   bands (ev):

   -64.6554 -39.1929 -39.1927 -39.1926  -4.3910  -4.2781  -4.2780  -4.2780
    -4.2779  -4.2779  -1.0689  -1.0687

     occupation numbers 
     1.0000   1.0000   1.0000   1.0000   1.0000   1.0000   1.0000   1.0000
     1.0000   1.0000   0.0000   0.0000

 ------ SPIN DOWN ----------


          k = 0.0000 0.0000 0.0000 (113548 PWs)   bands (ev):

   -61.8186 -36.1039 -36.1035 -36.1034  -1.4218  -0.8548  -0.8546  -0.8535
    -0.8535  -0.8534   0.2703   0.9773

     occupation numbers 
     1.0000   1.0000   1.0000   1.0000   0.0000   0.0000   0.0000   0.0000
     0.0000   0.0000   0.0000   0.0000

     highest occupied, lowest unoccupied level (ev):    -4.2779   -1.4218

!    total energy              =    -135.98540238 Ry
     Harris-Foulkes estimate   =    -135.98540525 Ry
     estimated scf accuracy    <       0.00000003 Ry

     The total energy is the sum of the following terms:

     one-electron contribution =    -184.01857833 Ry
     hartree contribution      =      88.43242358 Ry
     xc contribution           =     -15.87583935 Ry
     ewald contribution        =     -24.52340829 Ry

     total magnetization       =     6.00 Bohr mag/cell
     absolute magnetization    =     6.00 Bohr mag/cell

     convergence has been achieved in  16 iterations

     Writing output data file pwscf.save/
 
     init_run     :      0.76s CPU      0.95s WALL (       1 calls)
     electrons    :     13.70s CPU     13.98s WALL (       1 calls)

     Called by init_run:
     wfcinit      :      0.16s CPU      0.23s WALL (       1 calls)
     wfcinit:atom :      0.00s CPU      0.00s WALL (       2 calls)
     wfcinit:wfcr :      0.16s CPU      0.23s WALL (       2 calls)
     potinit      :      0.27s CPU      0.29s WALL (       1 calls)
     hinit0       :      0.03s CPU      0.13s WALL (       1 calls)

     Called by electrons:
     c_bands      :      6.94s CPU      7.00s WALL (      16 calls)
     sum_band     :      1.98s CPU      1.99s WALL (      16 calls)
     v_of_rho     :      3.84s CPU      3.88s WALL (      17 calls)
     v_h          :      0.26s CPU      0.26s WALL (      17 calls)
     v_xc         :      3.58s CPU      3.62s WALL (      17 calls)
     mix_rho      :      0.99s CPU      1.01s WALL (      16 calls)

     Called by c_bands:
     init_us_2    :      0.06s CPU      0.06s WALL (      66 calls)
     regterg      :      6.86s CPU      6.90s WALL (      32 calls)

     Called by sum_band:

     Called by *egterg:
     h_psi        :      6.22s CPU      6.29s WALL (     161 calls)
     g_psi        :      0.03s CPU      0.03s WALL (     127 calls)
     rdiaghg      :      0.19s CPU      0.22s WALL (     159 calls)
     regterg:over :      0.17s CPU      0.17s WALL (     127 calls)
     regterg:upda :      0.17s CPU      0.18s WALL (     127 calls)
     regterg:last :      0.05s CPU      0.06s WALL (      39 calls)
     rdiaghg:chol :      0.05s CPU      0.06s WALL (     159 calls)
     rdiaghg:inve :      0.00s CPU      0.00s WALL (     159 calls)
     rdiaghg:para :      0.02s CPU      0.02s WALL (     318 calls)

     Called by h_psi:
     h_psi:pot    :      6.19s CPU      6.26s WALL (     161 calls)
     h_psi:calbec :      0.08s CPU      0.11s WALL (     161 calls)
     vloc_psi     :      6.06s CPU      6.10s WALL (     161 calls)
     add_vuspsi   :      0.05s CPU      0.05s WALL (     161 calls)

     General routines
     calbec       :      0.08s CPU      0.11s WALL (     161 calls)
     fft          :      3.00s CPU      3.11s WALL (     251 calls)
     ffts         :      0.36s CPU      0.36s WALL (      32 calls)
     fftw         :      5.70s CPU      5.74s WALL (    1444 calls)
 
     Parallel routines
     fft_scatt_xy :      1.47s CPU      1.48s WALL (    1727 calls)
     fft_scatt_yz :      3.29s CPU      3.32s WALL (    1727 calls)
 
     PWSCF        :     14.57s CPU     15.34s WALL

 
   This run was terminated on:  22:38:25  17Jan2022            

=------------------------------------------------------------------------------=
   JOB DONE.
=------------------------------------------------------------------------------=
