
 Primary working directories    : /global/cscratch1/sd/bkincaid
 Secondary working directories  : /global/cscratch1/sd/bkincaid
 Wavefunction directory         : /global/homes/b/bkincaid/wfu/
 Main file repository           : /global/cscratch1/sd/bkincaid/

 SHA1      : 19cd028119e0e09f93f0674bd8af7968d9b3eff6
 NAME      : 2015.1.36
 ARCHNAME  : linux/x86_64
 FC        : /opt/cray/pe/craype/2.5.14/bin/ftn
 BLASLIB   : -L/opt/intel/compilers_and_libraries_2018.1.163/linux/mkl/lib/intel64 -Wl,-_start-group -lmkl_intel_ilp64 -lmkl_intel_thread -lmkl_core -Wl,-_end-group -liomp5
 id        : lbl

 Nodes     nprocs
 nid00605    11
 Number of processes for MPI-2 version of Molpro:   nprocs(total)=   12   nprocs(compute)=   11   nprocs(helper)=    1

 Using customized tuning parameters: mindgm=7; mindgv=16; mindgc=1; mindgr=1; noblas=0; minvec=7
 default implementation of scratch files=sf  

 ***,Calculation for Ir groundstate
 memory,1024,m
 gthresh,twoint=1.0E-15
 gthresh,throvl=1.0E-15
                                                                                 !symmetry,nosym
 
                                                                                 !set,dkroll=1,dkho=10,dkhp=4
 
 basis={
 Including file /global/u1/b/bkincaid/molpro/Ir/atoms/tz/ecps/testing/bk2.3/bk2.3
 Including file /global/u1/b/bkincaid/molpro/Ir/atoms/tz/ecps/testing/bk2.3/tz.basis
 }
 
 geometry={
 1
 Iridium
 Ir 0.0 0.0 0.0
 }
 
 {rhf,maxdis=50,iptyp='DIIS',nitord=30,maxit=60; shift,-2.0,-1.0
  start,atden
  print,orbitals=2
  wf,17,1,3
  occ,4,1,1,1,1,1,1,0
  closed,4,1,1,0,1,0,0,0
  sym,1,1,1,3,2
  orbital,4202.2
 }
 
 
 scf(i)=energy
 _CC_NORM_MAX=2.0
 {rccsd(t);maxit,100;core}
 ccsd(i)=energy
 
 table,scf,ccsd
 save
 type,csv

 Variables initialized (889), CPU time= 0.01 sec
 Commands  initialized (702), CPU time= 0.01 sec, 572 directives.
 Default parameters read. Elapsed time= 0.16 sec

 Checking input...
 Passed
1


                                         ***  PROGRAM SYSTEM MOLPRO  ***
                                       Copyright, TTI GmbH Stuttgart, 2015
                                    Version 2015.1 linked Dec 29 2018 15:55:43


 **********************************************************************************************************************************
 LABEL *   Calculation for Ir groundstate                                                
  64 bit mpp version                                                                     DATE: 23-Mar-21          TIME: 11:58:34  
 **********************************************************************************************************************************

 SHA1:             19cd028119e0e09f93f0674bd8af7968d9b3eff6
 **********************************************************************************************************************************

 THRESHOLDS:

 ZERO    =  1.00D-12  ONEINT  =  1.00D-12  TWOINT  =  1.00D-15  PREFAC  =  1.00D-14  LOCALI  =  1.00D-09  EORDER  =  1.00D-04
 ENERGY  =  0.00D+00  ETEST   =  0.00D+00  EDENS   =  0.00D+00  THRDEDEF=  1.00D-06  GRADIENT=  1.00D-02  STEP    =  1.00D-03
 ORBITAL =  1.00D-05  CIVEC   =  1.00D-05  COEFF   =  1.00D-04  PRINTCI =  5.00D-02  PUNCHCI =  9.90D+01  OPTGRAD =  3.00D-04
 OPTENERG=  1.00D-06  OPTSTEP =  3.00D-04  THRGRAD =  1.00D-10  COMPRESS=  1.00D-11  VARMIN  =  1.00D-07  VARMAX  =  1.00D-03
 THRDOUB =  0.00D+00  THRDIV  =  1.00D-05  THRRED  =  1.00D-07  THRPSP  =  1.00D+00  THRDC   =  1.00D-10  THRCS   =  1.00D-10
 THRNRM  =  1.00D-08  THREQ   =  0.00D+00  THRDE   =  1.00D+00  THRREF  =  1.00D-05  SPARFAC =  1.00D+00  THRDLP  =  1.00D-07
 THRDIA  =  1.00D-10  THRDLS  =  1.00D-07  THRGPS  =  0.00D+00  THRKEX  =  0.00D+00  THRDIS  =  2.00D-01  THRVAR  =  1.00D-10
 THRLOC  =  1.00D-06  THRGAP  =  1.00D-06  THRLOCT = -1.00D+00  THRGAPT = -1.00D+00  THRORB  =  1.00D-06  THRMLTP =  0.00D+00
 THRCPQCI=  1.00D-10  KEXTA   =  0.00D+00  THRCOARS=  0.00D+00  SYMTOL  =  1.00D-06  GRADTOL =  1.00D-06  THROVL  =  1.00D-08
 THRORTH =  1.00D-08  GRID    =  1.00D-06  GRIDMAX =  1.00D-03  DTMAX   =  0.00D+00  THROCCDE=  1.00D-01  THROCCDE=  1.00D-01



 THRESHOLDS:

 ZERO    =  1.00D-12  ONEINT  =  1.00D-12  TWOINT  =  1.00D-15  PREFAC  =  1.00D-14  LOCALI  =  1.00D-09  EORDER  =  1.00D-04
 ENERGY  =  0.00D+00  ETEST   =  0.00D+00  EDENS   =  0.00D+00  THRDEDEF=  1.00D-06  GRADIENT=  1.00D-02  STEP    =  1.00D-03
 ORBITAL =  1.00D-05  CIVEC   =  1.00D-05  COEFF   =  1.00D-04  PRINTCI =  5.00D-02  PUNCHCI =  9.90D+01  OPTGRAD =  3.00D-04
 OPTENERG=  1.00D-06  OPTSTEP =  3.00D-04  THRGRAD =  1.00D-10  COMPRESS=  1.00D-11  VARMIN  =  1.00D-07  VARMAX  =  1.00D-03
 THRDOUB =  0.00D+00  THRDIV  =  1.00D-05  THRRED  =  1.00D-07  THRPSP  =  1.00D+00  THRDC   =  1.00D-10  THRCS   =  1.00D-10
 THRNRM  =  1.00D-08  THREQ   =  0.00D+00  THRDE   =  1.00D+00  THRREF  =  1.00D-05  SPARFAC =  1.00D+00  THRDLP  =  1.00D-07
 THRDIA  =  1.00D-10  THRDLS  =  1.00D-07  THRGPS  =  0.00D+00  THRKEX  =  0.00D+00  THRDIS  =  2.00D-01  THRVAR  =  1.00D-10
 THRLOC  =  1.00D-06  THRGAP  =  1.00D-06  THRLOCT = -1.00D+00  THRGAPT = -1.00D+00  THRORB  =  1.00D-06  THRMLTP =  0.00D+00
 THRCPQCI=  1.00D-10  KEXTA   =  0.00D+00  THRCOARS=  0.00D+00  SYMTOL  =  1.00D-06  GRADTOL =  1.00D-06  THROVL  =  1.00D-15
 THRORTH =  1.00D-08  GRID    =  1.00D-06  GRIDMAX =  1.00D-03  DTMAX   =  0.00D+00  THROCCDE=  1.00D-01  THROCCDE=  1.00D-01



 Variable memory set to 1024000000 words,  buffer space   230000 words

 SETTING BASIS          =    USERDEF

Geometry recognized as XYZ



 Recomputing integrals since basis changed


 Using spherical harmonics



 PROGRAM * SEWARD (Integral evaluation for generally contracted gaussian basis sets)     Author: Roland Lindh, 1990

 Geometry written to block  1 of record 700

 Orientation using atomic masses  
 Molecule type: Atom
 Symmetry elements: X,Y,Z
 Rotational constants:       0.0000000      0.0000000      0.0000000 GHz  (calculated with average atomic masses)

 Point group  D2h 



 ATOMIC COORDINATES

 NR  ATOM    CHARGE       X              Y              Z

   1  IR     17.00    0.000000000    0.000000000    0.000000000

 NUCLEAR CHARGE:                   17
 NUMBER OF PRIMITIVE AOS:         460
 NUMBER OF SYMMETRY AOS:          375
 NUMBER OF CONTRACTIONS:          375   (  90Ag  +  62B3u +  62B2u +  28B1g +  62B1u +  28B2g +  28B3g +  15Au  )
 NUMBER OF CORE ORBITALS:           4   (   1Ag  +   1B3u +   1B2u +   0B1g +   1B1u +   0B2g +   0B3g +   0Au  )
 NUMBER OF VALENCE ORBITALS:        6   (   3Ag  +   0B3u +   0B2u +   1B1g +   0B1u +   1B2g +   1B3g +   0Au  )


 NUCLEAR REPULSION ENERGY    0.00000000

 EXTRA SYMMETRY OF AOS IN SYMMETRY 1:   1 1 1 1 1 1 1 1 1 1   1 1 1 1 1 1 1 1 1 1   1 1 1 1 1 1 1 1 1 1   1 1 1 1 1 1 1 2 3 2
                                        3 2 3 2 3 2 3 2 3 2   3 2 3 2 3 2 3 2 3 2   3 2 3 2 3 2 3 2 3 2   3 2 3 2 3 2 3 2 3 2
                                        3 4 5 6 4 5 6 4 5 6
 EXTRA SYMMETRY OF AOS IN SYMMETRY 2:   1 1 1 1 1 1 1 1 1 1   1 1 1 1 1 1 1 1 1 1   1 1 1 1 1 1 1 1 1 1   1 1 2 3 2 3 2 3 2 3
                                        2 3 2 3 2 3 2 3 2 3   2 3 2 3 2 3 2 3 2 3   2 3
 EXTRA SYMMETRY OF AOS IN SYMMETRY 3:   1 1 1 1 1 1 1 1 1 1   1 1 1 1 1 1 1 1 1 1   1 1 1 1 1 1 1 1 1 1   1 1 2 3 2 3 2 3 2 3
                                        2 3 2 3 2 3 2 3 2 3   2 3 2 3 2 3 2 3 2 3   2 3
 EXTRA SYMMETRY OF AOS IN SYMMETRY 4:   1 1 1 1 1 1 1 1 1 1   1 1 1 1 1 1 1 1 1 1   1 1 2 3 2 3 2 3
 EXTRA SYMMETRY OF AOS IN SYMMETRY 5:   1 1 1 1 1 1 1 1 1 1   1 1 1 1 1 1 1 1 1 1   1 1 1 1 1 1 1 1 1 1   1 1 2 3 2 3 2 3 2 3
                                        2 3 2 3 2 3 2 3 2 3   2 3 2 3 2 3 2 3 2 3   2 3
 EXTRA SYMMETRY OF AOS IN SYMMETRY 6:   1 1 1 1 1 1 1 1 1 1   1 1 1 1 1 1 1 1 1 1   1 1 2 3 2 3 2 3
 EXTRA SYMMETRY OF AOS IN SYMMETRY 7:   1 1 1 1 1 1 1 1 1 1   1 1 1 1 1 1 1 1 1 1   1 1 2 3 2 3 2 3

 Eigenvalues of metric

         1 0.363E-06 0.805E-06 0.805E-06 0.149E-05 0.510E-05 0.203E-04 0.268E-04 0.268E-04
         2 0.172E-06 0.514E-05 0.116E-04 0.547E-04 0.547E-04 0.564E-04 0.176E-03 0.520E-03
         3 0.172E-06 0.514E-05 0.116E-04 0.547E-04 0.547E-04 0.564E-04 0.176E-03 0.520E-03
         4 0.805E-06 0.268E-04 0.166E-03 0.629E-03 0.214E-02 0.643E-02 0.130E-01 0.130E-01
         5 0.172E-06 0.514E-05 0.116E-04 0.547E-04 0.547E-04 0.564E-04 0.176E-03 0.520E-03
         6 0.805E-06 0.268E-04 0.166E-03 0.629E-03 0.214E-02 0.643E-02 0.130E-01 0.130E-01
         7 0.805E-06 0.268E-04 0.166E-03 0.629E-03 0.214E-02 0.643E-02 0.130E-01 0.130E-01
         8 0.547E-04 0.993E-03 0.560E-02 0.134E-01 0.354E-01 0.839E-01 0.163E+00 0.306E+00


 Contracted 2-electron integrals neglected if value below      1.0D-15

 Warning: maximum contribution to expansion of local PP integrals   0.5D+07
 AO integral compression algorithm  1   Integral accuracy      1.0D-15

     2626.421 MB (compressed) written to integral file ( 50.1%)

     Node minimum: 111.935 MB, node maximum: 374.866 MB


 NUMBER OF SORTED TWO-ELECTRON INTEGRALS:   29129504.     BUFFER LENGTH:  32768
 NUMBER OF SEGMENTS:   1  SEGMENT LENGTH:   29129504      RECORD LENGTH: 524288

 Memory used in sort:      29.69 MW

 SORT1 READ   655738417. AND WROTE    18766498. INTEGRALS IN     54 RECORDS. CPU TIME:    21.61 SEC, REAL TIME:    23.49 SEC
 SORT2 READ   205938057. AND WROTE   321160446. INTEGRALS IN  11440 RECORDS. CPU TIME:     3.00 SEC, REAL TIME:     3.60 SEC

 Node minimum:    29101769.  Node maximum:    29307080. integrals

 OPERATOR DM      FOR CENTER  0  COORDINATES:    0.000000    0.000000    0.000000


 **********************************************************************************************************************************
 DATASETS  * FILE   NREC   LENGTH (MB)   RECORD NAMES
              1      19       20.93       500      610      700      900      950      970     1000      129      960     1100   
                                          VAR    BASINP    GEOM    SYMINP    ZMAT    AOBASIS   BASIS     P2S    ABASIS      S 
                                         1400     1410     1420     1200     1210     1080     1600     1650     1700   
                                           T        V       ECP      H0       H01     AOSYM     SMH    MOLCAS    OPER   

 PROGRAMS   *        TOTAL       INT
 CPU TIMES  *       132.95    132.73
 REAL TIME  *       142.42 SEC
 DISK USED  *         5.11 GB      
 GA USED    *         0.00 MB       (max)       0.00 MB       (current)
 **********************************************************************************************************************************


 PROGRAM * RHF-SCF (OPEN SHELL)       Authors: W. Meyer, H.-J. Werner


 NUMBER OF ELECTRONS:      10+    7-    SPACE SYMMETRY=1    SPIN SYMMETRY: Quartet 
 CONVERGENCE THRESHOLDS:    1.00E-05 (Density)    1.00E-07 (Energy)
 MAX. NUMBER OF ITERATIONS:       60
 INTERPOLATION TYPE:            DIIS
 INTERPOLATION STEPS:              2 (START)      1 (STEP)
 LEVEL SHIFTS:                 -2.00 (CLOSED) -1.00 (OPEN) 

 Number of closed-shell orbitals:    7 (   4   1   1   0   1   0   0   0 )
 Number of open-shell orbitals:      3 (   0   0   0   1   0   1   1   0 )


 
 Extra symmetries of mos in symmetry 1:   1   1   3   2
 Orbital guess generated from atomic densities. Full valence occupancy:    4   1   1   1   1   1   1   0


 Molecular orbital dump at record        4202.2

 ITERATION    DDIFF          GRAD             ENERGY        2-EL.EN.            DIPOLE MOMENTS         DIIS   ORB.
    1      0.000D+00      0.000D+00      -103.77677423    153.322738    0.00000    0.00000    0.00000    0    start
    2      0.000D+00      0.357D-02      -103.78100891    153.163964    0.00000    0.00000    0.00000    1    diag,B
    3      0.187D-02      0.140D-02      -103.78249292    153.190229    0.00000    0.00000    0.00000    2    diag,B
    4      0.161D-02      0.530D-03      -103.78294503    153.221431    0.00000    0.00000    0.00000    3    diag,B
    5      0.608D-03      0.314D-03      -103.78318350    153.207708    0.00000    0.00000    0.00000    4    diag,B
    6      0.109D-02      0.160D-03      -103.78324187    153.173471    0.00000    0.00000    0.00000    5    diag,B
    7      0.101D-02      0.963D-04      -103.78326776    153.144829    0.00000    0.00000    0.00000    6    diag,B
    8      0.338D-03      0.560D-04      -103.78327779    153.127569    0.00000    0.00000    0.00000    7    diag,B
    9      0.567D-03      0.265D-04      -103.78327966    153.123473    0.00000    0.00000    0.00000    8    diag,B
   10      0.331D-03      0.142D-04      -103.78328013    153.123094    0.00000    0.00000    0.00000    9    orth
   11      0.766D-04      0.103D-04      -103.78328044    153.122713    0.00000    0.00000    0.00000   10    diag,B
   12      0.404D-04      0.638D-05      -103.78328059    153.121951    0.00000    0.00000    0.00000   11    diag,B
   13      0.604D-04      0.317D-05      -103.78328062    153.121476    0.00000    0.00000    0.00000   12    diag,B
   14      0.313D-04      0.151D-05      -103.78328062    153.121234    0.00000    0.00000    0.00000   13    diag,B
   15      0.166D-04      0.846D-06      -103.78328062    153.121207    0.00000    0.00000    0.00000   14    diag,B
   16      0.393D-05      0.204D-05      -103.78328062    153.121197    0.00000    0.00000    0.00000    0    orth

 Final alpha occupancy:   4   1   1   1   1   1   1   0
 Final beta  occupancy:   4   1   1   0   1   0   0   0

 !RHF STATE 1.1 Energy               -103.783280621400
 Nuclear energy                         0.00000000
 One-electron energy                 -180.34387891
 Two-electron energy                   76.56059829
 Virial quotient                       -2.97263073
 !RHF STATE 1.1 Dipole moment           0.00000000     0.00000000     0.00000000
 Dipole moment /Debye                   0.00000000     0.00000000     0.00000000

 ELECTRON ORBITALS
 =================


   Orb  Occ    Energy  Couls-En    Coefficients

                                   1 1s      1 1s      1 1s      1 1s      1 1s      1 1s      1 1s      1 1s      1 1s      1 1s   
                                   1 1s      1 1s      1 1s      1 1s      1 1s      1 1s      1 1s      1 1s      1 1s      1 1s   
                                   1 1s      1 1s      1 1s      1 1s      1 1s      1 1s      1 1s      1 1s      1 1s      1 1s   
                                   1 1s      1 1s      1 1s      1 1s      1 1s      1 1s      1 1s      1 3d0     1 3d2+    1 3d0  
                                   1 3d2+    1 3d0     1 3d2+    1 3d0     1 3d2+    1 3d0     1 3d2+    1 3d0     1 3d2+    1 3d0  
                                   1 3d2+    1 3d0     1 3d2+    1 3d0     1 3d2+    1 3d0     1 3d2+    1 3d0     1 3d2+    1 3d0  
                                   1 3d2+    1 3d0     1 3d2+    1 3d0     1 3d2+    1 3d0     1 3d2+    1 3d0     1 3d2+    1 3d0  
                                   1 3d2+    1 3d0     1 3d2+    1 3d0     1 3d2+    1 3d0     1 3d2+    1 3d0     1 3d2+    1 3d0  
                                   1 3d2+    1 5g0     1 5g4+    1 5g2+    1 5g0     1 5g4+    1 5g2+    1 5g0     1 5g4+    1 5g2+ 


   1.1   2    -4.2401  -18.8989 -0.000000  0.000000 -0.000000  0.000000 -0.000000  0.000000 -0.000000  0.000000 -0.000000  0.000000
                                -0.000000  0.000001 -0.000002  0.000005 -0.000015  0.000055 -0.000410  0.000887 -0.000864  0.000874
                                -0.001670  0.004277 -0.015530  0.127615 -0.370906  0.340202  0.183887 -0.797269 -0.011520 -0.102857
                                 0.867227  0.024213  0.511510  0.033533 -0.009468  0.003533 -0.000929  0.000000 -0.000000 -0.000000
                                 0.000000  0.000000 -0.000000 -0.000000  0.000000  0.000000 -0.000000 -0.000000  0.000000  0.000000
                                -0.000000 -0.000000 -0.000000  0.000000  0.000000 -0.000000 -0.000000  0.000001  0.000001 -0.000005
                                -0.000004  0.000021  0.000019 -0.000027 -0.000026  0.000018  0.000019 -0.000009 -0.000010  0.000002
                                 0.000002 -0.000002 -0.000002  0.000001  0.000001 -0.000000 -0.000000  0.000000  0.000000 -0.000000
                                -0.000000  0.000460  0.000389  0.000000 -0.000936 -0.000791 -0.000000  0.001687  0.001426  0.000000

   2.1   2    -0.2973   -6.2663  0.000000 -0.000000  0.000000 -0.000000  0.000000 -0.000000  0.000000 -0.000000  0.000000 -0.000000
                                 0.000000 -0.000000  0.000001 -0.000002  0.000005 -0.000018  0.000132 -0.000286  0.000278 -0.000282
                                 0.000540 -0.001390  0.005100 -0.042903  0.127180 -0.119686 -0.060906  0.299613 -0.017351  0.053369
                                -0.419122 -0.015996 -0.354739  0.274909  0.659622  0.291596  0.002121  0.000000  0.000000 -0.000000
                                -0.000000  0.000000  0.000000 -0.000000 -0.000000  0.000000  0.000000 -0.000000 -0.000000  0.000000
                                 0.000000 -0.000000 -0.000000  0.000000  0.000000 -0.000000 -0.000000  0.000000  0.000000 -0.000000
                                -0.000000 -0.000000  0.000000  0.000000 -0.000000 -0.000000  0.000000  0.000000 -0.000000 -0.000000
                                 0.000000  0.000000 -0.000000 -0.000000  0.000000 -0.000000  0.000000 -0.000000  0.000000 -0.000000
                                 0.000000  0.000596  0.000504 -0.000000 -0.000063 -0.000053  0.000000  0.000346  0.000293 -0.000000

   3.1   2    -0.4575   -9.5409 -0.000000  0.000000  0.000000 -0.000000  0.000000 -0.000000  0.000000 -0.000000  0.000000 -0.000000
                                 0.000000 -0.000000  0.000000 -0.000000  0.000000 -0.000000  0.000000 -0.000000  0.000000 -0.000000
                                 0.000000 -0.000000  0.000000 -0.000000  0.000001 -0.000001  0.000000 -0.000001  0.000004 -0.000005
                                 0.000003 -0.000005  0.000004 -0.000002  0.000003 -0.000002  0.000001 -0.000000 -0.000000  0.000000
                                 0.000000 -0.000000 -0.000000  0.000000  0.000000 -0.000000 -0.000000  0.000000  0.000000  0.000000
                                 0.000000 -0.000002 -0.000003  0.000014  0.000019 -0.000104 -0.000146  0.000838  0.001181 -0.007074
                                -0.009967 -0.015179 -0.021414  0.054821  0.077297  0.009954  0.014012 -0.014439 -0.020342 -0.146765
                                -0.206871 -0.003799 -0.005350 -0.228923 -0.322677 -0.203148 -0.286340 -0.104280 -0.146985 -0.017728
                                -0.024990 -0.000425  0.000504  0.000929  0.000650 -0.000770 -0.001420 -0.000680  0.000805  0.001485

   4.1   2    -0.4575   -9.5409 -0.000000  0.000000  0.000000 -0.000000  0.000000 -0.000000  0.000000 -0.000000  0.000000 -0.000000
                                 0.000000 -0.000000  0.000000 -0.000000  0.000000 -0.000000  0.000000  0.000000 -0.000000  0.000000
                                -0.000000  0.000000 -0.000000  0.000000 -0.000001  0.000000 -0.000001  0.000002 -0.000009  0.000010
                                -0.000007  0.000009 -0.000005  0.000001 -0.000001 -0.000000  0.000001  0.000000 -0.000000 -0.000000
                                 0.000000  0.000000 -0.000000 -0.000000  0.000000  0.000000 -0.000000 -0.000000  0.000000 -0.000000
                                 0.000000  0.000003 -0.000002 -0.000019  0.000014  0.000146 -0.000104 -0.001181  0.000838  0.009968
                                -0.007073  0.021408 -0.015185 -0.077289  0.054829 -0.014017  0.009949  0.020344 -0.014437  0.206870
                                -0.146766  0.005352 -0.003797  0.322675 -0.228925  0.286341 -0.203147  0.146986 -0.104281  0.024990
                                -0.017728  0.000600 -0.000710  0.000659 -0.000916  0.001085 -0.001008  0.000959 -0.001135  0.001054

   5.1   0     0.0343   -1.9549  0.000000 -0.000000  0.000000 -0.000000  0.000000 -0.000000  0.000000 -0.000000  0.000000 -0.000000
                                 0.000000 -0.000001  0.000002 -0.000005  0.000015 -0.000056  0.000412 -0.000887  0.000858 -0.000849
                                 0.001552 -0.003611  0.010560 -0.054813  0.124767 -0.119302  0.130563 -0.359239  1.117631 -1.257727
                                 1.004671 -1.724282  1.439627 -0.629927  0.916250 -2.338889  2.332408 -0.000000 -0.000000  0.000000
                                 0.000000 -0.000000 -0.000000  0.000000  0.000000 -0.000000 -0.000000  0.000000  0.000000 -0.000000
                                -0.000000  0.000000  0.000000 -0.000000 -0.000000  0.000000  0.000000 -0.000000 -0.000000  0.000001
                                 0.000001 -0.000004 -0.000004  0.000006  0.000007 -0.000007 -0.000007  0.000005  0.000005 -0.000002
                                -0.000002  0.000003  0.000003 -0.000002 -0.000002  0.000000  0.000000 -0.000001 -0.000001  0.000001
                                 0.000001  0.000294  0.000248 -0.000000 -0.001024 -0.000866  0.000000  0.001329  0.001123 -0.000000

   6.1   0     0.1869   -2.8198 -0.000000  0.000000 -0.000000  0.000000 -0.000000  0.000000 -0.000000  0.000000 -0.000000  0.000000
                                -0.000001  0.000003 -0.000008  0.000021 -0.000063  0.000228 -0.001689  0.003640 -0.003525  0.003498
                                -0.006427  0.015149 -0.045786  0.261302 -0.637398  0.607184 -0.390155  0.884801 -4.080626  4.547408
                                -3.108252  6.520054 -4.907462  2.070724 -5.158052  5.631942 -2.194471 -0.000000 -0.000000  0.000000
                                 0.000000 -0.000000 -0.000000  0.000000  0.000000 -0.000000 -0.000000  0.000000  0.000000 -0.000000
                                -0.000000  0.000000  0.000000 -0.000000 -0.000000  0.000000  0.000000 -0.000000 -0.000000  0.000000
                                 0.000001 -0.000002 -0.000004  0.000003  0.000006 -0.000003 -0.000007  0.000002  0.000005 -0.000001
                                -0.000003  0.000002  0.000006 -0.000002 -0.000006  0.000000  0.000001 -0.000001 -0.000002  0.000001
                                 0.000005  0.000689  0.000582 -0.000000 -0.002424 -0.002049  0.000000  0.003236  0.002735 -0.000000

                                   1 2px     1 2px     1 2px     1 2px     1 2px     1 2px     1 2px     1 2px     1 2px     1 2px  
                                   1 2px     1 2px     1 2px     1 2px     1 2px     1 2px     1 2px     1 2px     1 2px     1 2px  
                                   1 2px     1 2px     1 2px     1 2px     1 2px     1 2px     1 2px     1 2px     1 2px     1 2px  
                                   1 2px     1 2px     1 4f1+    1 4f3+    1 4f1+    1 4f3+    1 4f1+    1 4f3+    1 4f1+    1 4f3+ 
                                   1 4f1+    1 4f3+    1 4f1+    1 4f3+    1 4f1+    1 4f3+    1 4f1+    1 4f3+    1 4f1+    1 4f3+ 
                                   1 4f1+    1 4f3+    1 4f1+    1 4f3+    1 4f1+    1 4f3+    1 4f1+    1 4f3+    1 4f1+    1 4f3+ 
                                   1 4f1+    1 4f3+ 

   1.2   2    -2.4572  -14.9952 -0.000000  0.000000 -0.000000  0.000000 -0.000000  0.000000 -0.000000  0.000000 -0.000001  0.000002
                                -0.000007  0.000026 -0.000168  0.000613 -0.000685  0.000510 -0.000814  0.001591 -0.003052 -0.002211
                                 0.078082 -0.268759  0.096694 -0.256028  0.115954  0.329526  0.555920  0.015625  0.264165  0.030821
                                -0.000605  0.000530  0.000000 -0.000000 -0.000000  0.000000  0.000000 -0.000000 -0.000000  0.000000
                                -0.000000  0.000000 -0.000015  0.000019 -0.000036  0.000046 -0.000071  0.000092 -0.000037  0.000048
                                -0.000587  0.000758 -0.000589  0.000760 -0.001676  0.002164 -0.001475  0.001904 -0.001419  0.001831
                                -0.000503  0.000649

   2.2   0     0.0350   -3.3721 -0.000000  0.000000 -0.000000  0.000000 -0.000000  0.000000 -0.000000  0.000000 -0.000001  0.000003
                                -0.000009  0.000034 -0.000220  0.000801 -0.000892  0.000656 -0.001026  0.001961 -0.004274  0.012164
                                -0.052545  0.437026 -0.748209  1.205188 -1.273311  0.614565 -0.750033  0.860274 -0.598997  0.372667
                                -0.171337  1.013706  0.000000 -0.000000 -0.000000  0.000000  0.000000 -0.000000 -0.000001  0.000001
                                 0.000002 -0.000003 -0.000006  0.000007  0.000011 -0.000014 -0.000041  0.000054  0.000322 -0.000416
                                -0.000863  0.001114  0.001084 -0.001399 -0.001388  0.001792  0.001346 -0.001738 -0.000200  0.000258
                                 0.001632 -0.002107

   3.2   0     0.1641   -3.4226  0.000000 -0.000000  0.000000 -0.000000  0.000000 -0.000000  0.000000 -0.000001  0.000003 -0.000012
                                 0.000040 -0.000157  0.001011 -0.003677  0.004094 -0.003019  0.004740 -0.009103  0.019558 -0.046538
                                 0.140043 -1.476107  2.852631 -4.519774  4.906518 -2.753153  2.409666 -3.525789  2.223354 -0.960300
                                 2.296469 -1.573750  0.000000 -0.000000 -0.000000  0.000000  0.000000 -0.000000 -0.000001  0.000001
                                 0.000003 -0.000004 -0.000008  0.000011  0.000018 -0.000023 -0.000061  0.000079  0.000486 -0.000627
                                -0.001289  0.001664  0.001634 -0.002110 -0.001999  0.002581  0.002026 -0.002616 -0.000073  0.000095
                                 0.002712 -0.003501

                                   1 2py     1 2py     1 2py     1 2py     1 2py     1 2py     1 2py     1 2py     1 2py     1 2py  
                                   1 2py     1 2py     1 2py     1 2py     1 2py     1 2py     1 2py     1 2py     1 2py     1 2py  
                                   1 2py     1 2py     1 2py     1 2py     1 2py     1 2py     1 2py     1 2py     1 2py     1 2py  
                                   1 2py     1 2py     1 4f1-    1 4f3-    1 4f1-    1 4f3-    1 4f1-    1 4f3-    1 4f1-    1 4f3- 
                                   1 4f1-    1 4f3-    1 4f1-    1 4f3-    1 4f1-    1 4f3-    1 4f1-    1 4f3-    1 4f1-    1 4f3- 
                                   1 4f1-    1 4f3-    1 4f1-    1 4f3-    1 4f1-    1 4f3-    1 4f1-    1 4f3-    1 4f1-    1 4f3- 
                                   1 4f1-    1 4f3- 

   1.3   2    -2.4572  -14.9952 -0.000000  0.000000 -0.000000  0.000000 -0.000000  0.000000 -0.000000  0.000000 -0.000001  0.000002
                                -0.000007  0.000026 -0.000168  0.000613 -0.000685  0.000510 -0.000814  0.001591 -0.003052 -0.002211
                                 0.078082 -0.268759  0.096693 -0.256027  0.115953  0.329526  0.555920  0.015626  0.264165  0.030821
                                -0.000605  0.000530  0.000000  0.000000 -0.000000 -0.000000  0.000000  0.000000 -0.000000 -0.000000
                                -0.000000 -0.000000 -0.000015 -0.000019 -0.000036 -0.000046 -0.000071 -0.000092 -0.000037 -0.000048
                                -0.000587 -0.000758 -0.000589 -0.000760 -0.001676 -0.002164 -0.001475 -0.001904 -0.001419 -0.001831
                                -0.000503 -0.000649

   2.3   0     0.0350   -3.3721 -0.000000  0.000000 -0.000000  0.000000 -0.000000  0.000000 -0.000000  0.000000 -0.000001  0.000003
                                -0.000009  0.000034 -0.000220  0.000801 -0.000892  0.000656 -0.001026  0.001961 -0.004274  0.012164
                                -0.052545  0.437026 -0.748208  1.205186 -1.273309  0.614564 -0.750032  0.860272 -0.598997  0.372667
                                -0.171336  1.013705  0.000000  0.000000 -0.000000 -0.000000  0.000000  0.000000 -0.000001 -0.000001
                                 0.000002  0.000003 -0.000006 -0.000007  0.000011  0.000014 -0.000041 -0.000054  0.000322  0.000416
                                -0.000863 -0.001114  0.001083  0.001399 -0.001388 -0.001791  0.001346  0.001738 -0.000200 -0.000258
                                 0.001632  0.002107

   3.3   0     0.1641   -3.4226  0.000000 -0.000000  0.000000 -0.000000  0.000000 -0.000000  0.000000 -0.000001  0.000003 -0.000012
                                 0.000040 -0.000157  0.001011 -0.003677  0.004094 -0.003019  0.004740 -0.009103  0.019558 -0.046538
                                 0.140043 -1.476107  2.852631 -4.519774  4.906518 -2.753153  2.409666 -3.525789  2.223354 -0.960300
                                 2.296469 -1.573750  0.000000  0.000000 -0.000000 -0.000000  0.000000  0.000000 -0.000001 -0.000001
                                 0.000003  0.000004 -0.000008 -0.000011  0.000018  0.000023 -0.000061 -0.000079  0.000486  0.000627
                                -0.001289 -0.001664  0.001634  0.002110 -0.001999 -0.002581  0.002026  0.002616 -0.000073 -0.000094
                                 0.002712  0.003501

                                   1 3d2-    1 3d2-    1 3d2-    1 3d2-    1 3d2-    1 3d2-    1 3d2-    1 3d2-    1 3d2-    1 3d2- 
                                   1 3d2-    1 3d2-    1 3d2-    1 3d2-    1 3d2-    1 3d2-    1 3d2-    1 3d2-    1 3d2-    1 3d2- 
                                   1 3d2-    1 3d2-    1 5g2-    1 5g4-    1 5g2-    1 5g4-    1 5g2-    1 5g4- 

   1.4   +    -0.5247   -9.7004  0.000000 -0.000000  0.000000 -0.000000  0.000000 -0.000000  0.000001  0.000001 -0.000018  0.000167
                                -0.001420  0.012058  0.028465 -0.098686 -0.014204  0.021451  0.258776  0.005434  0.410005  0.352014
                                 0.159854  0.020405  0.001459 -0.000000 -0.001752  0.000000  0.003314 -0.000000

   2.4   0     0.1966   -2.8824 -0.000000  0.000001 -0.000003  0.000015 -0.000060  0.000202 -0.000594  0.001561 -0.003831  0.009537
                                -0.028288  0.158775 -0.876579  1.353046 -1.440213  1.082584 -0.736623  1.625633 -1.537976  0.446840
                                -0.672706  1.327770 -0.000137  0.000000 -0.000006 -0.000000 -0.000332  0.000000

   3.4   0     0.6634   -3.6404  0.000000 -0.000002  0.000010 -0.000046  0.000182 -0.000617  0.001819 -0.004785  0.011768 -0.029453
                                 0.088516 -0.502845  2.676741 -4.075676  4.489262 -3.401467  2.030463 -5.254561  4.528019 -1.997727
                                 2.474645 -1.049080 -0.000008 -0.000000 -0.000835  0.000000 -0.000044  0.000000

                                   1 2pz     1 2pz     1 2pz     1 2pz     1 2pz     1 2pz     1 2pz     1 2pz     1 2pz     1 2pz  
                                   1 2pz     1 2pz     1 2pz     1 2pz     1 2pz     1 2pz     1 2pz     1 2pz     1 2pz     1 2pz  
                                   1 2pz     1 2pz     1 2pz     1 2pz     1 2pz     1 2pz     1 2pz     1 2pz     1 2pz     1 2pz  
                                   1 2pz     1 2pz     1 4f0     1 4f2+    1 4f0     1 4f2+    1 4f0     1 4f2+    1 4f0     1 4f2+ 
                                   1 4f0     1 4f2+    1 4f0     1 4f2+    1 4f0     1 4f2+    1 4f0     1 4f2+    1 4f0     1 4f2+ 
                                   1 4f0     1 4f2+    1 4f0     1 4f2+    1 4f0     1 4f2+    1 4f0     1 4f2+    1 4f0     1 4f2+ 
                                   1 4f0     1 4f2+ 

   1.5   2    -2.4572  -14.9952 -0.000000  0.000000 -0.000000  0.000000 -0.000000  0.000000 -0.000000  0.000000 -0.000001  0.000002
                                -0.000007  0.000026 -0.000168  0.000613 -0.000685  0.000510 -0.000814  0.001591 -0.003052 -0.002211
                                 0.078081 -0.268757  0.096691 -0.256024  0.115951  0.329527  0.555920  0.015625  0.264165  0.030821
                                -0.000605  0.000530 -0.000000  0.000000  0.000000 -0.000000 -0.000000  0.000000  0.000000 -0.000000
                                 0.000001  0.000000  0.000024 -0.000000  0.000059  0.000000  0.000116 -0.000000  0.000061  0.000000
                                 0.000959 -0.000000  0.000962  0.000000  0.002738 -0.000000  0.002408  0.000000  0.002317 -0.000000
                                 0.000821  0.000000

   2.5   0     0.0350   -3.3721 -0.000000  0.000000 -0.000000  0.000000 -0.000000  0.000000 -0.000000  0.000000 -0.000001  0.000003
                                -0.000009  0.000034 -0.000220  0.000801 -0.000892  0.000656 -0.001026  0.001961 -0.004274  0.012164
                                -0.052545  0.437026 -0.748209  1.205187 -1.273310  0.614564 -0.750032  0.860273 -0.598997  0.372667
                                -0.171336  1.013705 -0.000000  0.000000  0.000000 -0.000000 -0.000000 -0.000000  0.000001  0.000000
                                -0.000003 -0.000000  0.000009 -0.000000 -0.000017  0.000000  0.000068 -0.000000 -0.000526  0.000000
                                 0.001410 -0.000000 -0.001769  0.000000  0.002266 -0.000000 -0.002199  0.000000  0.000327 -0.000000
                                -0.002665  0.000000

   3.5   0     0.1641   -3.4226  0.000000 -0.000000  0.000000 -0.000000  0.000000 -0.000000  0.000000 -0.000001  0.000003 -0.000012
                                 0.000040 -0.000157  0.001011 -0.003677  0.004094 -0.003019  0.004740 -0.009103  0.019558 -0.046538
                                 0.140043 -1.476107  2.852631 -4.519775  4.906519 -2.753153  2.409667 -3.525790  2.223355 -0.960300
                                 2.296469 -1.573750 -0.000000 -0.000000  0.000000  0.000000 -0.000000 -0.000000  0.000002  0.000000
                                -0.000005 -0.000000  0.000014  0.000000 -0.000029 -0.000000  0.000100  0.000000 -0.000794 -0.000000
                                 0.002105  0.000000 -0.002669 -0.000000  0.003265  0.000000 -0.003309 -0.000000  0.000120  0.000000
                                -0.004429 -0.000000

                                   1 3d1+    1 3d1+    1 3d1+    1 3d1+    1 3d1+    1 3d1+    1 3d1+    1 3d1+    1 3d1+    1 3d1+ 
                                   1 3d1+    1 3d1+    1 3d1+    1 3d1+    1 3d1+    1 3d1+    1 3d1+    1 3d1+    1 3d1+    1 3d1+ 
                                   1 3d1+    1 3d1+    1 5g1+    1 5g3+    1 5g1+    1 5g3+    1 5g1+    1 5g3+ 

   1.6   +    -0.5247   -9.7004  0.000000 -0.000000  0.000000 -0.000000  0.000000 -0.000000  0.000001  0.000001 -0.000018  0.000167
                                -0.001420  0.012058  0.028465 -0.098686 -0.014204  0.021451  0.258776  0.005434  0.410005  0.352014
                                 0.159854  0.020405 -0.000516 -0.001365  0.000619  0.001639 -0.001172 -0.003100

   2.6   0     0.1966   -2.8824 -0.000000  0.000001 -0.000003  0.000015 -0.000060  0.000202 -0.000594  0.001561 -0.003831  0.009537
                                -0.028288  0.158775 -0.876579  1.353046 -1.440213  1.082584 -0.736623  1.625633 -1.537976  0.446840
                                -0.672706  1.327770  0.000048  0.000128  0.000002  0.000005  0.000117  0.000310

   3.6   0     0.6634   -3.6404  0.000000 -0.000002  0.000010 -0.000046  0.000182 -0.000617  0.001819 -0.004785  0.011768 -0.029453
                                 0.088516 -0.502845  2.676741 -4.075676  4.489262 -3.401467  2.030463 -5.254561  4.528019 -1.997727
                                 2.474645 -1.049080  0.000003  0.000007  0.000295  0.000781  0.000015  0.000041

                                   1 3d1-    1 3d1-    1 3d1-    1 3d1-    1 3d1-    1 3d1-    1 3d1-    1 3d1-    1 3d1-    1 3d1- 
                                   1 3d1-    1 3d1-    1 3d1-    1 3d1-    1 3d1-    1 3d1-    1 3d1-    1 3d1-    1 3d1-    1 3d1- 
                                   1 3d1-    1 3d1-    1 5g1-    1 5g3-    1 5g1-    1 5g3-    1 5g1-    1 5g3- 

   1.7   +    -0.5247   -9.7004  0.000000 -0.000000  0.000000 -0.000000  0.000000 -0.000000  0.000001  0.000001 -0.000018  0.000167
                                -0.001420  0.012058  0.028465 -0.098685 -0.014204  0.021451  0.258776  0.005434  0.410005  0.352014
                                 0.159854  0.020405 -0.000516  0.001365  0.000619 -0.001639 -0.001172  0.003100

   2.7   0     0.1966   -2.8824 -0.000000  0.000001 -0.000003  0.000015 -0.000060  0.000202 -0.000594  0.001561 -0.003831  0.009537
                                -0.028288  0.158775 -0.876579  1.353046 -1.440213  1.082584 -0.736623  1.625633 -1.537976  0.446840
                                -0.672706  1.327770  0.000048 -0.000128  0.000002 -0.000005  0.000117 -0.000310

   3.7   0     0.6634   -3.6404  0.000000 -0.000002  0.000010 -0.000046  0.000182 -0.000617  0.001819 -0.004785  0.011768 -0.029453
                                 0.088516 -0.502845  2.676741 -4.075676  4.489262 -3.401467  2.030463 -5.254561  4.528019 -1.997727
                                 2.474645 -1.049080  0.000003 -0.000007  0.000295 -0.000781  0.000015 -0.000041

                                   1 4f2-    1 4f2-    1 4f2-    1 4f2-    1 4f2-    1 4f2-    1 4f2-    1 4f2-    1 4f2-    1 4f2- 
                                   1 4f2-    1 4f2-    1 4f2-    1 4f2-    1 4f2- 

   1.8   0     0.5745   -3.4935  0.000012 -0.000078  0.000359 -0.001276  0.003758 -0.009620  0.025838 -0.074492  0.482414 -1.247522
                                 2.080501 -2.292734  2.123069 -1.585807  1.503017

   2.8   0     1.2850   -3.8498 -0.000022  0.000148 -0.000682  0.002426 -0.007073  0.019515 -0.046051  0.150861 -0.930506  2.449276
                                -4.053822  4.714512 -4.185002  3.793515 -1.387524

 HOMO      4.1    -0.457536 =     -12.4502eV
 LUMO      5.1     0.034341 =       0.9345eV
 LUMO-HOMO         0.491877 =      13.3847eV


 **********************************************************************************************************************************
 DATASETS  * FILE   NREC   LENGTH (MB)   RECORD NAMES
              1      19       20.98       500      610      700      900      950      970     1000      129      960     1100   
                                          VAR    BASINP    GEOM    SYMINP    ZMAT    AOBASIS   BASIS     P2S    ABASIS      S 
                                         1400     1410     1420     1200     1210     1080     1600     1650     1700   
                                           T        V       ECP      H0       H01     AOSYM     SMH    MOLCAS    OPER   

              2       4        3.43       700     1000      520     4202   
                                         GEOM     BASIS   MCVARS     RHF  

 PROGRAMS   *        TOTAL       RHF       INT
 CPU TIMES  *       135.18      2.23    132.73
 REAL TIME  *       145.04 SEC
 DISK USED  *         5.51 GB      
 SF USED    *         0.09 MB      
 GA USED    *         0.00 MB       (max)       0.00 MB       (current)
 **********************************************************************************************************************************
 SETTING SCF(I)         =      -103.78328062  AU                              
 SETTING _CC_NORM_MAX   =         2.00000000                                  


 PROGRAM * CCSD (Restricted open-shell coupled cluster)     Authors: C. Hampel, H.-J. Werner, 1991, M. Deegan, P.J. Knowles, 1992


 Convergence thresholds:  THRVAR = 1.00D-08  THRDEN = 1.00D-06

 CCSD(T)     terms to be evaluated (factor= 1.000)


 Number of closed-shell orbitals:   7 (   4   1   1   0   1   0   0   0 )
 Number of active  orbitals:        3 (   0   0   0   1   0   1   1   0 )
 Number of external orbitals:     365 (  86  61  61  27  61  27  27  15 )

 Memory could be reduced to 110.89 Mwords without degradation in triples

 Number of N-1 electron functions:              17
 Number of N-2 electron functions:             136
 Number of singly external CSFs:              1138
 Number of doubly external CSFs:           1847494
 Total number of CSFs:                     1848632

 Molecular orbitals read from record     4202.2  Type=RHF/CANONICAL (state 1.1)

 Integral transformation finished. Total CPU:   2.27 sec, npass=  1  Memory used:  20.21 MW

 Starting RMP2 calculation

 Wavefunction is spin-projected

 ITER.      SQ.NORM     CORR.ENERGY   TOTAL ENERGY   ENERGY CHANGE        DEN1      VAR(S)    VAR(P)  DIIS     TIME
   1      1.13872802    -0.60159387  -104.38487450    -0.60159387    -0.00136561  0.10D-04  0.80D-03  1  1     3.87
   2      1.14077430    -0.60306281  -104.38634343    -0.00146893    -0.00000865  0.38D-07  0.79D-05  2  2     4.82
   3      1.14096304    -0.60313951  -104.38642013    -0.00007671    -0.00000004  0.18D-09  0.41D-07  3  3     5.77
   4      1.14097030    -0.60314107  -104.38642169    -0.00000156    -0.00000000  0.48D-11  0.19D-09  4  4     6.86
   5      1.14097034    -0.60314105  -104.38642168     0.00000001    -0.00000000  0.12D-12  0.92D-12  5  5     8.02

 Norm of t1 vector:      0.04723811      S-energy:    -0.00654882      T1 diagnostic:  0.00014722
 Norm of t2 vector:      0.37247671      P-energy:    -0.59659224
                                         Alpha-Beta:  -0.41636514
                                         Alpha-Alpha: -0.12249456
                                         Beta-Beta:   -0.05773253

 Spin contamination <S**2-Sz**2-Sz>     0.00000000
  Reference energy                   -103.783280621399
  RHF-RMP2 correlation energy          -0.603141054778
 !RHF-RMP2 energy                    -104.386421676177
 (NB above energy spin projected)

 Starting RCCSD calculation

 ITER.      SQ.NORM     CORR.ENERGY   TOTAL ENERGY   ENERGY CHANGE        DEN1      VAR(S)    VAR(P)  DIIS     TIME
   1      1.12595221    -0.57137122  -104.35465185    -0.57137122    -0.01182446  0.33D-02  0.24D-02  1  1    10.13
   2      1.13775530    -0.58216180  -104.36544242    -0.01079058    -0.00104183  0.36D-03  0.42D-03  2  2    12.44
   3      1.14442176    -0.58400881  -104.36728943    -0.00184701    -0.00011345  0.81D-04  0.32D-04  3  3    15.25
   4      1.14798742    -0.58492638  -104.36820700    -0.00091757    -0.00000443  0.24D-05  0.14D-05  4  4    17.54
   5      1.14834095    -0.58497274  -104.36825336    -0.00004636    -0.00000040  0.29D-06  0.14D-06  5  5    19.76
   6      1.14844309    -0.58498888  -104.36826950    -0.00001615    -0.00000003  0.14D-07  0.17D-07  6  6    22.03
   7      1.14844109    -0.58498806  -104.36826868     0.00000082    -0.00000000  0.86D-09  0.16D-08  6  1    24.43

 Norm of t1 vector:      0.11098925      S-energy:    -0.00657669      T1 diagnostic:  0.01624562
                                                                       D1 diagnostic:  0.06075251
 Norm of t2 vector:      0.36894780      P-energy:    -0.57841137
                                         Alpha-Beta:  -0.41957029
                                         Alpha-Alpha: -0.10768404
                                         Beta-Beta:   -0.05115704

 Singles amplitudes (print threshold =  0.500E-01):

         I         SYM. A    A   T(IA) [Alpha-Alpha]

         2         1         2     -0.06541049

 Spin contamination <S**2-Sz**2-Sz>     0.00000000

 Memory could be reduced to 115.46 Mwords without degradation in triples
 

  Correlated core orbitals:             1.1       1.2       1.3       1.5
  Orbital energies:                    -4.3189   -2.5656   -2.5656   -2.5656
 
  RCCSD core-core energy               -0.127962877921
  RCCSD core-valence energy            -0.217442154069
  RCCSD valence correlation energy     -0.239583026449
 

 RESULTS
 =======

  Reference energy                   -103.783280621399
  RCCSD singles energy                 -0.006576691873
  RCCSD pair energy                    -0.578411366567
  RCCSD correlation energy             -0.584988058440
  Triples (T) contribution             -0.022339030704
  Total correlation energy             -0.607327089143
 
  RHF-RCCSD energy                   -104.368268679839
  RHF-RCCSD[T] energy                -104.390936592030
  RHF-RCCSD-T energy                 -104.390529504213
 !RHF-RCCSD(T) energy                -104.390607710543

 Program statistics:

 Available memory in ccsd:              1023999000
 Min. memory needed in ccsd:               5644238
 Max. memory used in ccsd:                 7880512
 Max. memory used in cckext:               6225900 ( 7 integral passes)
 Max. memory used in cckint:              20213584 ( 1 integral passes)



 **********************************************************************************************************************************
 DATASETS  * FILE   NREC   LENGTH (MB)   RECORD NAMES
              1      19       20.98       500      610      700      900      950      970     1000      129      960     1100   
                                          VAR    BASINP    GEOM    SYMINP    ZMAT    AOBASIS   BASIS     P2S    ABASIS      S 
                                         1400     1410     1420     1200     1210     1080     1600     1650     1700   
                                           T        V       ECP      H0       H01     AOSYM     SMH    MOLCAS    OPER   

              2       4        3.43       700     1000      520     4202   
                                         GEOM     BASIS   MCVARS     RHF  

 PROGRAMS   *        TOTAL  RCCSD(T)       RHF       INT
 CPU TIMES  *       189.02     53.80      2.23    132.73
 REAL TIME  *       227.28 SEC
 DISK USED  *         7.95 GB      
 SF USED    *         1.75 GB      
 GA USED    *         0.00 MB       (max)       0.00 MB       (current)
 **********************************************************************************************************************************
 SETTING CCSD(I)        =      -104.39060771  AU                              
 Output type csv         
                                                                                                                                                                                                                                                                

        SCF,CCSD
   -103.7832806,   -104.3906077
                                                  

 RCCSD(T)/USERDEF energy=   -104.390607710543

        RCCSD(T)        RHF-SCF 
   -104.39060771   -103.78328062
 **********************************************************************************************************************************
 Molpro calculation terminated
 Variable memory released
