/global/cscratch1/sd/bkincaid/cutoffs/W/250-610/runs/scf_460

     Program PWSCF v.6.4.1 starts on 17Jan2022 at 19:50: 2 

     This program is part of the open-source Quantum ESPRESSO suite
     for quantum simulation of materials; please cite
         "P. Giannozzi et al., J. Phys.:Condens. Matter 21 395502 (2009);
         "P. Giannozzi et al., J. Phys.:Condens. Matter 29 465901 (2017);
          URL http://www.quantum-espresso.org", 
     in publications or presentations arising from this work. More details at
     http://www.quantum-espresso.org/quote

     Parallel version (MPI & OpenMP), running on      32 processor cores
     Number of MPI processes:                32
     Threads/MPI process:                     1

     MPI processes distributed on     1 nodes
     R & G space division:  proc/nbgrp/npool/nimage =      32
     Reading input from scf_460.in

     Current dimensions of program PWSCF are:
     Max number of different atomic species (ntypx) = 10
     Max number of k-points (npk) =  40000
     Max angular momentum in pseudopotentials (lmaxx) =  3

     IMPORTANT: XC functional enforced from input :
     Exchange-correlation      = PBE ( 1  4  3  4 0 0)
     Any further DFT definition will be discarded
     Please, verify this is what you really want


     gamma-point specific algorithms are used

     Subspace diagonalization in iterative solution of the eigenvalue problem:
     one sub-group per band group will be used
     scalapack distributed-memory algorithm (size of sub-group:  4*  4 procs)

     Message from routine setup:
     DEPRECATED: symmetry with ibrav=0, use correct ibrav instead
 
     Parallelization info
     --------------------
     sticks:   dense  smooth     PW     G-vecs:    dense   smooth      PW
     Min        2352    2352    587               485696   485696   60704
     Max        2354    2354    590               485706   485706   60712
     Sum       75285   75285  18829             15542345 15542345 1942703
 


     bravais-lattice index     =            0
     lattice parameter (alat)  =      22.6767  a.u.
     unit-cell volume          =   11661.1222 (a.u.)^3
     number of atoms/cell      =            1
     number of atomic types    =            1
     number of electrons       =        14.00 (up:   9.00, down:   5.00)
     number of Kohn-Sham states=           12
     kinetic-energy cutoff     =     460.0000  Ry
     charge density cutoff     =    1840.0000  Ry
     convergence threshold     =      1.0E-06
     mixing beta               =       0.7000
     number of iterations used =            8  plain     mixing
     Exchange-correlation      = PBE ( 1  4  3  4 0 0)

     celldm(1)=  22.676714  celldm(2)=   0.000000  celldm(3)=   0.000000
     celldm(4)=   0.000000  celldm(5)=   0.000000  celldm(6)=   0.000000

     crystal axes: (cart. coord. in units of alat)
               a(1) = (   1.000000   0.000000   0.000000 )  
               a(2) = (   0.000000   1.000000   0.000000 )  
               a(3) = (   0.000000   0.000000   1.000000 )  

     reciprocal axes: (cart. coord. in units 2 pi/alat)
               b(1) = (  1.000000  0.000000  0.000000 )  
               b(2) = (  0.000000  1.000000  0.000000 )  
               b(3) = (  0.000000  0.000000  1.000000 )  


     PseudoPot. # 1 for W  read from file:
     ./W.upf
     MD5 check sum: 4ed05a8c0c5f577ff01fd4795b4ecf91
     Pseudo is Norm-conserving, Zval = 14.0
     Generated by new atomic code, or converted to UPF format
     Using radial grid of 1187 points,  3 beta functions with: 
                l(1) =   0
                l(2) =   2
                l(3) =   3

     atomic species   valence    mass     pseudopotential
        W             14.00   183.85000     W ( 1.00)

     Starting magnetic structure 
     atomic species   magnetization
        W            0.500

     48 Sym. Ops., with inversion, found


                                    s                        frac. trans.

      isym =  1     identity                                     

 cryst.   s( 1) = (     1          0          0      )
                  (     0          1          0      )
                  (     0          0          1      )

 cart.    s( 1) = (  1.0000000  0.0000000  0.0000000 )
                  (  0.0000000  1.0000000  0.0000000 )
                  (  0.0000000  0.0000000  1.0000000 )


      isym =  2     180 deg rotation - cart. axis [0,0,1]        

 cryst.   s( 2) = (    -1          0          0      )
                  (     0         -1          0      )
                  (     0          0          1      )

 cart.    s( 2) = ( -1.0000000  0.0000000  0.0000000 )
                  (  0.0000000 -1.0000000  0.0000000 )
                  (  0.0000000  0.0000000  1.0000000 )


      isym =  3     180 deg rotation - cart. axis [0,1,0]        

 cryst.   s( 3) = (    -1          0          0      )
                  (     0          1          0      )
                  (     0          0         -1      )

 cart.    s( 3) = ( -1.0000000  0.0000000  0.0000000 )
                  (  0.0000000  1.0000000  0.0000000 )
                  (  0.0000000  0.0000000 -1.0000000 )


      isym =  4     180 deg rotation - cart. axis [1,0,0]        

 cryst.   s( 4) = (     1          0          0      )
                  (     0         -1          0      )
                  (     0          0         -1      )

 cart.    s( 4) = (  1.0000000  0.0000000  0.0000000 )
                  (  0.0000000 -1.0000000  0.0000000 )
                  (  0.0000000  0.0000000 -1.0000000 )


      isym =  5     180 deg rotation - cart. axis [1,1,0]        

 cryst.   s( 5) = (     0          1          0      )
                  (     1          0          0      )
                  (     0          0         -1      )

 cart.    s( 5) = (  0.0000000  1.0000000  0.0000000 )
                  (  1.0000000  0.0000000  0.0000000 )
                  (  0.0000000  0.0000000 -1.0000000 )


      isym =  6     180 deg rotation - cart. axis [1,-1,0]       

 cryst.   s( 6) = (     0         -1          0      )
                  (    -1          0          0      )
                  (     0          0         -1      )

 cart.    s( 6) = (  0.0000000 -1.0000000  0.0000000 )
                  ( -1.0000000  0.0000000  0.0000000 )
                  (  0.0000000  0.0000000 -1.0000000 )


      isym =  7      90 deg rotation - cart. axis [0,0,-1]       

 cryst.   s( 7) = (     0         -1          0      )
                  (     1          0          0      )
                  (     0          0          1      )

 cart.    s( 7) = (  0.0000000  1.0000000  0.0000000 )
                  ( -1.0000000  0.0000000  0.0000000 )
                  (  0.0000000  0.0000000  1.0000000 )


      isym =  8      90 deg rotation - cart. axis [0,0,1]        

 cryst.   s( 8) = (     0          1          0      )
                  (    -1          0          0      )
                  (     0          0          1      )

 cart.    s( 8) = (  0.0000000 -1.0000000  0.0000000 )
                  (  1.0000000  0.0000000  0.0000000 )
                  (  0.0000000  0.0000000  1.0000000 )


      isym =  9     180 deg rotation - cart. axis [1,0,1]        

 cryst.   s( 9) = (     0          0          1      )
                  (     0         -1          0      )
                  (     1          0          0      )

 cart.    s( 9) = (  0.0000000  0.0000000  1.0000000 )
                  (  0.0000000 -1.0000000  0.0000000 )
                  (  1.0000000  0.0000000  0.0000000 )


      isym = 10     180 deg rotation - cart. axis [-1,0,1]       

 cryst.   s(10) = (     0          0         -1      )
                  (     0         -1          0      )
                  (    -1          0          0      )

 cart.    s(10) = (  0.0000000  0.0000000 -1.0000000 )
                  (  0.0000000 -1.0000000  0.0000000 )
                  ( -1.0000000  0.0000000  0.0000000 )


      isym = 11      90 deg rotation - cart. axis [0,1,0]        

 cryst.   s(11) = (     0          0         -1      )
                  (     0          1          0      )
                  (     1          0          0      )

 cart.    s(11) = (  0.0000000  0.0000000  1.0000000 )
                  (  0.0000000  1.0000000  0.0000000 )
                  ( -1.0000000  0.0000000  0.0000000 )


      isym = 12      90 deg rotation - cart. axis [0,-1,0]       

 cryst.   s(12) = (     0          0          1      )
                  (     0          1          0      )
                  (    -1          0          0      )

 cart.    s(12) = (  0.0000000  0.0000000 -1.0000000 )
                  (  0.0000000  1.0000000  0.0000000 )
                  (  1.0000000  0.0000000  0.0000000 )


      isym = 13     180 deg rotation - cart. axis [0,1,1]        

 cryst.   s(13) = (    -1          0          0      )
                  (     0          0          1      )
                  (     0          1          0      )

 cart.    s(13) = ( -1.0000000  0.0000000  0.0000000 )
                  (  0.0000000  0.0000000  1.0000000 )
                  (  0.0000000  1.0000000  0.0000000 )


      isym = 14     180 deg rotation - cart. axis [0,1,-1]       

 cryst.   s(14) = (    -1          0          0      )
                  (     0          0         -1      )
                  (     0         -1          0      )

 cart.    s(14) = ( -1.0000000  0.0000000  0.0000000 )
                  (  0.0000000  0.0000000 -1.0000000 )
                  (  0.0000000 -1.0000000  0.0000000 )


      isym = 15      90 deg rotation - cart. axis [-1,0,0]       

 cryst.   s(15) = (     1          0          0      )
                  (     0          0         -1      )
                  (     0          1          0      )

 cart.    s(15) = (  1.0000000  0.0000000  0.0000000 )
                  (  0.0000000  0.0000000  1.0000000 )
                  (  0.0000000 -1.0000000  0.0000000 )


      isym = 16      90 deg rotation - cart. axis [1,0,0]        

 cryst.   s(16) = (     1          0          0      )
                  (     0          0          1      )
                  (     0         -1          0      )

 cart.    s(16) = (  1.0000000  0.0000000  0.0000000 )
                  (  0.0000000  0.0000000 -1.0000000 )
                  (  0.0000000  1.0000000  0.0000000 )


      isym = 17     120 deg rotation - cart. axis [-1,-1,-1]     

 cryst.   s(17) = (     0          0          1      )
                  (     1          0          0      )
                  (     0          1          0      )

 cart.    s(17) = (  0.0000000  1.0000000  0.0000000 )
                  (  0.0000000  0.0000000  1.0000000 )
                  (  1.0000000  0.0000000  0.0000000 )


      isym = 18     120 deg rotation - cart. axis [-1,1,1]       

 cryst.   s(18) = (     0          0         -1      )
                  (    -1          0          0      )
                  (     0          1          0      )

 cart.    s(18) = (  0.0000000 -1.0000000  0.0000000 )
                  (  0.0000000  0.0000000  1.0000000 )
                  ( -1.0000000  0.0000000  0.0000000 )


      isym = 19     120 deg rotation - cart. axis [1,1,-1]       

 cryst.   s(19) = (     0          0         -1      )
                  (     1          0          0      )
                  (     0         -1          0      )

 cart.    s(19) = (  0.0000000  1.0000000  0.0000000 )
                  (  0.0000000  0.0000000 -1.0000000 )
                  ( -1.0000000  0.0000000  0.0000000 )


      isym = 20     120 deg rotation - cart. axis [1,-1,1]       

 cryst.   s(20) = (     0          0          1      )
                  (    -1          0          0      )
                  (     0         -1          0      )

 cart.    s(20) = (  0.0000000 -1.0000000  0.0000000 )
                  (  0.0000000  0.0000000 -1.0000000 )
                  (  1.0000000  0.0000000  0.0000000 )


      isym = 21     120 deg rotation - cart. axis [1,1,1]        

 cryst.   s(21) = (     0          1          0      )
                  (     0          0          1      )
                  (     1          0          0      )

 cart.    s(21) = (  0.0000000  0.0000000  1.0000000 )
                  (  1.0000000  0.0000000  0.0000000 )
                  (  0.0000000  1.0000000  0.0000000 )


      isym = 22     120 deg rotation - cart. axis [-1,1,-1]      

 cryst.   s(22) = (     0         -1          0      )
                  (     0          0         -1      )
                  (     1          0          0      )

 cart.    s(22) = (  0.0000000  0.0000000  1.0000000 )
                  ( -1.0000000  0.0000000  0.0000000 )
                  (  0.0000000 -1.0000000  0.0000000 )


      isym = 23     120 deg rotation - cart. axis [1,-1,-1]      

 cryst.   s(23) = (     0         -1          0      )
                  (     0          0          1      )
                  (    -1          0          0      )

 cart.    s(23) = (  0.0000000  0.0000000 -1.0000000 )
                  ( -1.0000000  0.0000000  0.0000000 )
                  (  0.0000000  1.0000000  0.0000000 )


      isym = 24     120 deg rotation - cart. axis [-1,-1,1]      

 cryst.   s(24) = (     0          1          0      )
                  (     0          0         -1      )
                  (    -1          0          0      )

 cart.    s(24) = (  0.0000000  0.0000000 -1.0000000 )
                  (  1.0000000  0.0000000  0.0000000 )
                  (  0.0000000 -1.0000000  0.0000000 )


      isym = 25     inversion                                    

 cryst.   s(25) = (    -1          0          0      )
                  (     0         -1          0      )
                  (     0          0         -1      )

 cart.    s(25) = ( -1.0000000  0.0000000  0.0000000 )
                  (  0.0000000 -1.0000000  0.0000000 )
                  (  0.0000000  0.0000000 -1.0000000 )


      isym = 26     inv. 180 deg rotation - cart. axis [0,0,1]   

 cryst.   s(26) = (     1          0          0      )
                  (     0          1          0      )
                  (     0          0         -1      )

 cart.    s(26) = (  1.0000000  0.0000000  0.0000000 )
                  (  0.0000000  1.0000000  0.0000000 )
                  (  0.0000000  0.0000000 -1.0000000 )


      isym = 27     inv. 180 deg rotation - cart. axis [0,1,0]   

 cryst.   s(27) = (     1          0          0      )
                  (     0         -1          0      )
                  (     0          0          1      )

 cart.    s(27) = (  1.0000000  0.0000000  0.0000000 )
                  (  0.0000000 -1.0000000  0.0000000 )
                  (  0.0000000  0.0000000  1.0000000 )


      isym = 28     inv. 180 deg rotation - cart. axis [1,0,0]   

 cryst.   s(28) = (    -1          0          0      )
                  (     0          1          0      )
                  (     0          0          1      )

 cart.    s(28) = ( -1.0000000  0.0000000  0.0000000 )
                  (  0.0000000  1.0000000  0.0000000 )
                  (  0.0000000  0.0000000  1.0000000 )


      isym = 29     inv. 180 deg rotation - cart. axis [1,1,0]   

 cryst.   s(29) = (     0         -1          0      )
                  (    -1          0          0      )
                  (     0          0          1      )

 cart.    s(29) = (  0.0000000 -1.0000000  0.0000000 )
                  ( -1.0000000  0.0000000  0.0000000 )
                  (  0.0000000  0.0000000  1.0000000 )


      isym = 30     inv. 180 deg rotation - cart. axis [1,-1,0]  

 cryst.   s(30) = (     0          1          0      )
                  (     1          0          0      )
                  (     0          0          1      )

 cart.    s(30) = (  0.0000000  1.0000000  0.0000000 )
                  (  1.0000000  0.0000000  0.0000000 )
                  (  0.0000000  0.0000000  1.0000000 )


      isym = 31     inv.  90 deg rotation - cart. axis [0,0,-1]  

 cryst.   s(31) = (     0          1          0      )
                  (    -1          0          0      )
                  (     0          0         -1      )

 cart.    s(31) = (  0.0000000 -1.0000000  0.0000000 )
                  (  1.0000000  0.0000000  0.0000000 )
                  (  0.0000000  0.0000000 -1.0000000 )


      isym = 32     inv.  90 deg rotation - cart. axis [0,0,1]   

 cryst.   s(32) = (     0         -1          0      )
                  (     1          0          0      )
                  (     0          0         -1      )

 cart.    s(32) = (  0.0000000  1.0000000  0.0000000 )
                  ( -1.0000000  0.0000000  0.0000000 )
                  (  0.0000000  0.0000000 -1.0000000 )


      isym = 33     inv. 180 deg rotation - cart. axis [1,0,1]   

 cryst.   s(33) = (     0          0         -1      )
                  (     0          1          0      )
                  (    -1          0          0      )

 cart.    s(33) = (  0.0000000  0.0000000 -1.0000000 )
                  (  0.0000000  1.0000000  0.0000000 )
                  ( -1.0000000  0.0000000  0.0000000 )


      isym = 34     inv. 180 deg rotation - cart. axis [-1,0,1]  

 cryst.   s(34) = (     0          0          1      )
                  (     0          1          0      )
                  (     1          0          0      )

 cart.    s(34) = (  0.0000000  0.0000000  1.0000000 )
                  (  0.0000000  1.0000000  0.0000000 )
                  (  1.0000000  0.0000000  0.0000000 )


      isym = 35     inv.  90 deg rotation - cart. axis [0,1,0]   

 cryst.   s(35) = (     0          0          1      )
                  (     0         -1          0      )
                  (    -1          0          0      )

 cart.    s(35) = (  0.0000000  0.0000000 -1.0000000 )
                  (  0.0000000 -1.0000000  0.0000000 )
                  (  1.0000000  0.0000000  0.0000000 )


      isym = 36     inv.  90 deg rotation - cart. axis [0,-1,0]  

 cryst.   s(36) = (     0          0         -1      )
                  (     0         -1          0      )
                  (     1          0          0      )

 cart.    s(36) = (  0.0000000  0.0000000  1.0000000 )
                  (  0.0000000 -1.0000000  0.0000000 )
                  ( -1.0000000  0.0000000  0.0000000 )


      isym = 37     inv. 180 deg rotation - cart. axis [0,1,1]   

 cryst.   s(37) = (     1          0          0      )
                  (     0          0         -1      )
                  (     0         -1          0      )

 cart.    s(37) = (  1.0000000  0.0000000  0.0000000 )
                  (  0.0000000  0.0000000 -1.0000000 )
                  (  0.0000000 -1.0000000  0.0000000 )


      isym = 38     inv. 180 deg rotation - cart. axis [0,1,-1]  

 cryst.   s(38) = (     1          0          0      )
                  (     0          0          1      )
                  (     0          1          0      )

 cart.    s(38) = (  1.0000000  0.0000000  0.0000000 )
                  (  0.0000000  0.0000000  1.0000000 )
                  (  0.0000000  1.0000000  0.0000000 )


      isym = 39     inv.  90 deg rotation - cart. axis [-1,0,0]  

 cryst.   s(39) = (    -1          0          0      )
                  (     0          0          1      )
                  (     0         -1          0      )

 cart.    s(39) = ( -1.0000000  0.0000000  0.0000000 )
                  (  0.0000000  0.0000000 -1.0000000 )
                  (  0.0000000  1.0000000  0.0000000 )


      isym = 40     inv.  90 deg rotation - cart. axis [1,0,0]   

 cryst.   s(40) = (    -1          0          0      )
                  (     0          0         -1      )
                  (     0          1          0      )

 cart.    s(40) = ( -1.0000000  0.0000000  0.0000000 )
                  (  0.0000000  0.0000000  1.0000000 )
                  (  0.0000000 -1.0000000  0.0000000 )


      isym = 41     inv. 120 deg rotation - cart. axis [-1,-1,-1]

 cryst.   s(41) = (     0          0         -1      )
                  (    -1          0          0      )
                  (     0         -1          0      )

 cart.    s(41) = (  0.0000000 -1.0000000  0.0000000 )
                  (  0.0000000  0.0000000 -1.0000000 )
                  ( -1.0000000  0.0000000  0.0000000 )


      isym = 42     inv. 120 deg rotation - cart. axis [-1,1,1]  

 cryst.   s(42) = (     0          0          1      )
                  (     1          0          0      )
                  (     0         -1          0      )

 cart.    s(42) = (  0.0000000  1.0000000  0.0000000 )
                  (  0.0000000  0.0000000 -1.0000000 )
                  (  1.0000000  0.0000000  0.0000000 )


      isym = 43     inv. 120 deg rotation - cart. axis [1,1,-1]  

 cryst.   s(43) = (     0          0          1      )
                  (    -1          0          0      )
                  (     0          1          0      )

 cart.    s(43) = (  0.0000000 -1.0000000  0.0000000 )
                  (  0.0000000  0.0000000  1.0000000 )
                  (  1.0000000  0.0000000  0.0000000 )


      isym = 44     inv. 120 deg rotation - cart. axis [1,-1,1]  

 cryst.   s(44) = (     0          0         -1      )
                  (     1          0          0      )
                  (     0          1          0      )

 cart.    s(44) = (  0.0000000  1.0000000  0.0000000 )
                  (  0.0000000  0.0000000  1.0000000 )
                  ( -1.0000000  0.0000000  0.0000000 )


      isym = 45     inv. 120 deg rotation - cart. axis [1,1,1]   

 cryst.   s(45) = (     0         -1          0      )
                  (     0          0         -1      )
                  (    -1          0          0      )

 cart.    s(45) = (  0.0000000  0.0000000 -1.0000000 )
                  ( -1.0000000  0.0000000  0.0000000 )
                  (  0.0000000 -1.0000000  0.0000000 )


      isym = 46     inv. 120 deg rotation - cart. axis [-1,1,-1] 

 cryst.   s(46) = (     0          1          0      )
                  (     0          0          1      )
                  (    -1          0          0      )

 cart.    s(46) = (  0.0000000  0.0000000 -1.0000000 )
                  (  1.0000000  0.0000000  0.0000000 )
                  (  0.0000000  1.0000000  0.0000000 )


      isym = 47     inv. 120 deg rotation - cart. axis [1,-1,-1] 

 cryst.   s(47) = (     0          1          0      )
                  (     0          0         -1      )
                  (     1          0          0      )

 cart.    s(47) = (  0.0000000  0.0000000  1.0000000 )
                  (  1.0000000  0.0000000  0.0000000 )
                  (  0.0000000 -1.0000000  0.0000000 )


      isym = 48     inv. 120 deg rotation - cart. axis [-1,-1,1] 

 cryst.   s(48) = (     0         -1          0      )
                  (     0          0          1      )
                  (     1          0          0      )

 cart.    s(48) = (  0.0000000  0.0000000  1.0000000 )
                  ( -1.0000000  0.0000000  0.0000000 )
                  (  0.0000000  1.0000000  0.0000000 )


   Cartesian axes

     site n.     atom                  positions (alat units)
         1           W   tau(   1) = (   0.5000000   0.5000000   0.5000000  )

   Crystallographic axes

     site n.     atom                  positions (cryst. coord.)
         1           W   tau(   1) = (  0.5000000  0.5000000  0.5000000  )

     number of k points=     1
                       cart. coord. in units 2pi/alat
        k(    1) = (   0.0000000   0.0000000   0.0000000), wk =   1.0000000

                       cryst. coord.
        k(    1) = (   0.0000000   0.0000000   0.0000000), wk =   1.0000000

     Dense  grid:  7771173 G-vectors     FFT dimensions: ( 320, 320, 320)

     Dynamical RAM for                 wfc:       5.56 MB

     Dynamical RAM for     wfc (w. buffer):      16.68 MB

     Dynamical RAM for           str. fact:       3.71 MB

     Dynamical RAM for           local pot:       0.00 MB

     Dynamical RAM for          nlocal pot:       6.02 MB

     Dynamical RAM for                qrad:       4.96 MB

     Dynamical RAM for          rho,v,vnew:      69.11 MB

     Dynamical RAM for               rhoin:      23.04 MB

     Dynamical RAM for            rho*nmix:     118.58 MB

     Dynamical RAM for           G-vectors:      15.75 MB

     Dynamical RAM for          h,s,v(r/c):       0.00 MB

     Dynamical RAM for          <psi|beta>:       0.00 MB

     Dynamical RAM for                 psi:      22.23 MB

     Dynamical RAM for                hpsi:      22.23 MB

     Dynamical RAM for      wfcinit/wfcrot:      14.83 MB

     Estimated static dynamical RAM per process >     312.13 MB

     Estimated max dynamical RAM per process >     356.60 MB

     Estimated total dynamical RAM >      11.14 GB
     Generating pointlists ...
     new r_m :   0.4125 (alat units)  9.3541 (a.u.) for type    1

     Initial potential from superposition of free atoms

     starting charge   11.30112, renormalised to   14.00000

     negative rho (up, down):  5.554E-03 0.000E+00
     Starting wfcs are   16 randomized atomic wfcs

     total cpu time spent up to now is       10.9 secs

     Self-consistent Calculation

     iteration #  1     ecut=   460.00 Ry     beta= 0.70
     Davidson diagonalization with overlap
     ethr =  1.00E-02,  avg # of iterations = 13.5

     negative rho (up, down):  4.205E-06 1.826E-02

     total cpu time spent up to now is       29.0 secs

     total energy              =    -127.37612109 Ry
     Harris-Foulkes estimate   =    -137.14108385 Ry
     estimated scf accuracy    <      12.63098963 Ry

     total magnetization       =     4.00 Bohr mag/cell
     absolute magnetization    =     4.09 Bohr mag/cell

     iteration #  2     ecut=   460.00 Ry     beta= 0.70
     Davidson diagonalization with overlap
     ethr =  1.00E-02,  avg # of iterations =  8.5

     negative rho (up, down):  2.451E-06 1.756E-02

     total cpu time spent up to now is       43.8 secs

     total energy              =    -134.70547796 Ry
     Harris-Foulkes estimate   =    -138.89843504 Ry
     estimated scf accuracy    <       7.25824960 Ry

     total magnetization       =     4.00 Bohr mag/cell
     absolute magnetization    =     4.00 Bohr mag/cell

     iteration #  3     ecut=   460.00 Ry     beta= 0.70
     Davidson diagonalization with overlap
     ethr =  1.00E-02,  avg # of iterations =  2.5

     negative rho (up, down):  2.187E-06 1.760E-02

     total cpu time spent up to now is       52.8 secs

     total energy              =    -134.92341445 Ry
     Harris-Foulkes estimate   =    -135.12921401 Ry
     estimated scf accuracy    <       1.42622315 Ry

     total magnetization       =     4.00 Bohr mag/cell
     absolute magnetization    =     4.09 Bohr mag/cell

     iteration #  4     ecut=   460.00 Ry     beta= 0.70
     Davidson diagonalization with overlap
     ethr =  1.00E-02,  avg # of iterations =  1.0

     negative rho (up, down):  2.282E-06 1.737E-02

     total cpu time spent up to now is       60.9 secs

     total energy              =    -135.16599626 Ry
     Harris-Foulkes estimate   =    -134.95235356 Ry
     estimated scf accuracy    <       0.78433699 Ry

     total magnetization       =     4.00 Bohr mag/cell
     absolute magnetization    =     4.26 Bohr mag/cell

     iteration #  5     ecut=   460.00 Ry     beta= 0.70
     Davidson diagonalization with overlap
     ethr =  5.60E-03,  avg # of iterations =  1.0

     negative rho (up, down):  2.187E-06 1.749E-02

     total cpu time spent up to now is       69.1 secs

     total energy              =    -135.27827429 Ry
     Harris-Foulkes estimate   =    -135.22155551 Ry
     estimated scf accuracy    <       1.49693450 Ry

     total magnetization       =     4.00 Bohr mag/cell
     absolute magnetization    =     4.14 Bohr mag/cell

     iteration #  6     ecut=   460.00 Ry     beta= 0.70
     Davidson diagonalization with overlap
     ethr =  5.60E-03,  avg # of iterations =  1.0

     negative rho (up, down):  2.041E-06 1.634E-02

     total cpu time spent up to now is       77.3 secs

     total energy              =    -135.16744602 Ry
     Harris-Foulkes estimate   =    -135.33098896 Ry
     estimated scf accuracy    <       1.90499480 Ry

     total magnetization       =     4.00 Bohr mag/cell
     absolute magnetization    =     4.00 Bohr mag/cell

     iteration #  7     ecut=   460.00 Ry     beta= 0.70
     Davidson diagonalization with overlap
     ethr =  5.60E-03,  avg # of iterations =  1.0

     negative rho (up, down):  2.678E-02 8.254E-02

     total cpu time spent up to now is       85.5 secs

     total energy              =    -134.19099152 Ry
     Harris-Foulkes estimate   =    -135.17407443 Ry
     estimated scf accuracy    <       1.74505429 Ry

     total magnetization       =     4.00 Bohr mag/cell
     absolute magnetization    =     4.00 Bohr mag/cell

     iteration #  8     ecut=   460.00 Ry     beta= 0.70
     Davidson diagonalization with overlap
     ethr =  5.60E-03,  avg # of iterations =  2.0

     negative rho (up, down):  2.703E-02 8.366E-02

     total cpu time spent up to now is       94.7 secs

     total energy              =    -134.49048635 Ry
     Harris-Foulkes estimate   =    -134.49085902 Ry
     estimated scf accuracy    <       0.48838565 Ry

     total magnetization       =     4.00 Bohr mag/cell
     absolute magnetization    =     4.02 Bohr mag/cell

     iteration #  9     ecut=   460.00 Ry     beta= 0.70
     Davidson diagonalization with overlap
     ethr =  3.49E-03,  avg # of iterations =  1.0

     negative rho (up, down):  2.735E-02 8.704E-02

     total cpu time spent up to now is      103.1 secs

     total energy              =    -134.49448772 Ry
     Harris-Foulkes estimate   =    -134.49413868 Ry
     estimated scf accuracy    <       0.48946620 Ry

     total magnetization       =     4.00 Bohr mag/cell
     absolute magnetization    =     4.02 Bohr mag/cell

     iteration # 10     ecut=   460.00 Ry     beta= 0.70
     Davidson diagonalization with overlap
     ethr =  3.49E-03,  avg # of iterations =  1.0

     negative rho (up, down):  2.909E-02 2.105E-01

     total cpu time spent up to now is      111.3 secs

     total energy              =    -134.49220671 Ry
     Harris-Foulkes estimate   =    -134.49592664 Ry
     estimated scf accuracy    <       0.49997287 Ry

     total magnetization       =     4.00 Bohr mag/cell
     absolute magnetization    =     4.02 Bohr mag/cell

     iteration # 11     ecut=   460.00 Ry     beta= 0.70
     Davidson diagonalization with overlap
     ethr =  3.49E-03,  avg # of iterations =  1.0

     negative rho (up, down):  3.117E-02 1.010E-01

     total cpu time spent up to now is      119.6 secs

     total energy              =    -134.49786696 Ry
     Harris-Foulkes estimate   =    -134.49308803 Ry
     estimated scf accuracy    <       0.50784303 Ry

     total magnetization       =     4.00 Bohr mag/cell
     absolute magnetization    =     4.02 Bohr mag/cell

     iteration # 12     ecut=   460.00 Ry     beta= 0.70
     Davidson diagonalization with overlap
     ethr =  3.49E-03,  avg # of iterations =  1.0

     negative rho (up, down):  1.005E-04 2.400E-02

     total cpu time spent up to now is      128.0 secs

     total energy              =    -134.62955888 Ry
     Harris-Foulkes estimate   =    -134.50037890 Ry
     estimated scf accuracy    <       0.53600716 Ry

     total magnetization       =     4.00 Bohr mag/cell
     absolute magnetization    =     4.02 Bohr mag/cell

     iteration # 13     ecut=   460.00 Ry     beta= 0.70
     Davidson diagonalization with overlap
     ethr =  3.49E-03,  avg # of iterations =  1.0

     negative rho (up, down):  2.750E-04 5.932E-03

     total cpu time spent up to now is      136.4 secs

     total energy              =    -134.64709824 Ry
     Harris-Foulkes estimate   =    -134.65717781 Ry
     estimated scf accuracy    <       0.16165316 Ry

     total magnetization       =     4.00 Bohr mag/cell
     absolute magnetization    =     4.02 Bohr mag/cell

     iteration # 14     ecut=   460.00 Ry     beta= 0.70
     Davidson diagonalization with overlap
     ethr =  1.15E-03,  avg # of iterations =  1.5

     negative rho (up, down):  7.165E-03 1.825E-02

     total cpu time spent up to now is      144.8 secs

     total energy              =    -134.63646293 Ry
     Harris-Foulkes estimate   =    -134.66100085 Ry
     estimated scf accuracy    <       0.06545631 Ry

     total magnetization       =     4.00 Bohr mag/cell
     absolute magnetization    =     4.11 Bohr mag/cell

     iteration # 15     ecut=   460.00 Ry     beta= 0.70
     Davidson diagonalization with overlap
     ethr =  4.68E-04,  avg # of iterations =  2.5

     negative rho (up, down):  2.359E-02 2.763E-02

     total cpu time spent up to now is      153.6 secs

     total energy              =    -134.63658757 Ry
     Harris-Foulkes estimate   =    -134.64874439 Ry
     estimated scf accuracy    <       0.06763525 Ry

     total magnetization       =     4.00 Bohr mag/cell
     absolute magnetization    =     4.27 Bohr mag/cell

     iteration # 16     ecut=   460.00 Ry     beta= 0.70
     Davidson diagonalization with overlap
     ethr =  4.68E-04,  avg # of iterations =  1.0

     negative rho (up, down):  3.850E-04 3.035E-01

     total cpu time spent up to now is      161.9 secs

     total energy              =    -134.67502158 Ry
     Harris-Foulkes estimate   =    -134.63900622 Ry
     estimated scf accuracy    <       0.07555687 Ry

     total magnetization       =     4.00 Bohr mag/cell
     absolute magnetization    =     4.28 Bohr mag/cell

     iteration # 17     ecut=   460.00 Ry     beta= 0.70
     Davidson diagonalization with overlap
     ethr =  4.68E-04,  avg # of iterations =  2.0

     negative rho (up, down):  4.075E-03 5.177E-01

     total cpu time spent up to now is      170.3 secs

     total energy              =    -134.68975166 Ry
     Harris-Foulkes estimate   =    -134.67948892 Ry
     estimated scf accuracy    <       0.04441722 Ry

     total magnetization       =     4.00 Bohr mag/cell
     absolute magnetization    =     4.32 Bohr mag/cell

     iteration # 18     ecut=   460.00 Ry     beta= 0.70
     Davidson diagonalization with overlap
     ethr =  3.17E-04,  avg # of iterations =  2.0

     negative rho (up, down):  1.085E-04 6.198E-01

     total cpu time spent up to now is      178.7 secs

     total energy              =    -134.69507657 Ry
     Harris-Foulkes estimate   =    -134.69405517 Ry
     estimated scf accuracy    <       0.00737116 Ry

     total magnetization       =     4.00 Bohr mag/cell
     absolute magnetization    =     4.27 Bohr mag/cell

     iteration # 19     ecut=   460.00 Ry     beta= 0.70
     Davidson diagonalization with overlap
     ethr =  5.27E-05,  avg # of iterations =  4.0

     negative rho (up, down):  2.275E-05 6.014E-01

     total cpu time spent up to now is      188.8 secs

     total energy              =    -134.69679755 Ry
     Harris-Foulkes estimate   =    -134.69706343 Ry
     estimated scf accuracy    <       0.00393522 Ry

     total magnetization       =     4.00 Bohr mag/cell
     absolute magnetization    =     4.28 Bohr mag/cell

     iteration # 20     ecut=   460.00 Ry     beta= 0.70
     Davidson diagonalization with overlap
     ethr =  2.81E-05,  avg # of iterations =  2.5

     negative rho (up, down):  2.303E-09 2.197E-03

     total cpu time spent up to now is      197.5 secs

     total energy              =    -134.69769576 Ry
     Harris-Foulkes estimate   =    -134.69696905 Ry
     estimated scf accuracy    <       0.00284081 Ry

     total magnetization       =     4.00 Bohr mag/cell
     absolute magnetization    =     4.29 Bohr mag/cell

     iteration # 21     ecut=   460.00 Ry     beta= 0.70
     Davidson diagonalization with overlap
     ethr =  2.03E-05,  avg # of iterations =  3.0

     negative rho (up, down):  8.664E-08 1.691E-02

     total cpu time spent up to now is      206.6 secs

     total energy              =    -134.69822990 Ry
     Harris-Foulkes estimate   =    -134.69867082 Ry
     estimated scf accuracy    <       0.00130350 Ry

     total magnetization       =     4.00 Bohr mag/cell
     absolute magnetization    =     4.35 Bohr mag/cell

     iteration # 22     ecut=   460.00 Ry     beta= 0.70
     Davidson diagonalization with overlap
     ethr =  9.31E-06,  avg # of iterations =  7.5

     negative rho (up, down):  2.413E-10 2.258E-03

     total cpu time spent up to now is      217.5 secs

     total energy              =    -134.69851345 Ry
     Harris-Foulkes estimate   =    -134.69858334 Ry
     estimated scf accuracy    <       0.00016289 Ry

     total magnetization       =     4.00 Bohr mag/cell
     absolute magnetization    =     4.34 Bohr mag/cell

     iteration # 23     ecut=   460.00 Ry     beta= 0.70
     Davidson diagonalization with overlap
     ethr =  1.16E-06,  avg # of iterations =  4.5

     negative rho (up, down):  7.390E-11 1.831E-07

     total cpu time spent up to now is      228.0 secs

     total energy              =    -134.69859258 Ry
     Harris-Foulkes estimate   =    -134.69859176 Ry
     estimated scf accuracy    <       0.00001843 Ry

     total magnetization       =     4.00 Bohr mag/cell
     absolute magnetization    =     4.36 Bohr mag/cell

     iteration # 24     ecut=   460.00 Ry     beta= 0.70
     Davidson diagonalization with overlap
     ethr =  1.32E-07,  avg # of iterations =  2.5

     negative rho (up, down):  0.000E+00 6.001E-03

     total cpu time spent up to now is      237.3 secs

     total energy              =    -134.69859680 Ry
     Harris-Foulkes estimate   =    -134.69859701 Ry
     estimated scf accuracy    <       0.00000415 Ry

     total magnetization       =     4.00 Bohr mag/cell
     absolute magnetization    =     4.36 Bohr mag/cell

     iteration # 25     ecut=   460.00 Ry     beta= 0.70
     Davidson diagonalization with overlap
     ethr =  2.96E-08,  avg # of iterations =  3.0
 
     Magnetic moment per site:
     atom:    1    charge:   13.9994    magn:    4.0001    constr:    0.0000

     total cpu time spent up to now is      245.5 secs

     End of self-consistent calculation

 ------ SPIN UP ------------


          k = 0.0000 0.0000 0.0000 (971352 PWs)   bands (ev):

   -77.8170 -42.9033 -42.8745 -42.8741  -5.7625  -4.7916  -4.7904  -4.7733
    -4.7730  -3.9244  -1.2473  -1.2470

     occupation numbers 
     1.0000   1.0000   1.0000   1.0000   1.0000   1.0000   1.0000   1.0000
     1.0000   0.0000   0.0000   0.0000

 ------ SPIN DOWN ----------


          k = 0.0000 0.0000 0.0000 (971352 PWs)   bands (ev):

   -76.2709 -41.3582 -40.5161 -40.5144  -4.4838  -2.8881  -2.2457  -2.2448
    -1.7643  -1.7633  -0.8686  -0.2293

     occupation numbers 
     1.0000   1.0000   1.0000   1.0000   1.0000   0.0000   0.0000   0.0000
     0.0000   0.0000   0.0000   0.0000

     highest occupied, lowest unoccupied level (ev):    -4.4838   -3.9244

!    total energy              =    -134.69859774 Ry
     Harris-Foulkes estimate   =    -134.69859763 Ry
     estimated scf accuracy    <       0.00000022 Ry

     The total energy is the sum of the following terms:

     one-electron contribution =    -177.78189710 Ry
     hartree contribution      =      82.76782431 Ry
     xc contribution           =     -15.16111667 Ry
     ewald contribution        =     -24.52340829 Ry

     total magnetization       =     4.00 Bohr mag/cell
     absolute magnetization    =     4.36 Bohr mag/cell

     convergence has been achieved in  25 iterations

     Writing output data file pwscf.save/
 
     init_run     :     10.33s CPU     10.74s WALL (       1 calls)
     electrons    :    231.40s CPU    235.64s WALL (       1 calls)

     Called by init_run:
     wfcinit      :      2.11s CPU      2.22s WALL (       1 calls)
     wfcinit:atom :      0.04s CPU      0.05s WALL (       2 calls)
     wfcinit:wfcr :      2.01s CPU      2.09s WALL (       2 calls)
     potinit      :      2.60s CPU      2.72s WALL (       1 calls)
     hinit0       :      0.23s CPU      0.32s WALL (       1 calls)

     Called by electrons:
     c_bands      :    111.75s CPU    113.24s WALL (      25 calls)
     sum_band     :     37.35s CPU     37.46s WALL (      25 calls)
     v_of_rho     :     61.52s CPU     63.34s WALL (      26 calls)
     v_h          :      4.48s CPU      4.54s WALL (      26 calls)
     v_xc         :     57.05s CPU     58.80s WALL (      26 calls)
     mix_rho      :     20.80s CPU     21.02s WALL (      25 calls)

     Called by c_bands:
     init_us_2    :      1.18s CPU      1.19s WALL (     102 calls)
     regterg      :    109.64s CPU    111.09s WALL (      50 calls)

     Called by sum_band:

     Called by *egterg:
     h_psi        :    101.39s CPU    101.60s WALL (     195 calls)
     g_psi        :      0.32s CPU      0.32s WALL (     143 calls)
     rdiaghg      :      0.21s CPU      0.23s WALL (     193 calls)
     regterg:over :      2.20s CPU      2.20s WALL (     143 calls)
     regterg:upda :      4.21s CPU      4.27s WALL (     143 calls)
     regterg:last :      1.37s CPU      1.37s WALL (      56 calls)
     rdiaghg:chol :      0.03s CPU      0.04s WALL (     193 calls)
     rdiaghg:inve :      0.01s CPU      0.01s WALL (     193 calls)
     rdiaghg:para :      0.03s CPU      0.03s WALL (     386 calls)

     Called by h_psi:
     h_psi:pot    :    100.72s CPU    100.93s WALL (     195 calls)
     h_psi:calbec :      0.61s CPU      0.62s WALL (     195 calls)
     vloc_psi     :     99.24s CPU     99.44s WALL (     195 calls)
     add_vuspsi   :      0.86s CPU      0.86s WALL (     195 calls)

     General routines
     calbec       :      0.61s CPU      0.62s WALL (     195 calls)
     fft          :     51.92s CPU     52.36s WALL (     386 calls)
     ffts         :      5.40s CPU      5.43s WALL (      50 calls)
     fftw         :     96.67s CPU     96.89s WALL (    1952 calls)
 
     Parallel routines
     fft_scatt_xy :     27.62s CPU     27.67s WALL (    2388 calls)
     fft_scatt_yz :     55.69s CPU     56.17s WALL (    2388 calls)
 
     PWSCF        :   4m 2.35s CPU   4m 8.51s WALL

 
   This run was terminated on:  19:54:11  17Jan2022            

=------------------------------------------------------------------------------=
   JOB DONE.
=------------------------------------------------------------------------------=
