
 Primary working directories    : /global/cscratch1/sd/gwang18
 Secondary working directories  : /global/cscratch1/sd/gwang18
 Wavefunction directory         : /global/homes/g/gwang18/wfu/
 Main file repository           : /global/cscratch1/sd/gwang18/

 SHA1      : 19cd028119e0e09f93f0674bd8af7968d9b3eff6
 NAME      : 2015.1.36
 ARCHNAME  : linux/x86_64
 FC        : /opt/cray/pe/craype/2.5.14/bin/ftn
 BLASLIB   : -L/opt/intel/compilers_and_libraries_2018.1.163/linux/mkl/lib/intel64 -Wl,-_start-group -lmkl_intel_ilp64 -lmkl_intel_thread -lmkl_core -Wl,-_end-group -liomp5
 id        : lbl

 Nodes     nprocs
 nid00758    15
 Number of processes for MPI-2 version of Molpro:   nprocs(total)=   16   nprocs(compute)=   15   nprocs(helper)=    1

 Using customized tuning parameters: mindgm=7; mindgv=16; mindgc=1; mindgr=1; noblas=0; minvec=7
 default implementation of scratch files=sf  

 ***,Te
 memory,512,m
 
 gthresh,twoint=1.e-12
 gprint,basis,orbitals
 
 angstrom
 geometry={
 1                                                                               ! Number of atoms
 Te 0.0 0.0 0.0
 }
 
 
 basis={
 Including file /global/u2/g/gwang18/projects/cc-so-ecp/te/basis/plot-check/aug-cc-basis/ecp.molpro
 Including file /global/u2/g/gwang18/projects/cc-so-ecp/te/basis/plot-check/aug-cc-basis/../../basis/Te.aug-cc-pVQZ.molpro
 }
 
 {rhf
  start,atden
  wf,6,4,2
  occ,1,1,1,0,1,0,0,0
  closed,1,0,0,0,1,0,0,0
  orbital,4202.2
 }
 pop
 {multi
  start,4202.2
  occ,1,1,1,0,1,0,0,0
  closed,1,0,0,0,0,0,0,0
  wf,6,4,2;state,1
  wf,6,6,2;state,1
  wf,6,7,2;state,1
  natorb,ci,print
  orbital,5202.2
 }
 {rhf,nitord=1,maxit=0
  start,5202.2
  wf,6,4,2
  occ,1,1,1,0,1,0,0,0
  closed,1,0,0,0,1,0,0,0
  print,orbitals=2
 }
 scf(1)=energy
 {uccsd(t);maxit,100;core}
 ccsd(1)=energy
 
 
 table,scf,ccsd
 save
 type,csv
 

 Variables initialized (889), CPU time= 0.01 sec
 Commands  initialized (702), CPU time= 0.01 sec, 572 directives.
 Default parameters read. Elapsed time= 0.21 sec

 Checking input...
 Passed
1


                                         ***  PROGRAM SYSTEM MOLPRO  ***
                                       Copyright, TTI GmbH Stuttgart, 2015
                                    Version 2015.1 linked Dec 29 2018 15:55:43


 **********************************************************************************************************************************
 LABEL *   Te                                                                            
  64 bit mpp version                                                                     DATE: 16-Dec-21          TIME: 20:02:49  
 **********************************************************************************************************************************

 SHA1:             19cd028119e0e09f93f0674bd8af7968d9b3eff6
 **********************************************************************************************************************************

 THRESHOLDS:

 ZERO    =  1.00D-12  ONEINT  =  1.00D-12  TWOINT  =  1.00D-12  PREFAC  =  1.00D-14  LOCALI  =  1.00D-09  EORDER  =  1.00D-04
 ENERGY  =  0.00D+00  ETEST   =  0.00D+00  EDENS   =  0.00D+00  THRDEDEF=  1.00D-06  GRADIENT=  1.00D-02  STEP    =  1.00D-03
 ORBITAL =  1.00D-05  CIVEC   =  1.00D-05  COEFF   =  1.00D-04  PRINTCI =  5.00D-02  PUNCHCI =  9.90D+01  OPTGRAD =  3.00D-04
 OPTENERG=  1.00D-06  OPTSTEP =  3.00D-04  THRGRAD =  1.00D-10  COMPRESS=  1.00D-11  VARMIN  =  1.00D-07  VARMAX  =  1.00D-03
 THRDOUB =  0.00D+00  THRDIV  =  1.00D-05  THRRED  =  1.00D-07  THRPSP  =  1.00D+00  THRDC   =  1.00D-10  THRCS   =  1.00D-10
 THRNRM  =  1.00D-08  THREQ   =  0.00D+00  THRDE   =  1.00D+00  THRREF  =  1.00D-05  SPARFAC =  1.00D+00  THRDLP  =  1.00D-07
 THRDIA  =  1.00D-10  THRDLS  =  1.00D-07  THRGPS  =  0.00D+00  THRKEX  =  0.00D+00  THRDIS  =  2.00D-01  THRVAR  =  1.00D-10
 THRLOC  =  1.00D-06  THRGAP  =  1.00D-06  THRLOCT = -1.00D+00  THRGAPT = -1.00D+00  THRORB  =  1.00D-06  THRMLTP =  0.00D+00
 THRCPQCI=  1.00D-10  KEXTA   =  0.00D+00  THRCOARS=  0.00D+00  SYMTOL  =  1.00D-06  GRADTOL =  1.00D-06  THROVL  =  1.00D-08
 THRORTH =  1.00D-08  GRID    =  1.00D-06  GRIDMAX =  1.00D-03  DTMAX   =  0.00D+00  THROCCDE=  1.00D-01  THROCCDE=  1.00D-01



 ZUNIT=ANG
 

Geometry recognized as XYZ


 Variable memory set to  512000000 words,  buffer space   230000 words

 SETTING BASIS          =    USERDEF


 Recomputing integrals since basis changed


 Using spherical harmonics



 PROGRAM * SEWARD (Integral evaluation for generally contracted gaussian basis sets)     Author: Roland Lindh, 1990

 Geometry written to block  1 of record 700

 Orientation using atomic masses  
 Molecule type: Atom
 Symmetry elements: X,Y,Z
 Rotational constants:       0.0000000      0.0000000      0.0000000 GHz  (calculated with average atomic masses)

 Point group  D2h 



 ATOMIC COORDINATES

 NR  ATOM    CHARGE       X              Y              Z

   1  TE      6.00    0.000000000    0.000000000    0.000000000


          TE  CORE POTENTIAL

          f POTENTIAL

 POWERS             1              3              2
 EXPONENTIALS   12.00000       12.00000       12.00000    
 COEFFICIENTS   6.000000       72.00000      -50.50513    

          s - f POTENTIAL

 POWERS             2              2
 EXPONENTIALS   2.656483       2.281974    
 COEFFICIENTS   48.28056      -1.021525    

          p - f POTENTIAL

 POWERS             2              2              2              2
 EXPONENTIALS   2.946988       2.790001       1.750168       1.909579    
 COEFFICIENTS   39.65602       79.54483      -2.600491      -2.728455    

          d - f POTENTIAL

 POWERS             2              2
 EXPONENTIALS   1.107233       1.084059    
 COEFFICIENTS   6.846462       9.411814    


 BASIS DATA

   Nr Sym  Nuc  Type         Exponents   Contraction coefficients

    1.1 Ag    1  1s          61.221383     0.000095
                             29.235423    -0.000554
                             13.960971     0.003321
                              6.666868    -0.022845
                              3.183670     0.181678
                              1.520318    -0.486331
                              0.726007    -0.123985
                              0.346694     0.540846
                              0.165559     0.576067
                              0.079060     0.181822
    2.1 Ag    1  1s           0.490488     1.000000
    3.1 Ag    1  1s           0.224433     1.000000
    4.1 Ag    1  1s           0.102694     1.000000
    5.1 Ag    1  1s           0.041078     1.000000
    6.1 Ag    1  3d0          0.966444     1.000000
    7.1 Ag    1  3d2+         0.966444     1.000000
    8.1 Ag    1  3d0          0.396049     1.000000
    9.1 Ag    1  3d2+         0.396049     1.000000
   10.1 Ag    1  3d0          0.162301     1.000000
   11.1 Ag    1  3d2+         0.162301     1.000000
   12.1 Ag    1  3d0          0.064920     1.000000
   13.1 Ag    1  3d2+         0.064920     1.000000
   14.1 Ag    1  5g0          0.440806     1.000000
   15.1 Ag    1  5g4+         0.440806     1.000000
   16.1 Ag    1  5g2+         0.440806     1.000000
   17.1 Ag    1  5g0          0.176322     1.000000
   18.1 Ag    1  5g4+         0.176322     1.000000
   19.1 Ag    1  5g2+         0.176322     1.000000
    1.2 B3u   1  2px         32.189072    -0.000331
                             15.412922     0.002152
                              7.380087    -0.013183
                              3.533768     0.077631
                              1.692055    -0.217605
                              0.810198    -0.015684
                              0.387943     0.319583
                              0.185757     0.473258
                              0.088945     0.308320
                              0.042589     0.065951
    2.2 B3u   1  2px          0.488479     1.000000
    3.2 B3u   1  2px          0.192508     1.000000
    4.2 B3u   1  2px          0.075867     1.000000
    5.2 B3u   1  2px          0.030347     1.000000
    6.2 B3u   1  4f1+         0.523179     1.000000
    7.2 B3u   1  4f3+         0.523179     1.000000
    8.2 B3u   1  4f1+         0.216817     1.000000
    9.2 B3u   1  4f3+         0.216817     1.000000
   10.2 B3u   1  4f1+         0.086727     1.000000
   11.2 B3u   1  4f3+         0.086727     1.000000
    1.3 B2u   1  2py         32.189072    -0.000331
                             15.412922     0.002152
                              7.380087    -0.013183
                              3.533768     0.077631
                              1.692055    -0.217605
                              0.810198    -0.015684
                              0.387943     0.319583
                              0.185757     0.473258
                              0.088945     0.308320
                              0.042589     0.065951
    2.3 B2u   1  2py          0.488479     1.000000
    3.3 B2u   1  2py          0.192508     1.000000
    4.3 B2u   1  2py          0.075867     1.000000
    5.3 B2u   1  2py          0.030347     1.000000
    6.3 B2u   1  4f1-         0.523179     1.000000
    7.3 B2u   1  4f3-         0.523179     1.000000
    8.3 B2u   1  4f1-         0.216817     1.000000
    9.3 B2u   1  4f3-         0.216817     1.000000
   10.3 B2u   1  4f1-         0.086727     1.000000
   11.3 B2u   1  4f3-         0.086727     1.000000
    1.4 B1g   1  3d2-         0.966444     1.000000
    2.4 B1g   1  3d2-         0.396049     1.000000
    3.4 B1g   1  3d2-         0.162301     1.000000
    4.4 B1g   1  3d2-         0.064920     1.000000
    5.4 B1g   1  5g2-         0.440806     1.000000
    6.4 B1g   1  5g4-         0.440806     1.000000
    7.4 B1g   1  5g2-         0.176322     1.000000
    8.4 B1g   1  5g4-         0.176322     1.000000
    1.5 B1u   1  2pz         32.189072    -0.000331
                             15.412922     0.002152
                              7.380087    -0.013183
                              3.533768     0.077631
                              1.692055    -0.217605
                              0.810198    -0.015684
                              0.387943     0.319583
                              0.185757     0.473258
                              0.088945     0.308320
                              0.042589     0.065951
    2.5 B1u   1  2pz          0.488479     1.000000
    3.5 B1u   1  2pz          0.192508     1.000000
    4.5 B1u   1  2pz          0.075867     1.000000
    5.5 B1u   1  2pz          0.030347     1.000000
    6.5 B1u   1  4f0          0.523179     1.000000
    7.5 B1u   1  4f2+         0.523179     1.000000
    8.5 B1u   1  4f0          0.216817     1.000000
    9.5 B1u   1  4f2+         0.216817     1.000000
   10.5 B1u   1  4f0          0.086727     1.000000
   11.5 B1u   1  4f2+         0.086727     1.000000
    1.6 B2g   1  3d1+         0.966444     1.000000
    2.6 B2g   1  3d1+         0.396049     1.000000
    3.6 B2g   1  3d1+         0.162301     1.000000
    4.6 B2g   1  3d1+         0.064920     1.000000
    5.6 B2g   1  5g1+         0.440806     1.000000
    6.6 B2g   1  5g3+         0.440806     1.000000
    7.6 B2g   1  5g1+         0.176322     1.000000
    8.6 B2g   1  5g3+         0.176322     1.000000
    1.7 B3g   1  3d1-         0.966444     1.000000
    2.7 B3g   1  3d1-         0.396049     1.000000
    3.7 B3g   1  3d1-         0.162301     1.000000
    4.7 B3g   1  3d1-         0.064920     1.000000
    5.7 B3g   1  5g1-         0.440806     1.000000
    6.7 B3g   1  5g3-         0.440806     1.000000
    7.7 B3g   1  5g1-         0.176322     1.000000
    8.7 B3g   1  5g3-         0.176322     1.000000
    1.8 Au    1  4f2-         0.523179     1.000000
    2.8 Au    1  4f2-         0.216817     1.000000
    3.8 Au    1  4f2-         0.086727     1.000000

 NUCLEAR CHARGE:                    6
 NUMBER OF PRIMITIVE AOS:         140
 NUMBER OF SYMMETRY AOS:          115
 NUMBER OF CONTRACTIONS:           79   (  19Ag  +  11B3u +  11B2u +   8B1g +  11B1u +   8B2g +   8B3g +   3Au  )
 NUMBER OF CORE ORBITALS:           0   (   0Ag  +   0B3u +   0B2u +   0B1g +   0B1u +   0B2g +   0B3g +   0Au  )
 NUMBER OF VALENCE ORBITALS:        4   (   1Ag  +   1B3u +   1B2u +   0B1g +   1B1u +   0B2g +   0B3g +   0Au  )


 NUCLEAR REPULSION ENERGY    0.00000000

 EXTRA SYMMETRY OF AOS IN SYMMETRY 1:   1 1 1 1 1 2 3 2 3 2   3 2 3 4 5 6 4 5 6
 EXTRA SYMMETRY OF AOS IN SYMMETRY 2:   1 1 1 1 1 2 3 2 3 2   3
 EXTRA SYMMETRY OF AOS IN SYMMETRY 3:   1 1 1 1 1 2 3 2 3 2   3
 EXTRA SYMMETRY OF AOS IN SYMMETRY 4:   1 1 1 1 2 3 2 3
 EXTRA SYMMETRY OF AOS IN SYMMETRY 5:   1 1 1 1 1 2 3 2 3 2   3
 EXTRA SYMMETRY OF AOS IN SYMMETRY 6:   1 1 1 1 2 3 2 3
 EXTRA SYMMETRY OF AOS IN SYMMETRY 7:   1 1 1 1 2 3 2 3

 Eigenvalues of metric

         1 0.287E-02 0.225E-01 0.752E-01 0.752E-01 0.187E+00 0.355E+00 0.355E+00 0.428E+00
         2 0.685E-02 0.513E-01 0.183E+00 0.183E+00 0.294E+00 0.801E+00 0.801E+00 0.105E+01
         3 0.685E-02 0.513E-01 0.183E+00 0.183E+00 0.294E+00 0.801E+00 0.801E+00 0.105E+01
         4 0.752E-01 0.355E+00 0.428E+00 0.428E+00 0.113E+01 0.157E+01 0.157E+01 0.244E+01
         5 0.685E-02 0.513E-01 0.183E+00 0.183E+00 0.294E+00 0.801E+00 0.801E+00 0.105E+01
         6 0.752E-01 0.355E+00 0.428E+00 0.428E+00 0.113E+01 0.157E+01 0.157E+01 0.244E+01
         7 0.752E-01 0.355E+00 0.428E+00 0.428E+00 0.113E+01 0.157E+01 0.157E+01 0.244E+01
         8 0.183E+00 0.801E+00 0.202E+01


 Contracted 2-electron integrals neglected if value below      1.0D-12
 AO integral compression algorithm  1   Integral accuracy      1.0D-12

     8.389 MB (compressed) written to integral file ( 81.0%)

     Node minimum: 0.262 MB, node maximum: 0.786 MB


 NUMBER OF SORTED TWO-ELECTRON INTEGRALS:      43737.     BUFFER LENGTH:  32768
 NUMBER OF SEGMENTS:   1  SEGMENT LENGTH:      43737      RECORD LENGTH: 524288

 Memory used in sort:       0.60 MW

 SORT1 READ     1222209. AND WROTE       32586. INTEGRALS IN      1 RECORDS. CPU TIME:     0.04 SEC, REAL TIME:     0.08 SEC
 SORT2 READ      500866. AND WROTE      665704. INTEGRALS IN     30 RECORDS. CPU TIME:     0.00 SEC, REAL TIME:     0.03 SEC

 Node minimum:       37584.  Node maximum:       51331. integrals

 OPERATOR DM      FOR CENTER  0  COORDINATES:    0.000000    0.000000    0.000000


 **********************************************************************************************************************************
 DATASETS  * FILE   NREC   LENGTH (MB)   RECORD NAMES
              1      19       19.93       500      610      700      900      950      970     1000      129      960     1100   
                                          VAR    BASINP    GEOM    SYMINP    ZMAT    AOBASIS   BASIS     P2S    ABASIS      S 
                                         1400     1410     1420     1200     1210     1080     1600     1650     1700   
                                           T        V       ECP      H0       H01     AOSYM     SMH    MOLCAS    OPER   

 PROGRAMS   *        TOTAL       INT
 CPU TIMES  *         1.10      0.65
 REAL TIME  *         2.38 SEC
 DISK USED  *        68.04 MB      
 GA USED    *         0.00 MB       (max)       0.00 MB       (current)
 **********************************************************************************************************************************


 PROGRAM * RHF-SCF (OPEN SHELL)       Authors: W. Meyer, H.-J. Werner


 NUMBER OF ELECTRONS:       4+    2-    SPACE SYMMETRY=4    SPIN SYMMETRY: Triplet 
 CONVERGENCE THRESHOLDS:    1.00E-05 (Density)    1.00E-07 (Energy)
 MAX. NUMBER OF ITERATIONS:       60
 INTERPOLATION TYPE:            DIIS
 INTERPOLATION STEPS:              2 (START)      1 (STEP)
 LEVEL SHIFTS:                 -0.60 (CLOSED) -0.30 (OPEN) 

 Number of closed-shell orbitals:    2 (   1   0   0   0   1   0   0   0 )
 Number of open-shell orbitals:      2 (   0   1   1   0   0   0   0   0 )



   Atom=TE basis=ECP46MDF_GUESS    lmin=0  lmax=1

 Orbital guess generated from atomic densities. Full valence occupancy:    1   1   1   0   1   0   0   0


 Molecular orbital dump at record        4202.2

 ITERATION    DDIFF          GRAD             ENERGY        2-EL.EN.            DIPOLE MOMENTS         DIIS   ORB.
    1      0.000D+00      0.000D+00        -8.00477528      9.904189    0.00000    0.00000    0.00000    0    start
    2      0.000D+00      0.515D-02        -8.00876993      9.998606    0.00000    0.00000    0.00000    1    diag,B
    3      0.633D-02      0.188D-02        -8.00968447     10.049852    0.00000    0.00000    0.00000    2    diag,B
    4      0.273D-02      0.580D-03        -8.00978752     10.062260    0.00000    0.00000    0.00000    3    diag,B
    5      0.130D-02      0.151D-03        -8.00979407     10.063530    0.00000    0.00000    0.00000    4    diag,B
    6      0.410D-03      0.447D-04        -8.00979455     10.063617    0.00000    0.00000    0.00000    5    diag,B
    7      0.174D-03      0.900D-05        -8.00979457     10.063543    0.00000    0.00000    0.00000    6    fixocc
    8      0.285D-04      0.199D-05        -8.00979457     10.063539    0.00000    0.00000    0.00000    7    diag,B
    9      0.677D-05      0.481D-06        -8.00979457     10.063538    0.00000    0.00000    0.00000    0    orth

 Final alpha occupancy:   1   1   1   0   1   0   0   0
 Final beta  occupancy:   1   0   0   0   1   0   0   0

 !RHF STATE 1.4 Energy                 -8.009794568859
 Nuclear energy                         0.00000000
 One-electron energy                  -13.04156355
 Two-electron energy                    5.03176898
 Virial quotient                       -3.11227543
 !RHF STATE 1.4 Dipole moment           0.00000000     0.00000000     0.00000000
 Dipole moment /Debye                   0.00000000     0.00000000     0.00000000

 ELECTRON ORBITALS
 =================


   Orb  Occ    Energy  Couls-En    Coefficients

                                   1 1s      1 1s      1 1s      1 1s      1 1s      1 3d0     1 3d2+    1 3d0     1 3d2+    1 3d0  
                                   1 3d2+    1 3d0     1 3d2+    1 5g0     1 5g4+    1 5g2+    1 5g0     1 5g4+    1 5g2+ 

   1.1   2    -0.7640   -3.2954  0.999144 -0.001622  0.004538 -0.004012  0.002082 -0.000015  0.000000 -0.001580 -0.000000  0.005361
                                 0.000000  0.003104 -0.000000  0.000022  0.000000 -0.000000 -0.000050 -0.000000  0.000000

                                   1 2px     1 2px     1 2px     1 2px     1 2px     1 4f1+    1 4f3+    1 4f1+    1 4f3+    1 4f1+ 
                                   1 4f3+ 

   1.2   +    -0.3977   -2.4052  1.016593 -0.002060  0.016056 -0.031093 -0.008713 -0.008827 -0.000000 -0.015316  0.000000 -0.004202
                                -0.000000

                                   1 2py     1 2py     1 2py     1 2py     1 2py     1 4f1-    1 4f3-    1 4f1-    1 4f3-    1 4f1- 
                                   1 4f3- 

   1.3   +    -0.3977   -2.4052  1.016593 -0.002060  0.016056 -0.031093 -0.008713 -0.008827  0.000000 -0.015316 -0.000000 -0.004202
                                 0.000000

                                   1 2pz     1 2pz     1 2pz     1 2pz     1 2pz     1 4f0     1 4f2+    1 4f0     1 4f2+    1 4f0  
                                   1 4f2+ 

   1.5   2    -0.3273   -2.3092  0.983808  0.002115 -0.015282  0.026700  0.011836 -0.004448 -0.000000 -0.008240 -0.000000 -0.003222
                                -0.000000

 HOMO      1.5    -0.327255 =      -8.9051eV
 LUMO      2.1     0.074450 =       2.0259eV
 LUMO-HOMO         0.401705 =      10.9310eV


 **********************************************************************************************************************************
 DATASETS  * FILE   NREC   LENGTH (MB)   RECORD NAMES
              1      19       19.93       500      610      700      900      950      970     1000      129      960     1100   
                                          VAR    BASINP    GEOM    SYMINP    ZMAT    AOBASIS   BASIS     P2S    ABASIS      S 
                                         1400     1410     1420     1200     1210     1080     1600     1650     1700   
                                           T        V       ECP      H0       H01     AOSYM     SMH    MOLCAS    OPER   

              2       4        2.78       700     1000      520     4202   
                                         GEOM     BASIS   MCVARS     RHF  

 PROGRAMS   *        TOTAL       RHF       INT
 CPU TIMES  *         1.17      0.07      0.65
 REAL TIME  *         2.64 SEC
 DISK USED  *       411.38 MB      
 SF USED    *         0.00 MB      
 GA USED    *         0.00 MB       (max)       0.00 MB       (current)
 **********************************************************************************************************************************


 PROGRAM * POP (Mulliken population analysis)

 
 Density matrix read from record         4202.2  Type=RHF/CHARGE (state 1.4)
 
 Population analysis by basis function type

 Unique atom        s        p        d        f        g    Total    Charge
   1  TE      1.99990  3.99842  0.00010  0.00158  0.00000  6.00000  - 0.00000


 **********************************************************************************************************************************
 DATASETS  * FILE   NREC   LENGTH (MB)   RECORD NAMES
              1      19       19.93       500      610      700      900      950      970     1000      129      960     1100   
                                          VAR    BASINP    GEOM    SYMINP    ZMAT    AOBASIS   BASIS     P2S    ABASIS      S 
                                         1400     1410     1420     1200     1210     1080     1600     1650     1700   
                                           T        V       ECP      H0       H01     AOSYM     SMH    MOLCAS    OPER   

              2       4        2.78       700     1000      520     4202   
                                         GEOM     BASIS   MCVARS     RHF  

 PROGRAMS   *        TOTAL       POP       RHF       INT
 CPU TIMES  *         1.17      0.00      0.07      0.65
 REAL TIME  *         2.67 SEC
 DISK USED  *       411.38 MB      
 SF USED    *         0.00 MB      
 GA USED    *         0.00 MB       (max)       0.00 MB       (current)
 **********************************************************************************************************************************


 PROGRAM * MULTI (Direct Multiconfiguration SCF)       Authors: P.J. Knowles, H.-J. Werner (1984)     S.T. Elbert (1988)


 Number of closed-shell orbitals:   1 (   1   0   0   0   0   0   0   0 )
 Number of active  orbitals:        3 (   0   1   1   0   1   0   0   0 )
 Number of external orbitals:      75 (  18  10  10   8  10   8   8   3 )

 State symmetry 1

 Number of electrons:     4    Spin symmetry=Triplet   Space symmetry=4
 Number of states:        1
 Number of CSFs:          1   (1 determinants, 3 intermediate states)

 State symmetry 2

 Number of electrons:     4    Spin symmetry=Triplet   Space symmetry=6
 Number of states:        1
 Number of CSFs:          1   (1 determinants, 3 intermediate states)

 State symmetry 3

 Number of electrons:     4    Spin symmetry=Triplet   Space symmetry=7
 Number of states:        1
 Number of CSFs:          1   (1 determinants, 3 intermediate states)

 Molecular orbitals read from record     4202.2  Type=RHF/CANONICAL (state 1.4)
 *** IN SYMMETRY 1 ORBITAL  1 SYMMETRY CONTAMINATION OF 0.992D-02 HAS BEEN REMOVED

 EXTRA SYMMETRY OF MOS IN SYMMETRY 1:   1 1 3 2 1 3 2 5 6 4   3 2 1 5 6 4 3 2 1
 *** IN SYMMETRY 2 ORBITAL  1 SYMMETRY CONTAMINATION OF 0.257D-01 HAS BEEN REMOVED
 EXTRA SYMMETRY OF MOS IN SYMMETRY 2:   1 1 3 2 1 3 2 1 3 2   1
 *** IN SYMMETRY 3 ORBITAL  1 SYMMETRY CONTAMINATION OF 0.257D-01 HAS BEEN REMOVED
 EXTRA SYMMETRY OF MOS IN SYMMETRY 3:   1 1 3 2 1 3 2 1 3 2   1
 EXTRA SYMMETRY OF MOS IN SYMMETRY 4:   1 1 3 2 1 3 2 1
 *** IN SYMMETRY 5 ORBITAL  1 SYMMETRY CONTAMINATION OF 0.151D-01 HAS BEEN REMOVED
 EXTRA SYMMETRY OF MOS IN SYMMETRY 5:   1 1 3 2 1 3 2 1 3 2   1
 EXTRA SYMMETRY OF MOS IN SYMMETRY 6:   1 1 3 2 1 3 2 1
 EXTRA SYMMETRY OF MOS IN SYMMETRY 7:   1 1 3 2 1 3 2 1

 Wavefunction dump at record             5202.2

 Convergence thresholds  0.10E-01 (gradient)  0.10E-05 (energy)  0.10E-02 (step length)

 Weight factors for state symmetry  1:    0.33333
 Weight factors for state symmetry  2:    0.33333
 Weight factors for state symmetry  3:    0.33333

 Number of orbital rotations:       48   (     0 Core/Active     18 Core/Virtual   0 Active/Active     30 Active/Virtual)
 Total number of variables:         51


 ITER. MIC  NCI  NEG     ENERGY(VAR)     ENERGY(PROJ)   ENERGY CHANGE     GRAD(0)  GRAD(ORB)   GRAD(CI)     STEP       TIME

   1   22   12    0      -8.00655655      -8.00739226   -0.00083571    0.02256508 0.00000000 0.00000000  0.41D-01      0.04
   2   13   12    0      -8.00739443      -8.00739445   -0.00000002    0.00012203 0.00000000 0.00000000  0.18D-03      0.07
   3   15   12    0      -8.00739445      -8.00739445    0.00000000    0.00000000 0.00000000 0.00000000  0.46D-08      0.09

 ** WVFN ****  CONVERGENCE REACHED, FINAL GRADIENT:  0.11D-13



 Results for state 1.4
 =====================

 !MCSCF STATE 1.4 Energy               -8.007394449497
 Nuclear energy                         0.00000000
 Kinetic energy                         2.57147050
 One electron energy                  -13.04431682
 Two electron energy                    5.03692237
 Virial ratio                           4.11393595

 !MCSCF STATE 1.4 Dipole moment         0.00000000     0.00000000     0.00000000
 Dipole moment /Debye                   0.00000000     0.00000000     0.00000000



 Results for state 1.6
 =====================

 !MCSCF STATE 1.6 Energy               -8.007394449497
 Nuclear energy                         0.00000000
 Kinetic energy                         2.57147050
 One electron energy                  -13.04431682
 Two electron energy                    5.03692237
 Virial ratio                           4.11393595

 !MCSCF STATE 1.6 Dipole moment         0.00000000     0.00000000     0.00000000
 Dipole moment /Debye                   0.00000000     0.00000000     0.00000000



 Results for state 1.7
 =====================

 !MCSCF STATE 1.7 Energy               -8.007394449497
 Nuclear energy                         0.00000000
 Kinetic energy                         2.57147050
 One electron energy                  -13.04431682
 Two electron energy                    5.03692237
 Virial ratio                           4.11393595

 !MCSCF STATE 1.7 Dipole moment         0.00000000     0.00000000     0.00000000
 Dipole moment /Debye                   0.00000000     0.00000000     0.00000000

 State-averaged charge density matrix saved on record  5202.2 (density set 1)


 NATURAL ORBITALS (state averaged)
 =================================

   Orb     Occ        Energy       Coefficients

                                   1 1s      1 1s      1 1s      1 1s      1 1s      1 3d0     1 3d2+    1 3d0     1 3d2+    1 3d0  
                                   1 3d2+    1 3d0     1 3d2+    1 5g0     1 5g4+    1 5g2+    1 5g0     1 5g4+    1 5g2+ 

   1.1  2.00000    -0.763922     0.999102 -0.001511  0.004108 -0.003573  0.002048  0.000000  0.000000  0.000000  0.000000  0.000000
                                 0.000000  0.000000  0.000000  0.000000  0.000000  0.000000  0.000000  0.000000  0.000000

                                   1 2px     1 2px     1 2px     1 2px     1 2px     1 4f1+    1 4f3+    1 4f1+    1 4f3+    1 4f1+ 
                                   1 4f3+ 

   1.2  1.33333    -0.240667     0.999968 -0.000018  0.000088 -0.000138  0.000148  0.000000  0.000000  0.000000  0.000000  0.000000
                                 0.000000

                                   1 2py     1 2py     1 2py     1 2py     1 2py     1 4f1-    1 4f3-    1 4f1-    1 4f3-    1 4f1- 
                                   1 4f3- 

   1.3  1.33333    -0.240667     0.999968 -0.000018  0.000088 -0.000138  0.000148  0.000000  0.000000  0.000000  0.000000  0.000000
                                 0.000000

                                   1 2pz     1 2pz     1 2pz     1 2pz     1 2pz     1 4f0     1 4f2+    1 4f0     1 4f2+    1 4f0  
                                   1 4f2+ 

   1.5  1.33333    -0.240667     0.999968 -0.000018  0.000088 -0.000138  0.000148  0.000000  0.000000  0.000000  0.000000  0.000000
                                 0.000000
 

 EXTRA SYMMETRY OF MOS IN SYMMETRY 1:   1 1 2 3 1 2 3 6 4 5   2 3 1 5 6 4 2 3 1
 EXTRA SYMMETRY OF MOS IN SYMMETRY 2:   1 1 3 2 1 2 3 1 2 3   1
 EXTRA SYMMETRY OF MOS IN SYMMETRY 3:   1 1 3 2 1 2 3 1 2 3   1
 EXTRA SYMMETRY OF MOS IN SYMMETRY 4:   1 1 2 3 1 3 2 1

 Natural orbital dump (state averaged) at molpro section  5202.2    (Orbital set 2)


 CI vector for state symmetry 1
 ==============================

 a a 2           1.0000000

 TOTAL ENERGIES                        -8.00739445

 CI vector for state symmetry 2
 ==============================

 a 2 a           1.0000000

 TOTAL ENERGIES                        -8.00739445

 CI vector for state symmetry 3
 ==============================

 2 a a           1.0000000

 TOTAL ENERGIES                        -8.00739445



 **********************************************************************************************************************************
 DATASETS  * FILE   NREC   LENGTH (MB)   RECORD NAMES
              1      20       20.05       500      610      700      900      950      970     1000      129      960     1100   
                                          VAR    BASINP    GEOM    SYMINP    ZMAT    AOBASIS   BASIS     P2S    ABASIS      S 
                                         1400     1410     1420     1200     1210     1080     1600     1650     1700     1380   
                                           T        V       ECP      H0       H01     AOSYM     SMH    MOLCAS    OPER     JKOP   

              2       5        5.31       700     1000      520     4202     5202   
                                         GEOM     BASIS   MCVARS     RHF     MCSCF   

 PROGRAMS   *        TOTAL     MULTI       POP       RHF       INT
 CPU TIMES  *         1.31      0.14      0.00      0.07      0.65
 REAL TIME  *         3.56 SEC
 DISK USED  *       411.38 MB      
 SF USED    *         9.34 MB      
 GA USED    *         0.00 MB       (max)       0.00 MB       (current)
 **********************************************************************************************************************************


 PROGRAM * RHF-SCF (OPEN SHELL)       Authors: W. Meyer, H.-J. Werner


 NUMBER OF ELECTRONS:       4+    2-    SPACE SYMMETRY=4    SPIN SYMMETRY: Triplet 
 CONVERGENCE THRESHOLDS:    1.00E-05 (Density)    1.00E-07 (Energy)
 MAX. NUMBER OF ITERATIONS:        0
 INTERPOLATION TYPE:            DIIS
 INTERPOLATION STEPS:              2 (START)      1 (STEP)
 LEVEL SHIFTS:                 -0.60 (CLOSED) -0.30 (OPEN) 

 Number of closed-shell orbitals:    2 (   1   0   0   0   1   0   0   0 )
 Number of open-shell orbitals:      2 (   0   1   1   0   0   0   0   0 )


 Molecular orbitals read from record     5202.2  Type=MCSCF/NATURAL (state averaged)

 Molecular orbital dump at record        2101.2

 ITERATION    DDIFF          GRAD             ENERGY        2-EL.EN.            DIPOLE MOMENTS         DIIS   ORB.
    1      0.000D+00      0.000D+00        -8.00739445     10.073845    0.00000    0.00000    0.00000    0    start

 Final alpha occupancy:   1   1   1   0   1   0   0   0
 Final beta  occupancy:   1   0   0   0   1   0   0   0

 !RHF STATE 1.4 Energy                 -8.007394449497
 Nuclear energy                         0.00000000
 One-electron energy                  -13.04431682
 Two-electron energy                    5.03692237
 Virial quotient                       -3.11393595
 !RHF STATE 1.4 Dipole moment           0.00000000     0.00000000     0.00000000
 Dipole moment /Debye                   0.00000000     0.00000000     0.00000000

 ELECTRON ORBITALS
 =================


   Orb  Occ    Energy  Couls-En    Coefficients

                                   1 1s      1 1s      1 1s      1 1s      1 1s      1 3d0     1 3d2+    1 3d0     1 3d2+    1 3d0  
                                   1 3d2+    1 3d0     1 3d2+    1 5g0     1 5g4+    1 5g2+    1 5g0     1 5g4+    1 5g2+ 

   1.1   2    -0.7639   -3.2953  0.999102 -0.001511  0.004108 -0.003573  0.002048  0.000000  0.000000  0.000000  0.000000  0.000000
                                 0.000000  0.000000  0.000000  0.000000  0.000000  0.000000  0.000000  0.000000  0.000000

   2.1   0     0.0803   -0.9454 -0.506876 -0.341879  1.072128 -1.924154  2.144077  0.000000  0.000000  0.000000  0.000000  0.000000
                                 0.000000  0.000000  0.000000  0.000000  0.000000  0.000000  0.000000  0.000000  0.000000

   3.1   0     0.1730   -0.8545  0.000000  0.000000  0.000000  0.000000  0.000000 -0.036165  0.000000  0.126026  0.000000 -0.205354
                                 0.000000  1.107560  0.000000  0.000000  0.000000  0.000000  0.000000  0.000000  0.000000

                                   1 2px     1 2px     1 2px     1 2px     1 2px     1 4f1+    1 4f3+    1 4f1+    1 4f3+    1 4f1+ 
                                   1 4f3+ 

   1.2   +    -0.2407   -2.2361  0.999968 -0.000018  0.000088 -0.000138  0.000148  0.000000  0.000000  0.000000  0.000000  0.000000
                                 0.000000

   2.2   0     0.0831   -0.6971 -0.326942 -0.061444  0.304734 -0.857426  1.543025  0.000000  0.000000  0.000000  0.000000  0.000000
                                 0.000000

   3.2   0     0.3433   -0.4996  0.000000  0.000000  0.000000  0.000000  0.000000  0.000000  0.085522  0.000000 -0.244894  0.000000
                                 1.127664

                                   1 2py     1 2py     1 2py     1 2py     1 2py     1 4f1-    1 4f3-    1 4f1-    1 4f3-    1 4f1- 
                                   1 4f3- 

   1.3   +    -0.2407   -2.2361  0.999968 -0.000018  0.000088 -0.000138  0.000148  0.000000  0.000000  0.000000  0.000000  0.000000
                                 0.000000

   2.3   0     0.0831   -0.6971 -0.326942 -0.061444  0.304734 -0.857426  1.543025  0.000000  0.000000  0.000000  0.000000  0.000000
                                 0.000000

   3.3   0     0.3433   -0.4996  0.000000  0.000000  0.000000  0.000000  0.000000  0.000000  0.085522  0.000000 -0.244894  0.000000
                                 1.127664

                                   1 3d2-    1 3d2-    1 3d2-    1 3d2-    1 5g2-    1 5g4-    1 5g2-    1 5g4- 

   1.4   0     0.1730   -0.8545 -0.036165  0.126026 -0.205354  1.107560  0.000000  0.000000  0.000000  0.000000

   2.4   0     0.5085   -0.6073  0.013353 -0.235982  1.618570 -0.995572  0.000000  0.000000  0.000000  0.000000

                                   1 2pz     1 2pz     1 2pz     1 2pz     1 2pz     1 4f0     1 4f2+    1 4f0     1 4f2+    1 4f0  
                                   1 4f2+ 

   1.5   2    -0.2407   -2.2361  0.999968 -0.000018  0.000088 -0.000138  0.000148  0.000000  0.000000  0.000000  0.000000  0.000000
                                 0.000000

   2.5   0     0.0831   -0.6971 -0.326942 -0.061444  0.304734 -0.857426  1.543025  0.000000  0.000000  0.000000  0.000000  0.000000
                                 0.000000

   3.5   0     0.3433   -0.4996  0.000000  0.000000  0.000000  0.000000  0.000000  0.000000  0.085522  0.000000 -0.244894  0.000000
                                 1.127664

                                   1 3d1+    1 3d1+    1 3d1+    1 3d1+    1 5g1+    1 5g3+    1 5g1+    1 5g3+ 

   1.6   0     0.1730   -0.8545 -0.036165  0.126026 -0.205354  1.107560  0.000000  0.000000  0.000000  0.000000

   2.6   0     0.5085   -0.6073  0.013353 -0.235982  1.618570 -0.995572  0.000000  0.000000  0.000000  0.000000

                                   1 3d1-    1 3d1-    1 3d1-    1 3d1-    1 5g1-    1 5g3-    1 5g1-    1 5g3- 

   1.7   0     0.1730   -0.8545 -0.036165  0.126026 -0.205354  1.107560  0.000000  0.000000  0.000000  0.000000

   2.7   0     0.5085   -0.6073  0.013353 -0.235982  1.618570 -0.995572  0.000000  0.000000  0.000000  0.000000

                                   1 4f2-    1 4f2-    1 4f2- 

   1.8   0     0.3433   -0.4996  0.085522 -0.244894  1.127664

   2.8   0     0.9224    0.0546 -0.063981  1.335906 -0.699651

 HOMO      1.2    -0.240667 =      -6.5489eV
 LUMO      2.1     0.080333 =       2.1860eV
 LUMO-HOMO         0.321000 =       8.7349eV


 **********************************************************************************************************************************
 DATASETS  * FILE   NREC   LENGTH (MB)   RECORD NAMES
              1      20       20.05       500      610      700      900      950      970     1000      129      960     1100   
                                          VAR    BASINP    GEOM    SYMINP    ZMAT    AOBASIS   BASIS     P2S    ABASIS      S 
                                         1400     1410     1420     1200     1210     1080     1600     1650     1700     1380   
                                           T        V       ECP      H0       H01     AOSYM     SMH    MOLCAS    OPER     JKOP   

              2       6        7.84       700     1000      520     4202     5202     2101   
                                         GEOM     BASIS   MCVARS     RHF     MCSCF     RHF  

 PROGRAMS   *        TOTAL       RHF     MULTI       POP       RHF       INT
 CPU TIMES  *         1.36      0.05      0.14      0.00      0.07      0.65
 REAL TIME  *         3.72 SEC
 DISK USED  *       411.38 MB      
 SF USED    *         9.34 MB      
 GA USED    *         0.00 MB       (max)       0.00 MB       (current)
 **********************************************************************************************************************************
 SETTING SCF(1)         =        -8.00739445  AU                              


 PROGRAM * CCSD (Unrestricted open-shell coupled cluster)     Authors: C. Hampel, H.-J. Werner, 1991, M. Deegan, P.J. Knowles, 1992


 Convergence thresholds:  THRVAR = 1.00D-08  THRDEN = 1.00D-06

 CCSD(T)     terms to be evaluated (factor= 1.000)


 Number of closed-shell orbitals:   2 (   1   0   0   0   1   0   0   0 )
 Number of active  orbitals:        2 (   0   1   1   0   0   0   0   0 )
 Number of external orbitals:      75 (  18  10  10   8  10   8   8   3 )

 Memory could be reduced to 0.94 Mwords without degradation in triples

 Number of N-1 electron functions:               6
 Number of N-2 electron functions:              15
 Number of singly external CSFs:                78
 Number of doubly external CSFs:              8819
 Total number of CSFs:                        8897

 Molecular orbitals read from record     2101.2  Type=RHF/CANONICAL (state 1.4)

 Integral transformation finished. Total CPU:   0.22 sec, npass=  1  Memory used:   0.17 MW

 Starting RMP2 calculation

 ITER.      SQ.NORM     CORR.ENERGY   TOTAL ENERGY   ENERGY CHANGE        DEN1      VAR(S)    VAR(P)  DIIS     TIME
   1      1.05353906    -0.10879283    -8.11618728    -0.10879283    -0.00092299  0.67D-04  0.47D-03  1  1     0.30
   2      1.05495077    -0.10983281    -8.11722726    -0.00103998    -0.00000242  0.80D-06  0.11D-05  2  2     0.30
   3      1.05500014    -0.10985047    -8.11724492    -0.00001766    -0.00000002  0.19D-07  0.26D-08  3  3     0.30
   4      1.05500245    -0.10985085    -8.11724530    -0.00000038    -0.00000000  0.29D-09  0.12D-10  4  4     0.30

 Norm of t1 vector:      0.06469381      S-energy:    -0.00451923      T1 diagnostic:  0.01282425
 Norm of t2 vector:      0.22542663      P-energy:    -0.10533162
                                         Alpha-Beta:  -0.08359914
                                         Alpha-Alpha: -0.01887439
                                         Beta-Beta:   -0.00285809

 Spin contamination <S**2-Sz**2-Sz>     0.00537828
  Reference energy                     -8.007394449497
  RHF-RMP2 correlation energy          -0.109850847545
 !RHF-RMP2 energy                      -8.117245297042

 Starting UCCSD calculation

 ITER.      SQ.NORM     CORR.ENERGY   TOTAL ENERGY   ENERGY CHANGE        DEN1      VAR(S)    VAR(P)  DIIS     TIME
   1      1.06397831    -0.11755816    -8.12495261    -0.11755816    -0.00456115  0.37D-03  0.21D-02  1  1     0.31
   2      1.07257543    -0.12292194    -8.13031639    -0.00536378    -0.00015089  0.19D-04  0.67D-04  2  2     0.31
   3      1.07414297    -0.12342302    -8.13081747    -0.00050108    -0.00000887  0.16D-05  0.48D-05  3  3     0.32
   4      1.07455246    -0.12352531    -8.13091976    -0.00010229    -0.00000063  0.11D-06  0.40D-06  4  4     0.33
   5      1.07461759    -0.12353187    -8.13092632    -0.00000656    -0.00000008  0.99D-08  0.58D-07  5  5     0.33
   6      1.07463374    -0.12353381    -8.13092826    -0.00000194    -0.00000001  0.96D-09  0.91D-08  6  6     0.34
   7      1.07463730    -0.12353377    -8.13092822     0.00000003    -0.00000000  0.22D-09  0.79D-09  6  1     0.34

 Norm of t1 vector:      0.08128195      S-energy:    -0.00532662      T1 diagnostic:  0.01812122
                                                                       D1 diagnostic:  0.02571544
 Norm of t2 vector:      0.26082666      P-energy:    -0.11820715
                                         Alpha-Beta:  -0.09633031
                                         Alpha-Alpha: -0.01910252
                                         Beta-Beta:   -0.00277432

 Spin contamination <S**2-Sz**2-Sz>     0.00415396

 Memory could be reduced to 0.95 Mwords without degradation in triples
 

 RESULTS
 =======

  Reference energy                     -8.007394449497
  UCCSD singles energy                 -0.005326621180
  UCCSD pair energy                    -0.118207152190
  UCCSD correlation energy             -0.123533773370
  Triples (T) contribution             -0.004478917014
  Total correlation energy             -0.128012690384
 
  RHF-UCCSD energy                     -8.130928222867
  RHF-UCCSD[T] energy                  -8.135405237148
  RHF-UCCSD-T energy                   -8.135400860820
 !RHF-UCCSD(T) energy                  -8.135407139881

 Program statistics:

 Available memory in ccsd:               511999732
 Min. memory needed in ccsd:                 50442
 Max. memory used in ccsd:                   58484
 Max. memory used in cckext:                 76648 ( 7 integral passes)
 Max. memory used in cckint:                165711 ( 1 integral passes)



 **********************************************************************************************************************************
 DATASETS  * FILE   NREC   LENGTH (MB)   RECORD NAMES
              1      20       20.05       500      610      700      900      950      970     1000      129      960     1100   
                                          VAR    BASINP    GEOM    SYMINP    ZMAT    AOBASIS   BASIS     P2S    ABASIS      S 
                                         1400     1410     1420     1200     1210     1080     1600     1650     1700     1380   
                                           T        V       ECP      H0       H01     AOSYM     SMH    MOLCAS    OPER     JKOP   

              2       6        7.84       700     1000      520     4202     5202     2101   
                                         GEOM     BASIS   MCVARS     RHF     MCSCF     RHF  

 PROGRAMS   *        TOTAL  UCCSD(T)       RHF     MULTI       POP       RHF       INT
 CPU TIMES  *         1.79      0.43      0.05      0.14      0.00      0.07      0.65
 REAL TIME  *         4.48 SEC
 DISK USED  *       503.68 MB      
 SF USED    *         9.34 MB      
 GA USED    *         0.00 MB       (max)       0.00 MB       (current)
 **********************************************************************************************************************************
 SETTING CCSD(1)        =        -8.13540714  AU                              
 Output type csv         
                                                                                                                                                                                                                                                                

      SCF,CCSD
   -8.00739445,   -8.13540714
                                                  

 UCCSD(T)/USERDEF energy=     -8.135407139881

        UCCSD(T)        RHF-SCF         MULTI           RHF-SCF 
     -8.13540714     -8.00739445     -8.00739445     -8.00979457
 **********************************************************************************************************************************
 Molpro calculation terminated
 Variable memory released
