<?xml version="1.0"?>
<molpro xmlns="http://www.molpro.net/schema/molpro-output"
  xmlns:xsd="http://www.w3.org/1999/XMLSchema"
  xmlns:cml="http://www.xml-cml.org/schema"
  xmlns:stm="http://www.xml-cml.org/schema"
  xmlns:xhtml="http://www.w3.org/1999/xhtml">
 <!--

 Nodes     nprocs
 nid12769    23
 Number of processes for MPI-2 version of Molpro:   nprocs(total)=   24   nprocs(compute)=   23   nprocs(helper)=    1

 Using customized tuning parameters: mindgm=7; mindgv=16; mindgc=1; mindgr=1; noblas=0; minvec=7
 default implementation of scratch files=sf

 --><job>
  <!--

 Variables initialized (889), CPU time= 0.02 sec
 Commands  initialized (702), CPU time= 0.02 sec, 572 directives.
 Default parameters read. Elapsed time= 0.15 sec

 Checking input...
 Passed
1


                                         ***  PROGRAM SYSTEM MOLPRO  ***
                                       Copyright, TTI GmbH Stuttgart, 2015
                                    Version 2015.1 linked Dec 29 2018 15:55:43


 **********************************************************************************************************************************
 LABEL *   Calculation for PdO groundstate
  64 bit mpp version                                                                     DATE: 29-Mar-21          TIME: 16:31:19
 **********************************************************************************************************************************

 SHA1:             19cd028119e0e09f93f0674bd8af7968d9b3eff6
 **********************************************************************************************************************************
  -->
  <!--

 THRESHOLDS:

 ZERO    =  1.00D-12  ONEINT  =  1.00D-12  TWOINT  =  1.00D-12  PREFAC  =  1.00D-14  LOCALI  =  1.00D-09  EORDER  =  1.00D-04
 ENERGY  =  0.00D+00  ETEST   =  0.00D+00  EDENS   =  0.00D+00  THRDEDEF=  1.00D-06  GRADIENT=  1.00D-02  STEP    =  1.00D-03
 ORBITAL =  1.00D-05  CIVEC   =  1.00D-05  COEFF   =  1.00D-04  PRINTCI =  5.00D-02  PUNCHCI =  9.90D+01  OPTGRAD =  3.00D-04
 OPTENERG=  1.00D-06  OPTSTEP =  3.00D-04  THRGRAD =  1.00D-10  COMPRESS=  1.00D-11  VARMIN  =  1.00D-07  VARMAX  =  1.00D-03
 THRDOUB =  0.00D+00  THRDIV  =  1.00D-05  THRRED  =  1.00D-07  THRPSP  =  1.00D+00  THRDC   =  1.00D-10  THRCS   =  1.00D-10
 THRNRM  =  1.00D-08  THREQ   =  0.00D+00  THRDE   =  1.00D+00  THRREF  =  1.00D-05  SPARFAC =  1.00D+00  THRDLP  =  1.00D-07
 THRDIA  =  1.00D-10  THRDLS  =  1.00D-07  THRGPS  =  0.00D+00  THRKEX  =  0.00D+00  THRDIS  =  2.00D-01  THRVAR  =  1.00D-10
 THRLOC  =  1.00D-06  THRGAP  =  1.00D-06  THRLOCT = -1.00D+00  THRGAPT = -1.00D+00  THRORB  =  1.00D-06  THRMLTP =  0.00D+00
 THRCPQCI=  1.00D-10  KEXTA   =  0.00D+00  THRCOARS=  0.00D+00  SYMTOL  =  1.00D-06  GRADTOL =  1.00D-06  THROVL  =  1.00D-08
 THRORTH =  1.00D-08  GRID    =  1.00D-06  GRIDMAX =  1.00D-03  DTMAX   =  0.00D+00  THROCCDE=  1.00D-01  THROCCDE=  1.00D-01



 THRESHOLDS:

 ZERO    =  1.00D-12  ONEINT  =  1.00D-12  TWOINT  =  1.00D-12  PREFAC  =  1.00D-14  LOCALI  =  1.00D-09  EORDER  =  1.00D-04
 ENERGY  =  0.00D+00  ETEST   =  0.00D+00  EDENS   =  0.00D+00  THRDEDEF=  1.00D-06  GRADIENT=  1.00D-02  STEP    =  1.00D-03
 ORBITAL =  1.00D-05  CIVEC   =  1.00D-05  COEFF   =  1.00D-04  PRINTCI =  5.00D-02  PUNCHCI =  9.90D+01  OPTGRAD =  3.00D-04
 OPTENERG=  1.00D-06  OPTSTEP =  3.00D-04  THRGRAD =  1.00D-10  COMPRESS=  1.00D-11  VARMIN  =  1.00D-07  VARMAX  =  1.00D-03
 THRDOUB =  0.00D+00  THRDIV  =  1.00D-05  THRRED  =  1.00D-07  THRPSP  =  1.00D+00  THRDC   =  1.00D-10  THRCS   =  1.00D-10
 THRNRM  =  1.00D-08  THREQ   =  0.00D+00  THRDE   =  1.00D+00  THRREF  =  1.00D-05  SPARFAC =  1.00D+00  THRDLP  =  1.00D-07
 THRDIA  =  1.00D-10  THRDLS  =  1.00D-07  THRGPS  =  0.00D+00  THRKEX  =  0.00D+00  THRDIS  =  2.00D-01  THRVAR  =  1.00D-10
 THRLOC  =  1.00D-06  THRGAP  =  1.00D-06  THRLOCT = -1.00D+00  THRGAPT = -1.00D+00  THRORB  =  1.00D-06  THRMLTP =  0.00D+00
 THRCPQCI=  1.00D-10  KEXTA   =  0.00D+00  THRCOARS=  0.00D+00  SYMTOL  =  1.00D-06  GRADTOL =  1.00D-06  THROVL  =  1.00D-12
 THRORTH =  1.00D-08  GRID    =  1.00D-06  GRIDMAX =  1.00D-03  DTMAX   =  0.00D+00  THROCCDE=  1.00D-01  THROCCDE=  1.00D-01


 SETTING DKROLL         =         1.00000000
 SETTING DKHO           =        10.00000000
 SETTING DKHP           =         4.00000000

 Variable memory set to  512000000 words,  buffer space   230000 words

 SETTING BASIS          =    USERDEF
 SETTING OE             =       -75.09181489
 SETTING PDE            =     -5044.36637900
 SETTING NE             =        54.00000000

Geometry recognized as XYZ

 SETTING A1             =        14.00000000
 SETTING B1             =         6.00000000
 SETTING B2             =         6.00000000
 SETTING A2             =         2.00000000
  --><jobstep command="RKS-SCF" commandset="SCFPRO">
   <!--


 Recomputing integrals since basis changed


 Using spherical harmonics



 PROGRAM * SEWARD (Integral evaluation for generally contracted gaussian basis sets)     Author: Roland Lindh, 1990

 Geometry written to block  1 of record 700


 Point group  C2v


   --><cml:molecule>
    <cml:symmetry pointGroup="C2v"/>
    <cml:atomArray>
     <cml:atom id="a1" elementType="Pd" x3="0.0" y3="0.0" z3="0.0"/>
     <cml:atom id="a2" elementType="O" x3="0.0" y3="0.0" z3="1.685"/>
    </cml:atomArray>
    <cml:bondArray>
     <cml:bond atomRefs2="a1 a2"/>
    </cml:bondArray>
   </cml:molecule><!--

 ATOMIC COORDINATES

 NR  ATOM    CHARGE       X              Y              Z

   1  PD     46.00    0.000000000    0.000000000    0.000000000
   2  O       8.00    0.000000000    0.000000000    3.184188520

 Bond lengths in Bohr (Angstrom)

 1-2  3.184188520
     ( 1.685000000)

 NUCLEAR CHARGE:                   54
 NUMBER OF PRIMITIVE AOS:         355
 NUMBER OF SYMMETRY AOS:          299
 NUMBER OF CONTRACTIONS:          182   (  73A1  +  43B1  +  43B2  +  23A2  )
 NUMBER OF CORE ORBITALS:          19   (  10A1  +   4B1  +   4B2  +   1A2  )
 NUMBER OF VALENCE ORBITALS:       10   (   5A1  +   2B1  +   2B2  +   1A2  )


 NUCLEAR REPULSION ENERGY  115.57104666

 One-electron integrals computed with SEWARD

 10nd-order Douglas-Kroll-Hess method activated. McWeeny DKH parametrization is used.

 Computing Douglas-Kroll / X2C integrals

 AO integral compression algorithm  1   Integral accuracy      1.0D-12

     163.840 MB (compressed) written to integral file ( 49.8%)

     Node minimum: 2.359 MB, node maximum: 11.272 MB


 NUMBER OF SORTED TWO-ELECTRON INTEGRALS:    1570234.     BUFFER LENGTH:  32768
 NUMBER OF SEGMENTS:   1  SEGMENT LENGTH:    1570234      RECORD LENGTH: 524288

 Memory used in sort:       2.13 MW

 SORT1 READ    41520926. AND WROTE     1052421. INTEGRALS IN      4 RECORDS. CPU TIME:     1.02 SEC, REAL TIME:     1.12 SEC
 SORT2 READ    23508266. AND WROTE    35715180. INTEGRALS IN    736 RECORDS. CPU TIME:     0.18 SEC, REAL TIME:     0.30 SEC

 Node minimum:     1548720.  Node maximum:     1570662. integrals

 OPERATOR DM      FOR CENTER  0  COORDINATES:    0.000000    0.000000    0.000000

 EXTRA SYMMETRY OF AOS IN SYMMETRY 1:   1 1 1 1 1 1 1 1 1 1   1 1 1 1 1 1 1 1 1 1   1 1 2 1 2 1 2 1 2 1   2 1 2 1 2 1 2 1 2 1
                                        2 1 2 1 2 1 3 2 1 3   2 1 3 2 1 1 1 1 1 1   1 1 1 1 2 1 2 1 2 1   2 1 2
 EXTRA SYMMETRY OF AOS IN SYMMETRY 2:   1 1 1 1 1 1 1 1 1 1   1 1 1 1 1 1 1 1 1 2   1 2 1 2 1 2 1 2 1 2   1 2 1 1 1 1 1 1 1 1
                                        2 1 2
 EXTRA SYMMETRY OF AOS IN SYMMETRY 3:   1 1 1 1 1 1 1 1 1 1   1 1 1 1 1 1 1 1 1 2   1 2 1 2 1 2 1 2 1 2   1 2 1 1 1 1 1 1 1 1
                                        2 1 2
 EXTRA SYMMETRY OF AOS IN SYMMETRY 4:   1 1 1 1 1 1 1 1 1 1   1 1 1 2 1 2 1 2 1 1   1 1 1

 Eigenvalues of metric

         1 0.944E-04 0.188E-03 0.287E-03 0.616E-03 0.154E-02 0.158E-02 0.335E-02 0.448E-02
         2 0.633E-03 0.155E-02 0.182E-02 0.761E-02 0.219E-01 0.340E-01 0.427E-01 0.490E-01
         3 0.633E-03 0.155E-02 0.182E-02 0.761E-02 0.219E-01 0.340E-01 0.427E-01 0.490E-01
         4 0.158E-02 0.224E-01 0.842E-01 0.985E-01 0.120E+00 0.148E+00 0.185E+00 0.304E+00


 **********************************************************************************************************************************
 DATASETS  * FILE   NREC   LENGTH (MB)   RECORD NAMES
              1      22       20.91       500      610      700      900      950      970     1000      129      960     1700
                                          VAR    BASINP    GEOM    SYMINP    ZMAT    AOBASIS   BASIS     P2S    ABASIS    OPER
                                         1101     1401     1411     1412     1650     1100     1400     1410     1200     1210
                                          SR      EKINR    POTR     PVPR    MOLCAS      S      EKIN      POT      H0       H01
                                         1080     1600
                                         AOSYM     SMH

 PROGRAMS   *        TOTAL       INT
 CPU TIMES  *         7.50      7.17
 REAL TIME  *         9.42 SEC
 DISK USED  *       432.62 MB
 GA USED    *         0.00 MB       (max)       0.00 MB       (current)
 **********************************************************************************************************************************

 Density functional group PBE0=PBEX+PBEC
 Functional: PBEX(Automatically generated (new) PBEX)                          Gradient terms: 1
 Functional: PBEC(Automatically generated (new) PBEC)                          Gradient terms: 1
 Use grid at  1800.2


 Exact exchange will be calculated, factor:  0.2500

 Functional: PBEX                      Factor:  0.7500
 Functional: PBEC                      Factor:  1.0000

 Generated new metagrid on record  1800.2 with target accuracy 1.0D-06 and 5103 points in CPU time    0.0
 Computed new grid on record 1800.1 in CPU time    0.0
  152282 words reserved for DFT integration

 PROGRAM * RKS-SCF (Restricted open shell Kohn-Sham)     Authors: W. Meyer, H.-J. Werner, P.J. Knowles, 1993

 NUMBER OF ELECTRONS:      28+   26-    SPACE SYMMETRY=2    SPIN SYMMETRY: Triplet
 CONVERGENCE THRESHOLDS:    1.00E-05 (Density)    1.08E-06 (Energy)
 MAX. NUMBER OF ITERATIONS:       60
 INTERPOLATION TYPE:            DIIS
 INTERPOLATION STEPS:              2 (START)      1 (STEP)
 LEVEL SHIFTS:                 -0.60 (CLOSED) -0.30 (OPEN)

 Number of closed-shell orbitals:   26 (  13   5   6   2 )
 Number of open-shell orbitals:      2 (   1   1   0   0 )


 Use fine grid record 1800.2 for energy threshold  1.0D-06
 Orbital guess generated from atomic densities. Full valence occupancy:   15   6   6   2

 Molecular orbital dump at record        2100.2

 ITERATION    DDIFF          GRAD             ENERGY        2-EL.EN.            DIPOLE MOMENTS         DIIS   ORB.
    1      0.000D+00      0.000D+00     -5100.18334658   3803.220212    0.00000    0.00000   -9.06365    0    start
    2      0.000D+00      0.789D-01     -5095.11157124   4825.006836    0.00000    0.00000   15.52885    1    diag,B
    3      0.731D+00      0.191D+00     -5114.03381634   4610.925700    0.00000    0.00000    3.90610    2    diag,B
    4      0.508D-01      0.985D-01     -5116.83933196   4528.748958    0.00000    0.00000    3.58913    3    diag,B
    5      0.161D-01      0.663D-01     -5119.24542057   4453.400631    0.00000    0.00000    0.13070    4    diag,B
    6      0.201D-01      0.356D-01     -5120.01651293   4388.412320    0.00000    0.00000   -0.62095    5    diag,B
    7      0.132D-01      0.132D-01     -5120.19908163   4348.047907    0.00000    0.00000   -1.54289    6    fixocc
    8      0.868D-02      0.138D-02     -5120.20818376   4341.887943    0.00000    0.00000   -1.65407    7    diag,B
    9      0.314D-02      0.906D-03     -5120.21094173   4341.164744    0.00000    0.00000   -1.62937    8    diag,B
   10      0.162D-02      0.626D-03     -5120.21225983   4341.268225    0.00000    0.00000   -1.57326    9    orth
   11      0.850D-03      0.303D-03     -5120.21301777   4341.214817    0.00000    0.00000   -1.54164    9    diag,B
   12      0.743D-03      0.126D-03     -5120.21335711   4340.988153    0.00000    0.00000   -1.51459    9    diag,B
   13      0.661D-03      0.521D-04     -5120.21342594   4340.914422    0.00000    0.00000   -1.50113    9    diag,B
   14      0.299D-03      0.235D-04     -5120.21343771   4340.882343    0.00000    0.00000   -1.49833    9    diag,B
   15      0.114D-03      0.132D-04     -5120.21344170   4340.878341    0.00000    0.00000   -1.49573    9    diag,B
   16      0.728D-04      0.726D-05     -5120.21344276   4340.874007    0.00000    0.00000   -1.49476    9    diag,B
   17      0.423D-04      0.290D-05     -5120.21344291   4340.871998    0.00000    0.00000   -1.49436    9    diag,B
   18      0.196D-04      0.122D-05     -5120.21344293   4340.872182    0.00000    0.00000   -1.49434    9    diag,B
   19      0.653D-05      0.599D-06     -5120.21344293   4340.871878    0.00000    0.00000   -1.49434    0    orth

 Final alpha occupancy:  14   6   6   2
 Final beta  occupancy:  13   5   6   2

 !RKS STATE 1.2 Energy              -5120.213442934682
   --><property name="Energy" method="RKS" principal="true" stateSymmetry="2" stateNumber="1"
     value="-5120.21344293468"/><!--
 Nuclear energy                       115.57104666
 One-electron energy                -7290.44497671
 Two-electron energy                 2170.43593898
 Density functional                  -115.77545186     PBEX=-150.79980903 PBEC=  -2.67559509
 Virial quotient                       -0.88770735
 !RKS STATE 1.2 Dipole moment           0.00000000     0.00000000    -1.49433889
 Dipole moment /Debye                   0.00000000     0.00000000    -3.79798183
   --><property name="Dipole moment" method="RKS" principal="true" stateSymmetry="2"
     stateNumber="1" value="0.0 0.0 -1.49433888791625"/><!--

 Orbital energies:

         1.1          2.1          3.1          4.1          5.1          6.1          7.1          8.1          9.1         10.1
   -889.984074  -130.861391  -117.329601   -24.055981   -19.579598   -19.232130   -12.432189   -12.418616    -3.471023    -2.191483

        11.1         12.1         13.1         14.1         15.1         16.1
     -0.932325    -0.417052    -0.312819    -0.248981    -0.086981     0.015785

         1.2          2.2          3.2          4.2          5.2          6.2          7.2          8.2
   -117.324047   -19.566899   -12.430635    -2.160507    -0.390213    -0.290493    -0.006515     0.040553

         1.3          2.3          3.3          4.3          5.3          6.3          7.3          8.3
   -117.321255   -19.560182   -12.426453    -2.152392    -0.397551    -0.239191    -0.003346     0.042137

         1.4          2.4          3.4          4.4
    -12.419069    -0.312859     0.068928     0.252117

 HOMO      6.3    -0.239191 =      -6.5087eV
 LUMO     15.1    -0.086981 =      -2.3669eV
 LUMO-HOMO         0.152210 =       4.1418eV


 **********************************************************************************************************************************
 DATASETS  * FILE   NREC   LENGTH (MB)   RECORD NAMES
              1      23       20.91       500      610      700      900      950      970     1000      129      960     1700
                                          VAR    BASINP    GEOM    SYMINP    ZMAT    AOBASIS   BASIS     P2S    ABASIS    OPER
                                         1101     1401     1411     1412     1650     1100     1400     1410     1200     1210
                                          SR      EKINR    POTR     PVPR    MOLCAS      S      EKIN      POT      H0       H01
                                         1080     1600     1800
                                         AOSYM     SMH     GRID

              2       5        3.08       700     1000      520     1800     2100
                                         GEOM     BASIS   MCVARS    GRID      RKS

 PROGRAMS   *        TOTAL       RKS       INT
 CPU TIMES  *         9.06      1.03      7.17
 REAL TIME  *        11.80 SEC
 DISK USED  *         1.02 GB
 SF USED    *         0.04 MB
 GA USED    *         0.23 MB       (max)       0.23 MB       (current)
 **********************************************************************************************************************************
   -->
   <time start="16:31:19" end="16:31:30" cpu="9.06" system="1.01" real="11.8"/>
   <storage units="megabyte" memory="4097.84" sf="0.04" df="585.66" eaf="432.62" ga="0.23"/>
  </jobstep><!--
  --><jobstep command="RHF-SCF" commandset="SCFPRO">
   <!--


 PROGRAM * RHF-SCF (OPEN SHELL)       Authors: W. Meyer, H.-J. Werner


 NUMBER OF ELECTRONS:      28+   26-    SPACE SYMMETRY=2    SPIN SYMMETRY: Triplet
 CONVERGENCE THRESHOLDS:    1.00E-05 (Density)    1.08E-07 (Energy)
 MAX. NUMBER OF ITERATIONS:       60
 INTERPOLATION TYPE:            DIIS
 INTERPOLATION STEPS:              2 (START)      1 (STEP)
 LEVEL SHIFTS:                 -0.60 (CLOSED) -0.30 (OPEN)

 Number of closed-shell orbitals:   26 (  13   5   6   2 )
 Number of open-shell orbitals:      2 (   1   1   0   0 )


 Molecular orbitals read from record     2100.2  Type=RKS/CANONICAL (state 1.2)

 Molecular orbital dump at record        2101.2

 ITERATION    DDIFF          GRAD             ENERGY        2-EL.EN.            DIPOLE MOMENTS         DIIS   ORB.
    1      0.000D+00      0.000D+00     -5117.64178879   4114.464283    0.00000    0.00000   -1.49434    0    start
    2      0.000D+00      0.117D-01     -5117.66538483   4114.963196    0.00000    0.00000   -1.62756    1    diag,B
    3      0.753D-02      0.132D-02     -5117.67154791   4116.124947    0.00000    0.00000   -1.68440    2    diag,B
    4      0.131D-02      0.755D-03     -5117.67687513   4116.432490    0.00000    0.00000   -1.71126    3    diag,B
    5      0.115D-02      0.614D-03     -5117.68244082   4117.150005    0.00000    0.00000   -1.72474    4    diag,B
    6      0.136D-02      0.523D-03     -5117.68755497   4117.171418    0.00000    0.00000   -1.74620    5    diag,B
    7      0.160D-02      0.365D-03     -5117.68980036   4117.577106    0.00000    0.00000   -1.75115    6    diag,B
    8      0.120D-02      0.180D-03     -5117.69013870   4117.669143    0.00000    0.00000   -1.74716    7    orth
    9      0.375D-03      0.998D-04     -5117.69024647   4117.456883    0.00000    0.00000   -1.76696    8    diag,B
   10      0.461D-03      0.100D-03     -5117.69027349   4117.568905    0.00000    0.00000   -1.76023    9    diag,B
   11      0.184D-03      0.341D-04     -5117.69029314   4117.549672    0.00000    0.00000   -1.76653    9    diag,B
   12      0.127D-03      0.191D-04     -5117.69029829   4117.553640    0.00000    0.00000   -1.76828    9    diag,B
   13      0.585D-04      0.108D-04     -5117.69030053   4117.558828    0.00000    0.00000   -1.76935    9    diag,B
   14      0.325D-04      0.781D-05     -5117.69030224   4117.565652    0.00000    0.00000   -1.77016    9    diag,B
   15      0.306D-04      0.567D-05     -5117.69030352   4117.572795    0.00000    0.00000   -1.77075    9    diag,B
   16      0.330D-04      0.364D-05     -5117.69030406   4117.578170    0.00000    0.00000   -1.77095    9    diag,B
   17      0.220D-04      0.240D-05     -5117.69030427   4117.579787    0.00000    0.00000   -1.77093    9    diag,B
   18      0.142D-04      0.172D-05     -5117.69030437   4117.580634    0.00000    0.00000   -1.77081    9    orth
   19      0.958D-05      0.109D-05     -5117.69030439   4117.580380    0.00000    0.00000   -1.77078    0    orth

 Final alpha occupancy:  14   6   6   2
 Final beta  occupancy:  13   5   6   2

 !RHF STATE 1.2 Energy              -5117.690304386571
   --><property name="Energy" method="RHF" principal="true" stateSymmetry="2" stateNumber="1"
     value="-5117.69030438657"/><!--
 Nuclear energy                       115.57104666
 One-electron energy                -7292.05154085
 Two-electron energy                 2058.79018981
 Virial quotient                       -0.88698885
 !RHF STATE 1.2 Dipole moment           0.00000000     0.00000000    -1.77078097
 Dipole moment /Debye                   0.00000000     0.00000000    -4.50058151
   --><property name="Dipole moment" method="RHF" principal="true" stateSymmetry="2"
     stateNumber="1" value="0.0 0.0 -1.77078097301876"/><!--

 Orbital energies:

         1.1          2.1          3.1          4.1          5.1          6.1          7.1          8.1          9.1         10.1
   -899.571781  -134.532364  -120.425535   -25.686899   -20.931327   -20.543753   -13.343226   -13.340189    -3.994107    -2.559735

        11.1         12.1         13.1         14.1         15.1         16.1
     -1.196326    -0.532369    -0.448440    -0.361778    -0.001827     0.034094

         1.2          2.2          3.2          4.2          5.2          6.2          7.2          8.2
   -120.421754   -20.916248   -13.352325    -2.541296    -0.501561    -0.515649     0.023659     0.081136

         1.3          2.3          3.3          4.3          5.3          6.3          7.3          8.3
   -120.421319   -20.914917   -13.352999    -2.540698    -0.559980    -0.376284     0.024699     0.083110

         1.4          2.4          3.4          4.4
    -13.342734    -0.448638     0.096847     0.326620

 HOMO     14.1    -0.361778 =      -9.8445eV
 LUMO     15.1    -0.001827 =      -0.0497eV
 LUMO-HOMO         0.359951 =       9.7948eV


 **********************************************************************************************************************************
 DATASETS  * FILE   NREC   LENGTH (MB)   RECORD NAMES
              1      23       20.91       500      610      700      900      950      970     1000      129      960     1700
                                          VAR    BASINP    GEOM    SYMINP    ZMAT    AOBASIS   BASIS     P2S    ABASIS    OPER
                                         1101     1401     1411     1412     1650     1100     1400     1410     1200     1210
                                          SR      EKINR    POTR     PVPR    MOLCAS      S      EKIN      POT      H0       H01
                                         1080     1600     1800
                                         AOSYM     SMH     GRID

              2       6        5.96       700     1000      520     1800     2100     2101
                                         GEOM     BASIS   MCVARS    GRID      RKS      RHF

 PROGRAMS   *        TOTAL       RHF       RKS       INT
 CPU TIMES  *         9.50      0.43      1.03      7.17
 REAL TIME  *        12.36 SEC
 DISK USED  *         1.08 GB
 SF USED    *         0.04 MB
 GA USED    *         0.23 MB       (max)       0.23 MB       (current)
 **********************************************************************************************************************************
   -->
   <time start="16:31:30" end="16:31:31" cpu="0.44" system="0.08" real="0.56"/>
   <storage units="megabyte" memory="4097.84" sf="0.04" df="651.96" eaf="432.62" ga="0.23"/>
  </jobstep><!--
 SETTING BASIS          =    USERDEF
  --><jobstep command="RHF-SCF" commandset="SCFPRO">
   <!--


 Recomputing integrals since basis changed


 Using spherical harmonics



 PROGRAM * SEWARD (Integral evaluation for generally contracted gaussian basis sets)     Author: Roland Lindh, 1990

 Geometry written to block  1 of record 700


 Point group  C2v



 ATOMIC COORDINATES

 NR  ATOM    CHARGE       X              Y              Z

   1  PD     46.00    0.000000000    0.000000000    0.000000000
   2  O       8.00    0.000000000    0.000000000    3.184188520

 Bond lengths in Bohr (Angstrom)

 1-2  3.184188520
     ( 1.685000000)

 NUCLEAR CHARGE:                   54
 NUMBER OF PRIMITIVE AOS:         642
 NUMBER OF SYMMETRY AOS:          471
 NUMBER OF CONTRACTIONS:          471   ( 186A1  + 112B1  + 112B2  +  61A2  )
 NUMBER OF CORE ORBITALS:          19   (  10A1  +   4B1  +   4B2  +   1A2  )
 NUMBER OF VALENCE ORBITALS:       10   (   5A1  +   2B1  +   2B2  +   1A2  )


 NUCLEAR REPULSION ENERGY  115.57104666

 One-electron integrals computed with SEWARD

 10nd-order Douglas-Kroll-Hess method activated. McWeeny DKH parametrization is used.

 Computing Douglas-Kroll / X2C integrals

 AO integral compression algorithm  1   Integral accuracy      1.0D-12

     3687.580 MB (compressed) written to integral file ( 26.2%)

     Node minimum: 125.043 MB, node maximum: 249.299 MB


 NUMBER OF SORTED TWO-ELECTRON INTEGRALS:   68488814.     BUFFER LENGTH:  32768
 NUMBER OF SEGMENTS:   3  SEGMENT LENGTH:   31988915      RECORD LENGTH: 524288

 Memory used in sort:      32.55 MW

 SORT1 READ  1760380706. AND WROTE    28326093. INTEGRALS IN     83 RECORDS. CPU TIME:    38.19 SEC, REAL TIME:    47.99 SEC
 SORT2 READ   664745355. AND WROTE  1570932477. INTEGRALS IN  21873 RECORDS. CPU TIME:     2.23 SEC, REAL TIME:     4.65 SEC

 Node minimum:    68250355.  Node maximum:    68491598. integrals

 OPERATOR DM      FOR CENTER  0  COORDINATES:    0.000000    0.000000    0.000000

 EXTRA SYMMETRY OF AOS IN SYMMETRY 1:   1 1 1 1 1 1 1 1 1 1   1 1 1 1 1 1 1 1 1 1   1 1 1 1 1 1 1 1 1 1   1 1 1 1 1 1 1 1 1 1
                                        1 1 1 1 1 1 1 1 1 1   1 1 1 2 1 2 1 2 1 2   1 2 1 2 1 2 1 2 1 2   1 2 1 2 1 2 1 2 1 2
                                        1 2 1 2 1 2 1 2 1 2   1 2 1 2 1 2 1 3 2 1   3 2 1 3 2 1 3 2 2 3   1 2 3 1 2 3 1 4 3 2
                                        1 4 3 2 1 1 1 1 1 1   1 1 1 1 1 1 1 1 1 1   1 1 1 1 1 1 1 1 1 1   1 1 1 1 2 1 2 1 2 1
                                        2 1 2 1 2 1 2 1 2 1   2 1 3 2 1 3 2 1 3 2   2 3 1 2 3 1
 EXTRA SYMMETRY OF AOS IN SYMMETRY 2:   1 1 1 1 1 1 1 1 1 1   1 1 1 1 1 1 1 1 1 1   1 1 1 1 1 1 1 1 1 1   1 1 1 1 1 1 1 1 1 1
                                        1 2 1 2 1 2 1 2 1 2   1 2 1 2 1 2 1 2 1 2   3 1 2 3 1 2 3 3 2 1   3 2 1 1 1 1 1 1 1 1
                                        1 1 1 1 1 1 1 1 1 1   1 1 1 2 1 2 1 2 1 2   1 2 1 2 1 2 1 2 3 1   2 3
 EXTRA SYMMETRY OF AOS IN SYMMETRY 3:   1 1 1 1 1 1 1 1 1 1   1 1 1 1 1 1 1 1 1 1   1 1 1 1 1 1 1 1 1 1   1 1 1 1 1 1 1 1 1 1
                                        1 2 1 2 1 2 1 2 1 2   1 2 1 2 1 2 1 2 1 2   3 1 2 3 1 2 3 3 2 1   3 2 1 1 1 1 1 1 1 1
                                        1 1 1 1 1 1 1 1 1 1   1 1 1 2 1 2 1 2 1 2   1 2 1 2 1 2 1 2 3 1   2 3
 EXTRA SYMMETRY OF AOS IN SYMMETRY 4:   1 1 1 1 1 1 1 1 1 1   1 1 1 1 1 1 1 1 1 1   1 1 1 2 1 2 1 2 1 2   2 1 2 1 2 1 1 3 2 1
                                        3 2 1 1 1 1 1 1 1 1   1 1 2 1 2 1 2 2 1 2   1

 Eigenvalues of metric

         1 0.249E-07 0.822E-07 0.511E-06 0.808E-06 0.817E-06 0.169E-05 0.531E-05 0.692E-05
         2 0.283E-07 0.748E-06 0.956E-06 0.866E-05 0.165E-04 0.582E-04 0.227E-03 0.338E-03
         3 0.283E-07 0.748E-06 0.956E-06 0.866E-05 0.165E-04 0.582E-04 0.227E-03 0.338E-03
         4 0.945E-05 0.303E-03 0.300E-02 0.682E-02 0.106E-01 0.215E-01 0.276E-01 0.351E-01


 **********************************************************************************************************************************
 DATASETS  * FILE   NREC   LENGTH (MB)   RECORD NAMES
              1      22       24.20       500      610      700      900      950      970     1001      129      960     1700
                                          VAR    BASINP    GEOM    SYMINP    ZMAT    AOBASIS   BASIS     P2S    ABASIS    OPER
                                         1101     1401     1411     1412     1650     1100     1400     1410     1200     1210
                                          SR      EKINR    POTR     PVPR    MOLCAS      S      EKIN      POT      H0       H01
                                         1080     1600
                                         AOSYM     SMH

              2       7        6.16       700     1000      520     1800     2100     2101     1001
                                         GEOM     BASIS   MCVARS    GRID      RKS      RHF     BASIS

 PROGRAMS   *        TOTAL       INT       RHF       RKS       INT
 CPU TIMES  *       105.75     96.20      0.43      1.03      7.17
 REAL TIME  *       121.78 SEC
 DISK USED  *        12.28 GB
 SF USED    *         0.04 MB
 GA USED    *         0.23 MB       (max)       0.00 MB       (current)
 **********************************************************************************************************************************


 PROGRAM * RHF-SCF (OPEN SHELL)       Authors: W. Meyer, H.-J. Werner


 NUMBER OF ELECTRONS:      28+   26-    SPACE SYMMETRY=2    SPIN SYMMETRY: Triplet
 CONVERGENCE THRESHOLDS:    1.00E-05 (Density)    1.08E-07 (Energy)
 MAX. NUMBER OF ITERATIONS:       60
 INTERPOLATION TYPE:            DIIS
 INTERPOLATION STEPS:              2 (START)      1 (STEP)
 LEVEL SHIFTS:                 -0.60 (CLOSED) -0.30 (OPEN)

 Number of closed-shell orbitals:   26 (  13   5   6   2 )
 Number of open-shell orbitals:      2 (   1   1   0   0 )


 Molecular orbitals read from record     2101.2  Type=RHF/CANONICAL (state 1.2)

 Present basis size:     186 112 112  61
 Previous basis size:     73  43  43  23
 Previous occupation:     14   6   6   2
 Previous closed-shells:  13   5   6   2
 Previous core-orbitals:  10   4   4   1
 Present occupation:      14   6   6   2
 Present closed-shells:   13   5   6   2
 Present core-orbitals:   10   4   4   1
 Wavefunction symmetry:    2   Triplet

 Orbital overlap <old|new>:  < 1.1| 1.1> = 1.000000   < 2.1| 2.1> = 1.000000   < 3.1| 3.1> = 1.000000   < 4.1| 4.1> = 1.000000
                             < 5.1| 5.1> = 1.000000   < 6.1| 6.1> = 0.999164   < 7.1| 7.1> = 1.000000   < 8.1| 8.1> = 1.000000
                             < 9.1| 9.1> = 1.000000   <10.1|10.1> = 1.000000   < 1.2| 1.2> = 1.000000   < 2.2| 2.2> = 1.000000
                             < 3.2| 3.2> = 1.000000   < 4.2| 4.2> = 1.000000   < 1.3| 1.3> = 1.000000   < 2.3| 2.3> = 1.000000
                             < 3.3| 3.3> = 1.000000   < 4.3| 4.3> = 1.000000   < 1.4| 1.4> = 1.000000   <11.1|11.1> = 0.999957
                             <12.1|12.1> = 0.999996   <13.1|13.1> = 1.000000   < 5.2| 5.2> = 0.999999   < 5.3| 5.3> = 0.999998
                             < 6.3| 6.3> = 0.999998   < 2.4| 2.4> = 1.000000   <14.1|14.1> = 0.999999   < 6.2| 6.2> = 0.999996

 Molecular orbital dump at record        2102.2

 ITERATION    DDIFF          GRAD             ENERGY        2-EL.EN.            DIPOLE MOMENTS         DIIS   ORB.
    1      0.000D+00      0.000D+00     -5115.64476514   4117.518664    0.00000    0.00000   -1.77074    0    start
    2      0.000D+00      0.549D-01     -5115.73346385   4116.982029    0.00000    0.00000   -1.77153    1    diag,B
    3      0.119D+02      0.883D-03     -5115.73410282   4116.900996    0.00000    0.00000   -1.79885    2    diag,B
    4      0.493D+00      0.173D-03     -5115.73420059   4117.098715    0.00000    0.00000   -1.79635    3    diag,B
    5      0.332D-01      0.669D-04     -5115.73422329   4116.953110    0.00000    0.00000   -1.80274    4    diag,B
    6      0.521D-02      0.367D-04     -5115.73423055   4117.028762    0.00000    0.00000   -1.80452    5    diag,B
    7      0.342D-02      0.123D-04     -5115.73423232   4117.025031    0.00000    0.00000   -1.80581    6    diag,B
    8      0.202D-02      0.603D-05     -5115.73423329   4117.028934    0.00000    0.00000   -1.80736    7    orth
    9      0.167D-02      0.330D-05     -5115.73423372   4117.032873    0.00000    0.00000   -1.80835    8    diag,B
   10      0.482D-03      0.188D-05     -5115.73423393   4117.036233    0.00000    0.00000   -1.80896    9    diag,B
   11      0.272D-03      0.122D-05     -5115.73423401   4117.038133    0.00000    0.00000   -1.80931    9    diag,B
   12      0.283D-03      0.723D-06     -5115.73423406   4117.040680    0.00000    0.00000   -1.80951    9    diag,B
   13      0.407D-03      0.402D-06     -5115.73423408   4117.041383    0.00000    0.00000   -1.80961    9    diag,B
   14      0.197D-03      0.227D-06     -5115.73423409   4117.042128    0.00000    0.00000   -1.80965    9    diag,B
   15      0.196D-03      0.121D-06     -5115.73423409   4117.042388    0.00000    0.00000   -1.80967    9    diag,B
   16      0.579D-04      0.645D-07     -5115.73423409   4117.042492    0.00000    0.00000   -1.80968    9    diag,B
   17      0.102D-03      0.424D-07     -5115.73423408   4117.042546    0.00000    0.00000   -1.80968    9    diag,B
   18      0.473D-04      0.359D-07     -5115.73423407   4117.042577    0.00000    0.00000   -1.80968    9    orth
   19      0.973D-04      0.391D-07     -5115.73423407   4117.042589    0.00000    0.00000   -1.80968    9    diag,B
   20      0.311D-04      0.289D-07     -5115.73423408   4117.042592    0.00000    0.00000   -1.80968    9    diag,B
   21      0.110D-03      0.324D-07     -5115.73423409   4117.042596    0.00000    0.00000   -1.80968    9    diag,B
   22      0.305D-04      0.348D-07     -5115.73423410   4117.042608    0.00000    0.00000   -1.80968    9    diag,B
   23      0.106D-03      0.305D-07     -5115.73423408   4117.042606    0.00000    0.00000   -1.80968    9    diag,B
   24      0.121D-03      0.337D-07     -5115.73423408   4117.042608    0.00000    0.00000   -1.80968    9    diag,B
   25      0.298D-04      0.239D-07     -5115.73423407   4117.042600    0.00000    0.00000   -1.80968    9    diag,B
   26      0.574D-04      0.192D-07     -5115.73423409   4117.042594    0.00000    0.00000   -1.80968    9    diag,B
   27      0.160D-04      0.693D-08     -5115.73423408   4117.042595    0.00000    0.00000   -1.80968    9    diag,B
   28      0.283D-04      0.156D-07     -5115.73423408   4117.042596    0.00000    0.00000   -1.80968    9    orth
   29      0.255D-04      0.695D-08     -5115.73423408   4117.042592    0.00000    0.00000   -1.80968    9    diag,B
   30      0.242D-04      0.659D-08     -5115.73423407   4117.042590    0.00000    0.00000   -1.80968    9    diag,B
   31      0.185D-04      0.139D-07     -5115.73423407   4117.042590    0.00000    0.00000   -1.80968    9    diag,B
   32      0.415D-05      0.153D-07     -5115.73423408   4117.042588    0.00000    0.00000   -1.80968    0    orth

 Final alpha occupancy:  14   6   6   2
 Final beta  occupancy:  13   5   6   2

 !RHF STATE 1.2 Energy              -5115.734234082618
   --><property name="Energy" method="RHF" principal="true" stateSymmetry="2" stateNumber="1"
     value="-5115.73423408262"/><!--
 Nuclear energy                       115.57104666
 One-electron energy                -7289.82657493
 Two-electron energy                 2058.52129419
 Virial quotient                       -0.88728474
 !RHF STATE 1.2 Dipole moment           0.00000000     0.00000000    -1.80967817
 Dipole moment /Debye                   0.00000000     0.00000000    -4.59944185
   --><property name="Dipole moment" method="RHF" principal="true" stateSymmetry="2"
     stateNumber="1" value="0.0 0.0 -1.80967817360139"/><!--

 Orbital energies:

         1.1          2.1          3.1          4.1          5.1          6.1          7.1          8.1          9.1         10.1
   -899.566561  -134.533339  -120.425896   -25.688298   -20.932534   -19.713444   -13.344734   -13.341525    -3.995429    -2.560692

        11.1         12.1         13.1         14.1         15.1         16.1
     -1.148858    -0.535942    -0.449771    -0.365008    -0.002374     0.031497

         1.2          2.2          3.2          4.2          5.2          6.2          7.2          8.2
   -120.422205   -20.917605   -13.353687    -2.542641    -0.503038    -0.521674     0.023142     0.079959

         1.3          2.3          3.3          4.3          5.3          6.3          7.3          8.3
   -120.421779   -20.916277   -13.354380    -2.542057    -0.563439    -0.380277     0.024119     0.081678

         1.4          2.4          3.4          4.4
    -13.344292    -0.449953     0.095808     0.317657

 HOMO     14.1    -0.365008 =      -9.9324eV
 LUMO     15.1    -0.002374 =      -0.0646eV
 LUMO-HOMO         0.362634 =       9.8678eV


 **********************************************************************************************************************************
 DATASETS  * FILE   NREC   LENGTH (MB)   RECORD NAMES
              1      22       24.20       500      610      700      900      950      970     1001      129      960     1700
                                          VAR    BASINP    GEOM    SYMINP    ZMAT    AOBASIS   BASIS     P2S    ABASIS    OPER
                                         1101     1401     1411     1412     1650     1100     1400     1410     1200     1210
                                          SR      EKINR    POTR     PVPR    MOLCAS      S      EKIN      POT      H0       H01
                                         1080     1600
                                         AOSYM     SMH

              2       8       10.45       700     1000      520     1800     2100     2101     1001     2102
                                         GEOM     BASIS   MCVARS    GRID      RKS      RHF     BASIS     RHF

 PROGRAMS   *        TOTAL       RHF       INT       RHF       RKS       INT
 CPU TIMES  *       118.57     12.81     96.20      0.43      1.03      7.17
 REAL TIME  *       136.21 SEC
 DISK USED  *        12.64 GB
 SF USED    *         0.26 MB
 GA USED    *         0.23 MB       (max)       0.00 MB       (current)
 **********************************************************************************************************************************
   -->
   <time start="16:31:31" end="16:33:35" cpu="109.07" system="11.61" real="123.85"/>
   <storage units="megabyte" memory="4097.84" sf="0.26" df="1011.05" eaf="11630.12"
     ga="0.0"/>
  </jobstep><!--
 SETTING SCF            =     -5115.73423408  AU
 SETTING _CC_NORM_MAX   =         2.00000000
  --><jobstep command="RCCSD(T)" commandset="CCSD">
   <!--


 PROGRAM * CCSD (Restricted open-shell coupled cluster)     Authors: C. Hampel, H.-J. Werner, 1991, M. Deegan, P.J. Knowles, 1992


 Convergence thresholds:  THRVAR = 1.00D-08  THRDEN = 1.08D-06

 CCSD(T)     terms to be evaluated (factor= 1.000)


 Number of closed-shell orbitals:  26 (  13   5   6   2 )
 Number of active  orbitals:        2 (   1   1   0   0 )
 Number of external orbitals:     443 ( 172 106 106  59 )

 For full I/O caching in triples, increase memory by 456.44 Mwords to 968.72 Mwords.

 Number of N-1 electron functions:              54
 Number of N-2 electron functions:            1431
 Number of singly external CSFs:              7356
 Number of doubly external CSFs:          54592887
 Total number of CSFs:                    54600243

 Molecular orbitals read from record     2102.2  Type=RHF/CANONICAL (state 1.2)

 Integral transformation finished. Total CPU:  64.64 sec, npass=  1  Memory used: 103.89 MW

 Starting RMP2 calculation

 Wavefunction is spin-projected

 ITER.      SQ.NORM     CORR.ENERGY   TOTAL ENERGY   ENERGY CHANGE        DEN1      VAR(S)    VAR(P)  DIIS     TIME
   1      1.21035787    -2.05320847 -5117.78744256    -2.05320847    -0.00178126  0.23D-04  0.63D-03  1  1    86.27
   2      1.21195072    -2.05509674 -5117.78933083    -0.00188827    -0.00000818  0.73D-06  0.43D-05  2  2   103.28
   3      1.21205752    -2.05516422 -5117.78939831    -0.00006748    -0.00000008  0.27D-07  0.34D-07  3  3   119.78
   4      1.21206206    -2.05516528 -5117.78939937    -0.00000106    -0.00000000  0.63D-09  0.47D-09  4  4   143.10

 Norm of t1 vector:      0.04389049      S-energy:    -0.00526890      T1 diagnostic:  0.00051725
 Norm of t2 vector:      0.45840559      P-energy:    -2.04989638
                                         Alpha-Beta:  -1.40229813
                                         Alpha-Alpha: -0.34371859
                                         Beta-Beta:   -0.30387966

 Spin contamination <S**2-Sz**2-Sz>     0.00000000
  Reference energy                  -5115.734234088573
   --><property name="energy" method="Reference" stateSymmetry="1" stateNumber="1"
     value="-5115.73423408857"/><!--
  RHF-RMP2 correlation energy          -2.055165283031
   --><property name="energy" method="RHF-RMP2 correlation" stateSymmetry="1" stateNumber="1"
     value="-2.05516528303065"/><!--
 !RHF-RMP2 energy                   -5117.789399371603
   --><property name="energy" method="RHF-RMP2" principal="true" stateSymmetry="2"
     stateNumber="1" value="-5117.7893993716"/><!--
 (NB above energy spin projected)

 Starting RCCSD calculation

 ITER.      SQ.NORM     CORR.ENERGY   TOTAL ENERGY   ENERGY CHANGE        DEN1      VAR(S)    VAR(P)  DIIS     TIME
   1      1.17870706    -1.92396109 -5117.65819518    -1.92396109    -0.04337478  0.12D-01  0.54D-02  0  0   348.82
   2      1.20335665    -1.96406023 -5117.69829432    -0.04009914    -0.01377396  0.53D-03  0.20D-02  0  0   545.14
   3      1.23608818    -1.95843421 -5117.69266829     0.00562602    -0.87583857  0.20D-02  0.21D-01  0  0   746.64
   4      4.85979961    -1.97195661 -5117.70619070    -0.01352241  -127.08148696  0.58D-03  0.38D+01  0  0   947.40
   5    482.01174364    -1.94203232 -5117.67626641     0.02992429-21676.08953449  0.50D-02  0.51D+03  0  0  1147.19

 UNREASONABLE NORM:482.011744 CALCULATION WILL BE STOPPED

 The threshold can be changed using option CC_NORM_MAX (see manual). The current value is CC_NORM_MAX=2.00

 Norm of t1 vector:      0.22231963      S-energy:    -0.00549791      T1 diagnostic:  0.02081740
                                                                       D1 diagnostic:  0.09905387
 Norm of t2 vector:     21.93085310      P-energy:    -1.93653440
                                         Alpha-Beta:  -1.34962687
                                         Alpha-Alpha: -0.30827797
                                         Beta-Beta:   -0.27862957

 Singles amplitudes (print threshold =  0.500E-01):

         I         SYM. A    A   T(IA) [Beta-Beta]

        12         1         1     -0.09759783
        19         2         1      0.14007925

 Doubles amplitudes (print threshold =  0.500E-01):

         I         J         SYM. A    SYM. B    A         B      T(IJ, AB) [Beta-Beta]

        19        12         1         2         1         1      0.06400431
        19        12         2         1         1         1     -0.06400431

         I         J         SYM. A    SYM. B    A         B      T(IJ, AB) [Alpha-Beta]

         6         6         1         1        91       112      0.05638736
         6         6         1         1       112        91      0.05638736
         6         6         1         1       112       112      0.06456793
         9         9         2         2        62        62     -0.05472295
         9         9         3         3        61        61     -0.05425820
        10        10         1         1        60        91      0.05211981
        10        10         1         1        80        80      0.05316079
        10        10         1         1        80        91      0.05518479
        10        10         1         1        80       112      0.05335891
        10        10         1         1        91        60      0.05211981
        10        10         1         1        91        80      0.05518479
        10        10         1         1       112        80      0.05335891
        10        10         2         2        32        55     -0.05695972
        10        10         2         2        32        62     -0.05911886
        10        10         2         2        39        39     -0.05142480
        10        10         2         2        39        55     -0.06708924
        10        10         2         2        39        62     -0.07108092
        10        10         2         2        39        78     -0.06110589
        10        10         2         2        55        32     -0.05695972
        10        10         2         2        55        39     -0.06708924
        10        10         2         2        55        55     -0.08897139
        10        10         2         2        55        62     -0.09506378
        10        10         2         2        55        78     -0.08277648
        10        10         2         2        55        85      0.05955188
        10        10         2         2        62        32     -0.05911886
        10        10         2         2        62        39     -0.07108092
        10        10         2         2        62        55     -0.09506378
        10        10         2         2        62        62     -0.10320733
        10        10         2         2        62        78     -0.09191666
        10        10         2         2        62        85      0.06780446
        10        10         2         2        78        39     -0.06110589
        10        10         2         2        78        55     -0.08277648
        10        10         2         2        78        62     -0.09191666
        10        10         2         2        78        78     -0.08429868
        10        10         2         2        78        85      0.06424415
        10        10         2         2        85        55      0.05955188
        10        10         2         2        85        62      0.06780446
        10        10         2         2        85        78      0.06424415
        10        10         2         2        85        85     -0.05087525
        10        10         3         3        31        54      0.05446659
        10        10         3         3        31        61      0.05672264
        10        10         3         3        38        38     -0.05962673
        10        10         3         3        38        54     -0.07162313
        10        10         3         3        38        61     -0.07609019
        10        10         3         3        38        77     -0.06462720
        10        10         3         3        54        31      0.05446659
        10        10         3         3        54        38     -0.07162313
        10        10         3         3        54        54     -0.08732739
        10        10         3         3        54        61     -0.09363134
        10        10         3         3        54        77     -0.08061667
        10        10         3         3        54        84      0.05865130
        10        10         3         3        61        31      0.05672264
        10        10         3         3        61        38     -0.07609019
        10        10         3         3        61        54     -0.09363134
        10        10         3         3        61        61     -0.10201046
        10        10         3         3        61        77     -0.08983024
        10        10         3         3        61        84      0.06701177
        10        10         3         3        77        38     -0.06462720
        10        10         3         3        77        54     -0.08061667
        10        10         3         3        77        61     -0.08983024
        10        10         3         3        77        77     -0.08145204
        10        10         3         3        77        84      0.06277241
        10        10         3         3        84        54      0.05865130
        10        10         3         3        84        61      0.06701177
        10        10         3         3        84        77      0.06277241
        10        10         3         3        84        84     -0.05026744
        11         6         1         1        79        91     -0.05181626
        11         6         1         1        79       112     -0.05861769
        11         6         1         1        80       112     -0.05710064
        11         6         1         1        91        79     -0.05196565
        11         6         1         1        91        91     -0.08996980
        11         6         1         1        91       112     -0.10365463
        11         6         1         1        91       123     -0.05793648
        11         6         1         1        91       124     -0.06424193
        11         6         1         1       112        79     -0.05842972
        11         6         1         1       112        80     -0.05696514
        11         6         1         1       112        91     -0.10375849
        11         6         1         1       112       112     -0.12030446
        11         6         1         1       112       123     -0.06883939
        11         6         1         1       112       124     -0.07656304
        11         6         1         1       112       127      0.05401334
        11         6         1         1       123        91     -0.05781553
        11         6         1         1       123       112     -0.06891585
        11         6         1         1       124        91     -0.06410180
        11         6         1         1       124       112     -0.07665392
        11         6         1         1       127       112      0.05387541
         6        11         1         1        79        91     -0.05196565
         6        11         1         1        79       112     -0.05842972
         6        11         1         1        80       112     -0.05696514
         6        11         1         1        91        79     -0.05181626
         6        11         1         1        91        91     -0.08996980
         6        11         1         1        91       112     -0.10375849
         6        11         1         1        91       123     -0.05781553
         6        11         1         1        91       124     -0.06410180
         6        11         1         1       112        79     -0.05861769
         6        11         1         1       112        80     -0.05710064
         6        11         1         1       112        91     -0.10365463
         6        11         1         1       112       112     -0.12030446
         6        11         1         1       112       123     -0.06891585
         6        11         1         1       112       124     -0.07665392
         6        11         1         1       112       127      0.05387541
         6        11         1         1       123        91     -0.05793648
         6        11         1         1       123       112     -0.06883939
         6        11         1         1       124        91     -0.06424193
         6        11         1         1       124       112     -0.07656304
         6        11         1         1       127       112      0.05401334
        11         7         2         2        62        86     -0.05735037
        11         7         2         2        78        86     -0.05947544
        11         7         2         2        85        86      0.05008098
        11         7         2         2        86        62     -0.05734553
        11         7         2         2        86        78     -0.05947088
        11         7         2         2        86        85      0.05007734
        11         7         3         3        61        85      0.05731169
        11         7         3         3        77        85      0.05831665
        11         7         3         3        85        61      0.05731642
        11         7         3         3        85        77      0.05832122
         7        11         2         2        62        86     -0.05734553
         7        11         2         2        78        86     -0.05947088
         7        11         2         2        85        86      0.05007734
         7        11         2         2        86        62     -0.05735037
         7        11         2         2        86        78     -0.05947544
         7        11         2         2        86        85      0.05008098
         7        11         3         3        61        85      0.05731642
         7        11         3         3        77        85      0.05832122
         7        11         3         3        85        61      0.05731169
         7        11         3         3        85        77      0.05831665
        11        10         1         1        50       125      0.06189289
        11        10         1         1        60       125     -0.07135515
        11        10         1         1        79       125     -0.07512266
        11        10         1         1        80       107     -0.05132439
        11        10         1         1        80       125     -0.08928842
        11        10         1         1        80       131     -0.05459353
        11        10         1         1        90       125      0.05069471
        11        10         1         1        91       105     -0.07015143
        11        10         1         1        91       107     -0.06893567
        11        10         1         1        91       112     -0.06506911
        11        10         1         1        91       125     -0.13505622
        11        10         1         1        91       131     -0.08601888
        11        10         1         1       105        91     -0.07018650
        11        10         1         1       105       112     -0.07096228
        11        10         1         1       107        80     -0.05131638
        11        10         1         1       107        91     -0.06895456
        11        10         1         1       107       112     -0.06697130
        11        10         1         1       112        91     -0.06506847
        11        10         1         1       112       105     -0.07095177
        11        10         1         1       112       107     -0.06695301
        11        10         1         1       112       112     -0.08388335
        11        10         1         1       112       125     -0.14418730
        11        10         1         1       112       131     -0.09624566
        11        10         1         1       123       125     -0.07949116
        11        10         1         1       123       131     -0.05637456
        11        10         1         1       124       125     -0.09133176
        11        10         1         1       124       131     -0.06475689
        11        10         1         1       125        50      0.06191137
        11        10         1         1       125        60     -0.07136389
        11        10         1         1       125        79     -0.07513793
        11        10         1         1       125        80     -0.08930186
        11        10         1         1       125        90      0.05070256
        11        10         1         1       125        91     -0.13507892
        11        10         1         1       125       112     -0.14420139
        11        10         1         1       125       123     -0.07947650
        11        10         1         1       125       124     -0.09135832
        11        10         1         1       125       127      0.06273135
        11        10         1         1       127       125      0.06272376
        11        10         1         1       131        80     -0.05459631
        11        10         1         1       131        91     -0.08603051
        11        10         1         1       131       112     -0.09625509
        11        10         1         1       131       123     -0.05638940
        11        10         1         1       131       124     -0.06475178
        10        11         1         1        50       125      0.06191137
        10        11         1         1        60       125     -0.07136389
        10        11         1         1        79       125     -0.07513793
        10        11         1         1        80       107     -0.05131638
        10        11         1         1        80       125     -0.08930186
        10        11         1         1        80       131     -0.05459631
        10        11         1         1        90       125      0.05070256
        10        11         1         1        91       105     -0.07018650
        10        11         1         1        91       107     -0.06895456
        10        11         1         1        91       112     -0.06506847
        10        11         1         1        91       125     -0.13507892
        10        11         1         1        91       131     -0.08603051
        10        11         1         1       105        91     -0.07015143
        10        11         1         1       105       112     -0.07095177
        10        11         1         1       107        80     -0.05132439
        10        11         1         1       107        91     -0.06893567
        10        11         1         1       107       112     -0.06695301
        10        11         1         1       112        91     -0.06506911
        10        11         1         1       112       105     -0.07096228
        10        11         1         1       112       107     -0.06697130
        10        11         1         1       112       112     -0.08388335
        10        11         1         1       112       125     -0.14420139
        10        11         1         1       112       131     -0.09625509
        10        11         1         1       123       125     -0.07947650
        10        11         1         1       123       131     -0.05638940
        10        11         1         1       124       125     -0.09135832
        10        11         1         1       124       131     -0.06475178
        10        11         1         1       125        50      0.06189289
        10        11         1         1       125        60     -0.07135515
        10        11         1         1       125        79     -0.07512266
        10        11         1         1       125        80     -0.08928842
        10        11         1         1       125        90      0.05069471
        10        11         1         1       125        91     -0.13505622
        10        11         1         1       125       112     -0.14418730
        10        11         1         1       125       123     -0.07949116
        10        11         1         1       125       124     -0.09133176
        10        11         1         1       125       127      0.06272376
        10        11         1         1       127       125      0.06273135
        10        11         1         1       131        80     -0.05459353
        10        11         1         1       131        91     -0.08601888
        10        11         1         1       131       112     -0.09624566
        10        11         1         1       131       123     -0.05637456
        10        11         1         1       131       124     -0.06475689
        11        11         1         1        36        80     -0.06380541
        11        11         1         1        36        91     -0.07436696
        11        11         1         1        36       112     -0.06462941
        11        11         1         1        50        80     -0.07106048
        11        11         1         1        50        91     -0.07799724
        11        11         1         1        50        92      0.05259193
        11        11         1         1        50       112     -0.06939991
        11        11         1         1        52        91     -0.05217181
        11        11         1         1        54        91      0.07103982
        11        11         1         1        54       112      0.06540682
        11        11         1         1        57        57      0.06805499
        11        11         1         1        57        79     -0.07531597
        11        11         1         1        57        80     -0.08152980
        11        11         1         1        57        82      0.05138378
        11        11         1         1        57        90      0.05262210
        11        11         1         1        57        91     -0.11961538
        11        11         1         1        57        92      0.06247298
        11        11         1         1        57       107      0.05527922
        11        11         1         1        57       112     -0.11444557
        11        11         1         1        57       121     -0.05152948
        11        11         1         1        57       123     -0.07555006
        11        11         1         1        58        80      0.05232833
        11        11         1         1        58        91      0.06609201
        11        11         1         1        58        92     -0.06856258
        11        11         1         1        58       107     -0.05413890
        11        11         1         1        58       112      0.06601000
        11        11         1         1        58       121      0.05904307
        11        11         1         1        58       123      0.05519667
        11        11         1         1        60        60      0.05789025
        11        11         1         1        60        80      0.08024141
        11        11         1         1        60        91      0.08346970
        11        11         1         1        60        92     -0.05879812
        11        11         1         1        60       112      0.07367354
        11        11         1         1        61        91     -0.05139758
        11        11         1         1        63        91     -0.06775536
        11        11         1         1        63       112     -0.06429705
        11        11         1         1        68        79      0.05787835
        11        11         1         1        68        80      0.06726754
        11        11         1         1        68        91      0.09267056
        11        11         1         1        68       112      0.09037860
        11        11         1         1        68       123      0.05895313
        11        11         1         1        79        57     -0.07531597
        11        11         1         1        79        68      0.05787835
        11        11         1         1        79        79      0.07244813
        11        11         1         1        79        80      0.09288139
        11        11         1         1        79        90     -0.05832301
        11        11         1         1        79        91      0.12572211
        11        11         1         1        79        92     -0.09998489
        11        11         1         1        79       107     -0.08095449
        11        11         1         1        79       112      0.12534521
        11        11         1         1        79       121      0.08544163
        11        11         1         1        79       123      0.09251258
        11        11         1         1        79       125     -0.06035115
        11        11         1         1        79       127     -0.05343967
        11        11         1         1        80        36     -0.06380541
        11        11         1         1        80        50     -0.07106048
        11        11         1         1        80        57     -0.08152980
        11        11         1         1        80        58      0.05232833
        11        11         1         1        80        60      0.08024141
        11        11         1         1        80        68      0.06726754
        11        11         1         1        80        79      0.09288139
        11        11         1         1        80        80      0.12640714
        11        11         1         1        80        90     -0.06551876
        11        11         1         1        80        91      0.15931698
        11        11         1         1        80        92     -0.11469472
        11        11         1         1        80       107     -0.07246722
        11        11         1         1        80       112      0.15515037
        11        11         1         1        80       121      0.07427411
        11        11         1         1        80       123      0.09303877
        11        11         1         1        80       124      0.07792570
        11        11         1         1        80       125     -0.06563438
        11        11         1         1        80       127     -0.05934641
        11        11         1         1        82        57      0.05138378
        11        11         1         1        82        91     -0.07560607
        11        11         1         1        82       107      0.05626115
        11        11         1         1        82       112     -0.07912492
        11        11         1         1        82       121     -0.06079083
        11        11         1         1        82       123     -0.07109947
        11        11         1         1        88        91     -0.05990984
        11        11         1         1        88       112     -0.05947965
        11        11         1         1        90        57      0.05262210
        11        11         1         1        90        79     -0.05832301
        11        11         1         1        90        80     -0.06551876
        11        11         1         1        90        91     -0.09880425
        11        11         1         1        90        92      0.06606168
        11        11         1         1        90       107      0.05414985
        11        11         1         1        90       112     -0.10168912
        11        11         1         1        90       121     -0.05954849
        11        11         1         1        90       123     -0.07227295
        11        11         1         1        91        36     -0.07436696
        11        11         1         1        91        50     -0.07799724
        11        11         1         1        91        52     -0.05217181
        11        11         1         1        91        54      0.07103982
        11        11         1         1        91        57     -0.11961538
        11        11         1         1        91        58      0.06609201
        11        11         1         1        91        60      0.08346970
        11        11         1         1        91        61     -0.05139758
        11        11         1         1        91        63     -0.06775536
        11        11         1         1        91        68      0.09267056
        11        11         1         1        91        79      0.12572211
        11        11         1         1        91        80      0.15931698
        11        11         1         1        91        82     -0.07560607
        11        11         1         1        91        88     -0.05990984
        11        11         1         1        91        90     -0.09880425
        11        11         1         1        91        91      0.21717923
        11        11         1         1        91        92     -0.17144825
        11        11         1         1        91        95     -0.05870433
        11        11         1         1        91       107     -0.12792478
        11        11         1         1        91       112      0.22505014
        11        11         1         1        91       115     -0.05408821
        11        11         1         1        91       121      0.15173818
        11        11         1         1        91       123      0.16253286
        11        11         1         1        91       124      0.09489571
        11        11         1         1        91       125     -0.10115168
        11        11         1         1        91       127     -0.09983449
        11        11         1         1        91       130      0.08351365
        11        11         1         1        91       131     -0.06577792
        11        11         1         1        92        50      0.05259193
        11        11         1         1        92        57      0.06247298
        11        11         1         1        92        58     -0.06856258
        11        11         1         1        92        60     -0.05879812
        11        11         1         1        92        79     -0.09998489
        11        11         1         1        92        80     -0.11469472
        11        11         1         1        92        90      0.06606168
        11        11         1         1        92        91     -0.17144825
        11        11         1         1        92        92      0.05455492
        11        11         1         1        92       112     -0.17440635
        11        11         1         1        92       123     -0.09449024
        11        11         1         1        92       124     -0.09748295
        11        11         1         1        92       127      0.06456440
        11        11         1         1        95        91     -0.05870433
        11        11         1         1        95       112     -0.06306254
        11        11         1         1        95       123     -0.06113999
        11        11         1         1       107        57      0.05527922
        11        11         1         1       107        58     -0.05413890
        11        11         1         1       107        79     -0.08095449
        11        11         1         1       107        80     -0.07246722
        11        11         1         1       107        82      0.05626115
        11        11         1         1       107        90      0.05414985
        11        11         1         1       107        91     -0.12792478
        11        11         1         1       107       112     -0.13472118
        11        11         1         1       107       123     -0.07620128
        11        11         1         1       107       124     -0.07485515
        11        11         1         1       107       127      0.05318438
        11        11         1         1       112        36     -0.06462941
        11        11         1         1       112        50     -0.06939991
        11        11         1         1       112        54      0.06540682
        11        11         1         1       112        57     -0.11444557
        11        11         1         1       112        58      0.06601000
        11        11         1         1       112        60      0.07367354
        11        11         1         1       112        63     -0.06429705
        11        11         1         1       112        68      0.09037860
        11        11         1         1       112        79      0.12534521
        11        11         1         1       112        80      0.15515037
        11        11         1         1       112        82     -0.07912492
        11        11         1         1       112        88     -0.05947965
        11        11         1         1       112        90     -0.10168912
        11        11         1         1       112        91      0.22505014
        11        11         1         1       112        92     -0.17440635
        11        11         1         1       112        95     -0.06306254
        11        11         1         1       112       107     -0.13472118
        11        11         1         1       112       112      0.24211717
        11        11         1         1       112       115     -0.05839757
        11        11         1         1       112       121      0.16530459
        11        11         1         1       112       123      0.18291609
        11        11         1         1       112       124      0.10622822
        11        11         1         1       112       125     -0.11205949
        11        11         1         1       112       127     -0.11734172
        11        11         1         1       112       130      0.09649819
        11        11         1         1       112       131     -0.07691525
        11        11         1         1       115        91     -0.05408821
        11        11         1         1       115       112     -0.05839757
        11        11         1         1       121        57     -0.05152948
        11        11         1         1       121        58      0.05904307
        11        11         1         1       121        79      0.08544163
        11        11         1         1       121        80      0.07427411
        11        11         1         1       121        82     -0.06079083
        11        11         1         1       121        90     -0.05954849
        11        11         1         1       121        91      0.15173818
        11        11         1         1       121       112      0.16530459
        11        11         1         1       121       123      0.10012089
        11        11         1         1       121       124      0.09573516
        11        11         1         1       121       127     -0.07192459
        11        11         1         1       123        57     -0.07555006
        11        11         1         1       123        58      0.05519667
        11        11         1         1       123        68      0.05895313
        11        11         1         1       123        79      0.09251258
        11        11         1         1       123        80      0.09303877
        11        11         1         1       123        82     -0.07109947
        11        11         1         1       123        90     -0.07227295
        11        11         1         1       123        91      0.16253286
        11        11         1         1       123        92     -0.09449024
        11        11         1         1       123        95     -0.06113999
        11        11         1         1       123       107     -0.07620128
        11        11         1         1       123       112      0.18291609
        11        11         1         1       123       121      0.10012089
        11        11         1         1       123       123      0.13140571
        11        11         1         1       123       124      0.09380935
        11        11         1         1       123       125     -0.06055846
        11        11         1         1       123       127     -0.09237114
        11        11         1         1       123       130      0.06128703
        11        11         1         1       124        80      0.07792570
        11        11         1         1       124        91      0.09489571
        11        11         1         1       124        92     -0.09748295
        11        11         1         1       124       107     -0.07485515
        11        11         1         1       124       112      0.10622822
        11        11         1         1       124       121      0.09573516
        11        11         1         1       124       123      0.09380935
        11        11         1         1       124       125     -0.06753175
        11        11         1         1       124       127     -0.06076725
        11        11         1         1       124       130      0.06189070
        11        11         1         1       125        79     -0.06035115
        11        11         1         1       125        80     -0.06563438
        11        11         1         1       125        91     -0.10115168
        11        11         1         1       125       112     -0.11205949
        11        11         1         1       125       123     -0.06055846
        11        11         1         1       125       124     -0.06753175
        11        11         1         1       127        79     -0.05343967
        11        11         1         1       127        80     -0.05934641
        11        11         1         1       127        91     -0.09983449
        11        11         1         1       127        92      0.06456440
        11        11         1         1       127       107      0.05318438
        11        11         1         1       127       112     -0.11734172
        11        11         1         1       127       121     -0.07192459
        11        11         1         1       127       123     -0.09237114
        11        11         1         1       127       124     -0.06076725
        11        11         1         1       127       127      0.06838741
        11        11         1         1       130        91      0.08351365
        11        11         1         1       130       112      0.09649819
        11        11         1         1       130       123      0.06128703
        11        11         1         1       130       124      0.06189070
        11        11         1         1       131        91     -0.06577792
        11        11         1         1       131       112     -0.07691525
        11        11         2         2        39        39     -0.05835893
        11        11         2         2        39        55     -0.06538333
        11        11         2         2        39        62     -0.06730901
        11        11         2         2        39        78     -0.05590265
        11        11         2         2        55        39     -0.06538333
        11        11         2         2        55        55     -0.07562280
        11        11         2         2        55        62     -0.07698998
        11        11         2         2        55        78     -0.06461376
        11        11         2         2        62        39     -0.06730901
        11        11         2         2        62        55     -0.07698998
        11        11         2         2        62        62     -0.08245996
        11        11         2         2        62        74     -0.05353006
        11        11         2         2        62        78     -0.07077868
        11        11         2         2        62        84      0.05200682
        11        11         2         2        62        85      0.05052267
        11        11         2         2        62        86     -0.05848263
        11        11         2         2        72        78     -0.05849956
        11        11         2         2        72        85      0.05054000
        11        11         2         2        74        62     -0.05353006
        11        11         2         2        74        78     -0.05414830
        11        11         2         2        78        39     -0.05590265
        11        11         2         2        78        55     -0.06461376
        11        11         2         2        78        62     -0.07077868
        11        11         2         2        78        72     -0.05849956
        11        11         2         2        78        74     -0.05414830
        11        11         2         2        78        78     -0.06430466
        11        11         2         2        78        84      0.05566930
        11        11         2         2        78        86     -0.07718870
        11        11         2         2        84        62      0.05200682
        11        11         2         2        84        78      0.05566930
        11        11         2         2        85        62      0.05052267
        11        11         2         2        85        72      0.05054000
        11        11         2         2        85        86      0.07291498
        11        11         2         2        85        89      0.05028035
        11        11         2         2        86        62     -0.05848263
        11        11         2         2        86        78     -0.07718870
        11        11         2         2        86        85      0.07291498
        11        11         2         2        89        85      0.05028035
        11        11         3         3        38        38     -0.06781438
        11        11         3         3        38        54     -0.07098902
        11        11         3         3        38        61     -0.07344386
[...]
        26        25         3         3        37        55      0.08026951
        26        25         3         3        37        57      0.05561961
        26        25         3         3        37        61     -0.34277300
        26        25         3         3        37        70     -0.06116890
        26        25         3         3        37        71      0.20936662
        26        25         3         3        37        72      0.16419510
        26        25         3         3        37        77     -0.28583756
        26        25         3         3        37        78      0.05413803
        26        25         3         3        37        84      0.19961926
        26        25         3         3        37        85      0.26365936
        26        25         3         3        37        86      0.09249795
        26        25         3         3        37        88      0.15151023
        26        25         3         3        37        91      0.05614638
        26        25         3         3        38        10     -0.13224055
        26        25         3         3        38        15     -0.18988366
        26        25         3         3        38        16     -0.07113870
        26        25         3         3        38        21      0.29834167
        26        25         3         3        38        22     -0.09714702
        26        25         3         3        38        24      0.07603847
        26        25         3         3        38        26      0.12174088
        26        25         3         3        38        31     -0.35504044
        26        25         3         3        38        33     -0.17707671
        26        25         3         3        38        35      0.08753827
        26        25         3         3        38        37     -0.24823870
        26        25         3         3        38        38      0.42271060
        26        25         3         3        38        39     -0.14533651
        26        25         3         3        38        44     -0.09184686
        26        25         3         3        38        48      0.17901956
        26        25         3         3        38        50     -0.23933429
        26        25         3         3        38        51     -0.18711982
        26        25         3         3        38        52     -0.05083323
        26        25         3         3        38        54      0.53901054
        26        25         3         3        38        55     -0.13771734
        26        25         3         3        38        57     -0.09865016
        26        25         3         3        38        59      0.06032854
        26        25         3         3        38        61      0.59112908
        26        25         3         3        38        70      0.11380970
        26        25         3         3        38        71     -0.39215563
        26        25         3         3        38        72     -0.30699004
        26        25         3         3        38        77      0.49516575
        26        25         3         3        38        78     -0.09357885
        26        25         3         3        38        84     -0.34707809
        26        25         3         3        38        85     -0.49344660
        26        25         3         3        38        86     -0.16096816
        26        25         3         3        38        88     -0.28338840
        26        25         3         3        38        89     -0.05862784
        26        25         3         3        38        91     -0.10501900
        26        25         3         3        39        15      0.06372218
        26        25         3         3        39        21     -0.10124811
        26        25         3         3        39        31      0.12026500
        26        25         3         3        39        33      0.06370214
        26        25         3         3        39        37      0.08716626
        26        25         3         3        39        38     -0.14533793
        26        25         3         3        39        39      0.05041514
        26        25         3         3        39        48     -0.05040635
        26        25         3         3        39        50      0.06687216
        26        25         3         3        39        51      0.05798246
        26        25         3         3        39        54     -0.18840254
        26        25         3         3        39        61     -0.20711243
        26        25         3         3        39        71      0.11221624
        26        25         3         3        39        72      0.08872891
        26        25         3         3        39        77     -0.17412890
        26        25         3         3        39        84      0.12197379
        26        25         3         3        39        85      0.14266298
        26        25         3         3        39        86      0.05668979
        26        25         3         3        39        88      0.08217215
        26        25         3         3        42        85      0.05093747
        26        25         3         3        44        21     -0.05833845
        26        25         3         3        44        31      0.06791299
        26        25         3         3        44        38     -0.09184493
        26        25         3         3        44        54     -0.11775012
        26        25         3         3        44        61     -0.12552511
        26        25         3         3        44        77     -0.10469202
        26        25         3         3        44        84      0.07232738
        26        25         3         3        48        15     -0.06117691
        26        25         3         3        48        21      0.11083642
        26        25         3         3        48        31     -0.13158909
        26        25         3         3        48        33     -0.08764241
        26        25         3         3        48        37     -0.09555760
        26        25         3         3        48        38      0.17906974
        26        25         3         3        48        39     -0.05036924
        26        25         3         3        48        54      0.23204290
        26        25         3         3        48        55     -0.05801918
        26        25         3         3        48        61      0.25048995
        26        25         3         3        48        77      0.21106940
        26        25         3         3        48        84     -0.14702895
        26        25         3         3        48        86     -0.06937948
        26        25         3         3        50        15      0.08101870
        26        25         3         3        50        21     -0.14700394
        26        25         3         3        50        31      0.17425683
        26        25         3         3        50        33      0.11825775
        26        25         3         3        50        37      0.12571837
        26        25         3         3        50        38     -0.23948482
        26        25         3         3        50        39      0.06679533
        26        25         3         3        50        54     -0.31014793
        26        25         3         3        50        55      0.07692011
        26        25         3         3        50        61     -0.33453736
        26        25         3         3        50        71     -0.05779214
        26        25         3         3        50        77     -0.28242095
        26        25         3         3        50        78      0.05388005
        26        25         3         3        50        84      0.19709370
        26        25         3         3        50        85     -0.06720241
        26        25         3         3        50        86      0.09340315
        26        25         3         3        51        15      0.06894384
        26        25         3         3        51        21     -0.11884861
        26        25         3         3        51        31      0.14209002
        26        25         3         3        51        33      0.08461115
        26        25         3         3        51        37      0.10351373
        26        25         3         3        51        38     -0.18719704
        26        25         3         3        51        39      0.05793088
        26        25         3         3        51        51      0.05121583
        26        25         3         3        51        54     -0.24456476
        26        25         3         3        51        55      0.06147557
        26        25         3         3        51        61     -0.27079645
        26        25         3         3        51        71      0.06177402
        26        25         3         3        51        72      0.05244697
        26        25         3         3        51        77     -0.23103210
        26        25         3         3        51        84      0.16363329
        26        25         3         3        51        85      0.08466675
        26        25         3         3        51        86      0.07763008
        26        25         3         3        51        88      0.05020039
        26        25         3         3        52        38     -0.05086429
        26        25         3         3        52        54     -0.06679420
        26        25         3         3        52        61     -0.07428100
        26        25         3         3        52        77     -0.06352131
        26        25         3         3        54         6      0.05149936
        26        25         3         3        54        10     -0.14546372
        26        25         3         3        54        15     -0.20925493
        26        25         3         3        54        16     -0.07733703
        26        25         3         3        54        21      0.34593483
        26        25         3         3        54        22     -0.11296820
        26        25         3         3        54        24      0.09112181
        26        25         3         3        54        26      0.14624451
        26        25         3         3        54        31     -0.42299187
        26        25         3         3        54        33     -0.21284167
        26        25         3         3        54        35      0.10733631
        26        25         3         3        54        37     -0.31528127
        26        25         3         3        54        38      0.53903859
        26        25         3         3        54        39     -0.18838563
        26        25         3         3        54        44     -0.11774952
        26        25         3         3        54        48      0.23200890
        26        25         3         3        54        50     -0.31010126
        26        25         3         3        54        51     -0.24452897
        26        25         3         3        54        52     -0.06679668
        26        25         3         3        54        54      0.72171582
        26        25         3         3        54        55     -0.18571388
        26        25         3         3        54        57     -0.13130492
        26        25         3         3        54        59      0.08020910
        26        25         3         3        54        61      0.83364246
        26        25         3         3        54        66      0.05329401
        26        25         3         3        54        70      0.16004305
        26        25         3         3        54        71     -0.54994167
        26        25         3         3        54        72     -0.43132603
        26        25         3         3        54        77      0.72526108
        26        25         3         3        54        78     -0.13749114
        26        25         3         3        54        84     -0.52477485
        26        25         3         3        54        85     -0.73033134
        26        25         3         3        54        86     -0.25027954
        26        25         3         3        54        88     -0.43395793
        26        25         3         3        54        89     -0.09293410
        26        25         3         3        54        91     -0.16408150
        26        25         3         3        55        15      0.05245509
        26        25         3         3        55        21     -0.08695460
        26        25         3         3        55        31      0.10717798
        26        25         3         3        55        33      0.05403012
        26        25         3         3        55        37      0.08028767
        26        25         3         3        55        38     -0.13767874
        26        25         3         3        55        48     -0.05800800
        26        25         3         3        55        50      0.07696853
        26        25         3         3        55        51      0.06148770
        26        25         3         3        55        54     -0.18569964
        26        25         3         3        55        61     -0.21610354
        26        25         3         3        55        71      0.13806116
        26        25         3         3        55        72      0.10846245
        26        25         3         3        55        77     -0.18914583
        26        25         3         3        55        84      0.13751620
        26        25         3         3        55        85      0.18468148
        26        25         3         3        55        86      0.06584042
        26        25         3         3        55        88      0.11018151
        26        25         3         3        57        21     -0.06178376
        26        25         3         3        57        31      0.07536221
        26        25         3         3        57        37      0.05558942
        26        25         3         3        57        38     -0.09860614
        26        25         3         3        57        54     -0.13136058
        26        25         3         3        57        61     -0.14937836
        26        25         3         3        57        71      0.05781010
        26        25         3         3        57        77     -0.12985316
        26        25         3         3        57        84      0.09379820
        26        25         3         3        57        85      0.07899555
        26        25         3         3        59        38      0.06035295
        26        25         3         3        59        54      0.08021597
        26        25         3         3        59        61      0.08974814
        26        25         3         3        59        77      0.07831537
        26        25         3         3        59        84     -0.05657813
        26        25         3         3        61        10     -0.13959729
        26        25         3         3        61        15     -0.20599694
        26        25         3         3        61        16     -0.07579390
        26        25         3         3        61        21      0.34903838
        26        25         3         3        61        22     -0.11264108
        26        25         3         3        61        24      0.09160805
        26        25         3         3        61        26      0.14764929
        26        25         3         3        61        31     -0.44273667
        26        25         3         3        61        33     -0.22698733
        26        25         3         3        61        35      0.11309930
        26        25         3         3        61        37     -0.34275226
        26        25         3         3        61        38      0.59110286
        26        25         3         3        61        39     -0.20711154
        26        25         3         3        61        44     -0.12550535
        26        25         3         3        61        48      0.25046311
        26        25         3         3        61        50     -0.33448590
        26        25         3         3        61        51     -0.27077020
        26        25         3         3        61        52     -0.07426764
        26        25         3         3        61        54      0.83365568
        26        25         3         3        61        55     -0.21610757
        26        25         3         3        61        57     -0.14936652
        26        25         3         3        61        59      0.08973307
        26        25         3         3        61        61      1.00518224
        26        25         3         3        61        63     -0.05231899
        26        25         3         3        61        66      0.06375740
        26        25         3         3        61        70      0.18922298
        26        25         3         3        61        71     -0.64565233
        26        25         3         3        61        72     -0.50875032
        26        25         3         3        61        73     -0.05679385
        26        25         3         3        61        77      0.91418507
        26        25         3         3        61        78     -0.17339241
        26        25         3         3        61        84     -0.68632850
        26        25         3         3        61        85     -0.91568531
        26        25         3         3        61        86     -0.33951991
        26        25         3         3        61        88     -0.56839167
        26        25         3         3        61        89     -0.12969120
        26        25         3         3        61        91     -0.22091157
        26        25         3         3        61        93     -0.06752496
        26        25         3         3        63        61     -0.05232280
        26        25         3         3        66        54      0.05329932
        26        25         3         3        66        61      0.06375798
        26        25         3         3        66        77      0.05855883
        26        25         3         3        70        21      0.06292296
        26        25         3         3        70        31     -0.07872280
        26        25         3         3        70        33     -0.05116067
        26        25         3         3        70        37     -0.06118854
        26        25         3         3        70        38      0.11381615
        26        25         3         3        70        54      0.16006550
        26        25         3         3        70        61      0.18924281
        26        25         3         3        70        77      0.17363809
        26        25         3         3        70        84     -0.13112796
        26        25         3         3        70        86     -0.06670411
        26        25         3         3        71        10      0.07023300
        26        25         3         3        71        15      0.11588366
        26        25         3         3        71        16      0.06021611
        26        25         3         3        71        21     -0.21575886
        26        25         3         3        71        31      0.26979163
        26        25         3         3        71        33      0.17967505
        26        25         3         3        71        37      0.20945617
        26        25         3         3        71        38     -0.39218587
        26        25         3         3        71        39      0.11227058
        26        25         3         3        71        50     -0.05780900
        26        25         3         3        71        51      0.06177232
        26        25         3         3        71        54     -0.55002252
        26        25         3         3        71        55      0.13812084
