
 Primary working directories    : /global/cscratch1/sd/bkincaid
 Secondary working directories  : /global/cscratch1/sd/bkincaid
 Wavefunction directory         : /global/homes/b/bkincaid/wfu/
 Main file repository           : /global/cscratch1/sd/bkincaid/

 SHA1      : 19cd028119e0e09f93f0674bd8af7968d9b3eff6
 NAME      : 2015.1.36
 ARCHNAME  : linux/x86_64
 FC        : /opt/cray/pe/craype/2.5.14/bin/ftn
 BLASLIB   : -L/opt/intel/compilers_and_libraries_2018.1.163/linux/mkl/lib/intel64 -Wl,-_start-group -lmkl_intel_ilp64 -lmkl_intel_thread -lmkl_core -Wl,-_end-group -liomp5
 id        : lbl

 Nodes     nprocs
 nid00784    23
 Number of processes for MPI-2 version of Molpro:   nprocs(total)=   24   nprocs(compute)=   23   nprocs(helper)=    1

 Using customized tuning parameters: mindgm=7; mindgv=16; mindgc=1; mindgr=1; noblas=0; minvec=7
 default implementation of scratch files=sf  

 ***,Calculation for PdO groundstate
 memory,512,m
 gthresh,twoint=1.0E-12
 gthresh,throvl=1.0E-12
                                                                                 !symmetry,nosym
 
 basis={
 Including file /global/u1/b/bkincaid/molpro/Pd/molecules/PdO/tz/ecps/bk16.9/bk16.9
 Including file /global/u1/b/bkincaid/molpro/Pd/molecules/PdO/tz/ecps/bk16.9/Pd-aug-cc-pwCVTZ.basis
 ecp,O,2,1,0
 3
 1,  12.30997,  6.000000
 3,  14.76962,  73.85984
 2,  13.71419, -47.87600
 1
 2,  13.65512,  85.86406
 Including file /global/u1/b/bkincaid/molpro/Pd/molecules/PdO/tz/ecps/bk16.9/O-aug-cc-CVTZ.basis
 }
 
 OE=-75.09181489
 PdE=-5044.366379
 
 A1=6
 B1=3
 B2=3
 A2=1
 
 ne = 24
 do i=1,11
 z(i) = 1.985 - 0.05*(i-1)
 geometry={
         2
         PdO
         Pd 0.0 0.0 0.0
         O 0.0 0.0 z(i)
 }
 {rhf
 wf,nelec=ne,spin=2,sym=2
 occ,A1,B1,B2,A2
 closed,A1-1,B1-1,B2,A2
 }
 
 scf(i)=energy
 _CC_NORM_MAX=2.0
 {rccsd(t);maxit,100;core}
 ccsd(i)=energy
 enddo
 
 table,z,scf,ccsd
 save
 type,csv

 Variables initialized (889), CPU time= 0.01 sec
 Commands  initialized (702), CPU time= 0.01 sec, 572 directives.
 Default parameters read. Elapsed time= 0.19 sec

 Checking input...
 Passed
1


                                         ***  PROGRAM SYSTEM MOLPRO  ***
                                       Copyright, TTI GmbH Stuttgart, 2015
                                    Version 2015.1 linked Dec 29 2018 15:55:43


 **********************************************************************************************************************************
 LABEL *   Calculation for PdO groundstate                                               
  64 bit mpp version                                                                     DATE: 22-Apr-21          TIME: 01:50:17  
 **********************************************************************************************************************************

 SHA1:             19cd028119e0e09f93f0674bd8af7968d9b3eff6
 **********************************************************************************************************************************

 THRESHOLDS:

 ZERO    =  1.00D-12  ONEINT  =  1.00D-12  TWOINT  =  1.00D-12  PREFAC  =  1.00D-14  LOCALI  =  1.00D-09  EORDER  =  1.00D-04
 ENERGY  =  0.00D+00  ETEST   =  0.00D+00  EDENS   =  0.00D+00  THRDEDEF=  1.00D-06  GRADIENT=  1.00D-02  STEP    =  1.00D-03
 ORBITAL =  1.00D-05  CIVEC   =  1.00D-05  COEFF   =  1.00D-04  PRINTCI =  5.00D-02  PUNCHCI =  9.90D+01  OPTGRAD =  3.00D-04
 OPTENERG=  1.00D-06  OPTSTEP =  3.00D-04  THRGRAD =  1.00D-10  COMPRESS=  1.00D-11  VARMIN  =  1.00D-07  VARMAX  =  1.00D-03
 THRDOUB =  0.00D+00  THRDIV  =  1.00D-05  THRRED  =  1.00D-07  THRPSP  =  1.00D+00  THRDC   =  1.00D-10  THRCS   =  1.00D-10
 THRNRM  =  1.00D-08  THREQ   =  0.00D+00  THRDE   =  1.00D+00  THRREF  =  1.00D-05  SPARFAC =  1.00D+00  THRDLP  =  1.00D-07
 THRDIA  =  1.00D-10  THRDLS  =  1.00D-07  THRGPS  =  0.00D+00  THRKEX  =  0.00D+00  THRDIS  =  2.00D-01  THRVAR  =  1.00D-10
 THRLOC  =  1.00D-06  THRGAP  =  1.00D-06  THRLOCT = -1.00D+00  THRGAPT = -1.00D+00  THRORB  =  1.00D-06  THRMLTP =  0.00D+00
 THRCPQCI=  1.00D-10  KEXTA   =  0.00D+00  THRCOARS=  0.00D+00  SYMTOL  =  1.00D-06  GRADTOL =  1.00D-06  THROVL  =  1.00D-08
 THRORTH =  1.00D-08  GRID    =  1.00D-06  GRIDMAX =  1.00D-03  DTMAX   =  0.00D+00  THROCCDE=  1.00D-01  THROCCDE=  1.00D-01



 THRESHOLDS:

 ZERO    =  1.00D-12  ONEINT  =  1.00D-12  TWOINT  =  1.00D-12  PREFAC  =  1.00D-14  LOCALI  =  1.00D-09  EORDER  =  1.00D-04
 ENERGY  =  0.00D+00  ETEST   =  0.00D+00  EDENS   =  0.00D+00  THRDEDEF=  1.00D-06  GRADIENT=  1.00D-02  STEP    =  1.00D-03
 ORBITAL =  1.00D-05  CIVEC   =  1.00D-05  COEFF   =  1.00D-04  PRINTCI =  5.00D-02  PUNCHCI =  9.90D+01  OPTGRAD =  3.00D-04
 OPTENERG=  1.00D-06  OPTSTEP =  3.00D-04  THRGRAD =  1.00D-10  COMPRESS=  1.00D-11  VARMIN  =  1.00D-07  VARMAX  =  1.00D-03
 THRDOUB =  0.00D+00  THRDIV  =  1.00D-05  THRRED  =  1.00D-07  THRPSP  =  1.00D+00  THRDC   =  1.00D-10  THRCS   =  1.00D-10
 THRNRM  =  1.00D-08  THREQ   =  0.00D+00  THRDE   =  1.00D+00  THRREF  =  1.00D-05  SPARFAC =  1.00D+00  THRDLP  =  1.00D-07
 THRDIA  =  1.00D-10  THRDLS  =  1.00D-07  THRGPS  =  0.00D+00  THRKEX  =  0.00D+00  THRDIS  =  2.00D-01  THRVAR  =  1.00D-10
 THRLOC  =  1.00D-06  THRGAP  =  1.00D-06  THRLOCT = -1.00D+00  THRGAPT = -1.00D+00  THRORB  =  1.00D-06  THRMLTP =  0.00D+00
 THRCPQCI=  1.00D-10  KEXTA   =  0.00D+00  THRCOARS=  0.00D+00  SYMTOL  =  1.00D-06  GRADTOL =  1.00D-06  THROVL  =  1.00D-12
 THRORTH =  1.00D-08  GRID    =  1.00D-06  GRIDMAX =  1.00D-03  DTMAX   =  0.00D+00  THROCCDE=  1.00D-01  THROCCDE=  1.00D-01



 Variable memory set to  512000000 words,  buffer space   230000 words

 SETTING BASIS          =    USERDEF
 SETTING OE             =       -75.09181489                                  
 SETTING PDE            =     -5044.36637900                                  
 SETTING A1             =         6.00000000                                  
 SETTING B1             =         3.00000000                                  
 SETTING B2             =         3.00000000                                  
 SETTING A2             =         1.00000000                                  
 SETTING NE             =        24.00000000                                  

 DO I                   =         1.00000000   
 SETTING Z(1)           =         1.98500000                                  

Geometry recognized as XYZ



 Recomputing integrals since basis changed


 Using spherical harmonics



 PROGRAM * SEWARD (Integral evaluation for generally contracted gaussian basis sets)     Author: Roland Lindh, 1990

 Geometry written to block  1 of record 700


 Point group  C2v 



 ATOMIC COORDINATES

 NR  ATOM    CHARGE       X              Y              Z

   1  PD     18.00    0.000000000    0.000000000    0.000000000
   2  O       6.00    0.000000000    0.000000000    3.751106357

 Bond lengths in Bohr (Angstrom)

 1-2  3.751106357
     ( 1.985000000)

 NUCLEAR CHARGE:                   24
 NUMBER OF PRIMITIVE AOS:         370
 NUMBER OF SYMMETRY AOS:          313
 NUMBER OF CONTRACTIONS:          313   ( 138A1  +  71B1  +  71B2  +  33A2  )
 NUMBER OF CORE ORBITALS:           4   (   2A1  +   1B1  +   1B2  +   0A2  )
 NUMBER OF VALENCE ORBITALS:       10   (   5A1  +   2B1  +   2B2  +   1A2  )


 NUCLEAR REPULSION ENERGY   28.79150568

 EXTRA SYMMETRY OF AOS IN SYMMETRY 1:   1 1 1 1 1 1 1 1 1 1   1 1 1 1 1 1 1 1 1 1   1 1 1 1 1 1 1 1 1 1   1 1 1 1 1 1 1 1 1 1
                                        1 1 1 1 1 1 1 1 1 1   1 1 1 2 1 2 1 2 1 2   1 2 1 2 1 2 1 2 1 2   1 2 1 2 1 2 1 2 1 2
                                        1 2 1 2 1 2 1 2 1 2   1 2 1 2 1 3 2 1 3 2   1 3 2 1 1 1 1 1 1 1   1 1 1 1 1 1 1 1 1 1
                                        1 1 1 1 1 1 1 2 1 2   1 2 1 2 1 2 1 2
 EXTRA SYMMETRY OF AOS IN SYMMETRY 2:   1 1 1 1 1 1 1 1 1 1   1 1 1 1 1 1 1 1 1 1   1 1 1 1 1 1 1 1 1 1   1 1 1 1 1 1 1 1 1 1
                                        1 2 1 2 1 2 1 2 1 2   1 2 1 2 1 1 1 1 1 1   1 1 1 1 1 1 1 1 2 1   2
 EXTRA SYMMETRY OF AOS IN SYMMETRY 3:   1 1 1 1 1 1 1 1 1 1   1 1 1 1 1 1 1 1 1 1   1 1 1 1 1 1 1 1 1 1   1 1 1 1 1 1 1 1 1 1
                                        1 2 1 2 1 2 1 2 1 2   1 2 1 2 1 1 1 1 1 1   1 1 1 1 1 1 1 1 2 1   2
 EXTRA SYMMETRY OF AOS IN SYMMETRY 4:   1 1 1 1 1 1 1 1 1 1   1 1 1 1 1 1 1 1 1 1   1 1 2 1 2 1 2 1 1 1   1 1 1

 Eigenvalues of metric

         1 0.890E-06 0.944E-06 0.190E-05 0.902E-05 0.951E-05 0.125E-04 0.264E-04 0.367E-04
         2 0.955E-06 0.982E-06 0.936E-05 0.300E-03 0.471E-03 0.163E-02 0.217E-02 0.300E-02
         3 0.955E-06 0.982E-06 0.936E-05 0.300E-03 0.471E-03 0.163E-02 0.217E-02 0.300E-02
         4 0.951E-05 0.307E-03 0.302E-02 0.107E-01 0.287E-01 0.528E-01 0.881E-01 0.105E+00


 Contracted 2-electron integrals neglected if value below      1.0D-13
 AO integral compression algorithm  1   Integral accuracy      1.0D-13

     925.368 MB (compressed) written to integral file ( 30.8%)

     Node minimum: 18.874 MB, node maximum: 109.314 MB


 NUMBER OF SORTED TWO-ELECTRON INTEGRALS:   13592913.     BUFFER LENGTH:  32768
 NUMBER OF SEGMENTS:   1  SEGMENT LENGTH:   13592913      RECORD LENGTH: 524288

 Memory used in sort:      14.15 MW

 SORT1 READ   375719576. AND WROTE     5415814. INTEGRALS IN     16 RECORDS. CPU TIME:     6.46 SEC, REAL TIME:     8.02 SEC
 SORT2 READ   124261638. AND WROTE   312994044. INTEGRALS IN   3197 RECORDS. CPU TIME:     0.51 SEC, REAL TIME:     0.71 SEC

 Node minimum:    13561530.  Node maximum:    13694643. integrals

 OPERATOR DM      FOR CENTER  0  COORDINATES:    0.000000    0.000000    0.000000


 **********************************************************************************************************************************
 DATASETS  * FILE   NREC   LENGTH (MB)   RECORD NAMES
              1      19       21.20       500      610      700      900      950      970     1000      129      960     1100   
                                          VAR    BASINP    GEOM    SYMINP    ZMAT    AOBASIS   BASIS     P2S    ABASIS      S 
                                         1400     1410     1420     1200     1210     1080     1600     1650     1700   
                                           T        V       ECP      H0       H01     AOSYM     SMH    MOLCAS    OPER   

 PROGRAMS   *        TOTAL       INT
 CPU TIMES  *        26.28     25.82
 REAL TIME  *        29.34 SEC
 DISK USED  *         2.44 GB      
 GA USED    *         0.00 MB       (max)       0.00 MB       (current)
 **********************************************************************************************************************************


 PROGRAM * RHF-SCF (OPEN SHELL)       Authors: W. Meyer, H.-J. Werner


 NUMBER OF ELECTRONS:      13+   11-    SPACE SYMMETRY=2    SPIN SYMMETRY: Triplet 
 CONVERGENCE THRESHOLDS:    1.00E-05 (Density)    1.00E-07 (Energy)
 MAX. NUMBER OF ITERATIONS:       60
 INTERPOLATION TYPE:            DIIS
 INTERPOLATION STEPS:              2 (START)      1 (STEP)
 LEVEL SHIFTS:                 -0.60 (CLOSED) -0.30 (OPEN) 

 Number of closed-shell orbitals:   11 (   5   2   3   1 )
 Number of open-shell orbitals:      2 (   1   1   0   0 )


 Orbital guess generated from atomic densities. Full valence occupancy:    7   3   3   1

 Molecular orbital dump at record        2100.2

 ITERATION    DDIFF          GRAD             ENERGY        2-EL.EN.            DIPOLE MOMENTS         DIIS   ORB.
    1      0.000D+00      0.000D+00      -142.21050986    277.329323    0.00000    0.00000   -3.80303    0    start
    2      0.000D+00      0.724D-02      -142.27063398    280.582103    0.00000    0.00000   -1.82485    1    diag,B
    3      0.105D-01      0.634D-02      -142.30176824    279.071410    0.00000    0.00000   -2.14619    2    diag,B
    4      0.415D-02      0.160D-02      -142.31423665    279.392247    0.00000    0.00000   -1.97871    3    diag,B
    5      0.133D-02      0.131D-02      -142.32600471    279.405831    0.00000    0.00000   -1.88069    4    diag,B
    6      0.760D-03      0.111D-02      -142.34061723    279.424118    0.00000    0.00000   -1.85384    5    diag,B
    7      0.995D-03      0.925D-03      -142.35735557    279.237792    0.00000    0.00000   -1.98765    6    fixocc
    8      0.122D-02      0.677D-03      -142.36604782    278.912778    0.00000    0.00000   -2.16587    7    diag,B
    9      0.951D-03      0.470D-03      -142.36849768    278.828441    0.00000    0.00000   -2.26921    8    diag,B
   10      0.926D-03      0.553D-03      -142.37189333    278.585267    0.00000    0.00000   -2.38875    9    orth
   11      0.113D-02      0.543D-03      -142.37190110    278.462634    0.00000    0.00000   -2.42631    9    diag,B
   12      0.484D-03      0.259D-03      -142.37221367    278.547404    0.00000    0.00000   -2.38864    9    diag,B
   13      0.373D-03      0.106D-03      -142.37236392    278.516244    0.00000    0.00000   -2.40495    9    diag,B
   14      0.178D-03      0.286D-04      -142.37237046    278.513385    0.00000    0.00000   -2.40490    9    diag,B
   15      0.618D-04      0.168D-04      -142.37237239    278.512407    0.00000    0.00000   -2.40428    9    diag,B
   16      0.270D-04      0.566D-05      -142.37237280    278.513317    0.00000    0.00000   -2.40406    9    diag,B
   17      0.128D-04      0.375D-05      -142.37237299    278.513167    0.00000    0.00000   -2.40398    9    diag,B
   18      0.624D-05      0.370D-05      -142.37237314    278.513283    0.00000    0.00000   -2.40420    9    diag,B
   19      0.605D-05      0.270D-05      -142.37237324    278.513315    0.00000    0.00000   -2.40428    9    diag,B
   20      0.287D-05      0.194D-05      -142.37237342    278.513303    0.00000    0.00000   -2.40443    9    orth
   21      0.364D-05      0.148D-05      -142.37237358    278.513326    0.00000    0.00000   -2.40449    9    diag,B
   22      0.450D-05      0.984D-06      -142.37237365    278.513262    0.00000    0.00000   -2.40444    9    diag,B
   23      0.368D-05      0.564D-06      -142.37237366    278.513215    0.00000    0.00000   -2.40445    0    orth

 Final alpha occupancy:   6   3   3   1
 Final beta  occupancy:   5   2   3   1

 !RHF STATE 1.2 Energy               -142.372373657902
 Nuclear energy                        28.79150568
 One-electron energy                 -310.42048691
 Two-electron energy                  139.25660757
 Virial quotient                       -2.33920520
 !RHF STATE 1.2 Dipole moment           0.00000000     0.00000000    -2.40444705
 Dipole moment /Debye                   0.00000000     0.00000000    -6.11109454

 Orbital energies:

         1.1          2.1          3.1          4.1          5.1          6.1          7.1          8.1
     -3.997471    -2.528842    -1.140833    -0.459506    -0.453268    -0.457131    -0.014937     0.031779

         1.2          2.2          3.2          4.2          5.2
     -2.526879    -0.486054    -0.509192     0.021692     0.077664

         1.3          2.3          3.3          4.3          5.3
     -2.526675    -0.505587    -0.386269     0.022609     0.078945

         1.4          2.4          3.4
     -0.459077     0.093389     0.312994

 HOMO      3.3    -0.386269 =     -10.5109eV
 LUMO      7.1    -0.014937 =      -0.4064eV
 LUMO-HOMO         0.371332 =      10.1045eV


 **********************************************************************************************************************************
 DATASETS  * FILE   NREC   LENGTH (MB)   RECORD NAMES
              1      19       21.25       500      610      700      900      950      970     1000      129      960     1100   
                                          VAR    BASINP    GEOM    SYMINP    ZMAT    AOBASIS   BASIS     P2S    ABASIS      S 
                                         1400     1410     1420     1200     1210     1080     1600     1650     1700   
                                           T        V       ECP      H0       H01     AOSYM     SMH    MOLCAS    OPER   

              2       4        3.66       700     1000      520     2100   
                                         GEOM     BASIS   MCVARS     RHF  

 PROGRAMS   *        TOTAL       RHF       INT
 CPU TIMES  *        29.14      2.86     25.82
 REAL TIME  *        32.63 SEC
 DISK USED  *         3.11 GB      
 SF USED    *         0.12 MB      
 GA USED    *         0.00 MB       (max)       0.00 MB       (current)
 **********************************************************************************************************************************
 SETTING SCF(1)         =      -142.37237366  AU                              
 SETTING _CC_NORM_MAX   =         2.00000000                                  


 PROGRAM * CCSD (Restricted open-shell coupled cluster)     Authors: C. Hampel, H.-J. Werner, 1991, M. Deegan, P.J. Knowles, 1992


 Convergence thresholds:  THRVAR = 1.00D-08  THRDEN = 1.00D-06

 CCSD(T)     terms to be evaluated (factor= 1.000)


 Number of closed-shell orbitals:  11 (   5   2   3   1 )
 Number of active  orbitals:        2 (   1   1   0   0 )
 Number of external orbitals:     300 ( 132  68  68  32 )

 Memory could be reduced to 156.60 Mwords without degradation in triples

 Number of N-1 electron functions:              24
 Number of N-2 electron functions:             276
 Number of singly external CSFs:              2280
 Number of doubly external CSFs:           4894910
 Total number of CSFs:                     4897190

 Molecular orbitals read from record     2100.2  Type=RHF/CANONICAL (state 1.2)

 Integral transformation finished. Total CPU:   6.94 sec, npass=  1  Memory used:  15.00 MW

 Starting RMP2 calculation

 Wavefunction is spin-projected

 ITER.      SQ.NORM     CORR.ENERGY   TOTAL ENERGY   ENERGY CHANGE        DEN1      VAR(S)    VAR(P)  DIIS     TIME
   1      1.18094169    -0.95239435  -143.32476801    -0.95239435    -0.00160335  0.87D-05  0.57D-03  1  1     8.14
   2      1.18231627    -0.95409732  -143.32647098    -0.00170297    -0.00000524  0.22D-06  0.28D-05  2  2     9.83
   3      1.18239279    -0.95414527  -143.32651893    -0.00004795    -0.00000003  0.88D-08  0.17D-07  3  3    11.27
   4      1.18239474    -0.95414547  -143.32651912    -0.00000020    -0.00000000  0.25D-09  0.14D-09  4  4    12.65

 Norm of t1 vector:      0.04115407      S-energy:    -0.00580411      T1 diagnostic:  0.00044918
 Norm of t2 vector:      0.42508950      P-energy:    -0.94834135
                                         Alpha-Beta:  -0.67090181
                                         Alpha-Alpha: -0.15874096
                                         Beta-Beta:   -0.11869859

 Spin contamination <S**2-Sz**2-Sz>     0.00000000
  Reference energy                   -142.372373657902
  RHF-RMP2 correlation energy          -0.954145465675
 !RHF-RMP2 energy                    -143.326519123577
 (NB above energy spin projected)

 Starting RCCSD calculation

 ITER.      SQ.NORM     CORR.ENERGY   TOTAL ENERGY   ENERGY CHANGE        DEN1      VAR(S)    VAR(P)  DIIS     TIME
   1      1.16731571    -0.91207721  -143.28445087    -0.91207721    -0.02244568  0.84D-02  0.31D-02  1  1    20.32
   2      1.18305461    -0.93059377  -143.30296742    -0.01851655    -0.00268458  0.57D-03  0.85D-03  2  2    27.69
   3      1.19662827    -0.93340076  -143.30577442    -0.00280699    -0.00095145  0.10D-02  0.94D-04  3  3    34.88
   4      1.20848032    -0.93558533  -143.30795899    -0.00218457    -0.00042520  0.39D-03  0.66D-04  4  4    41.25
   5      1.23024987    -0.93806681  -143.31044047    -0.00248148    -0.00012939  0.11D-03  0.25D-04  5  5    47.49
   6      1.24487715    -0.93912387  -143.31149753    -0.00105706    -0.00003961  0.25D-04  0.11D-04  6  6    56.05
   7      1.25428100    -0.93970149  -143.31207515    -0.00057762    -0.00001146  0.66D-05  0.35D-05  6  1    65.28
   8      1.25614207    -0.93974398  -143.31211764    -0.00004249    -0.00000276  0.14D-05  0.88D-06  6  3    73.71
   9      1.25785779    -0.93987076  -143.31224442    -0.00012679    -0.00000054  0.24D-06  0.20D-06  6  2    79.73
  10      1.25762896    -0.93985300  -143.31222665     0.00001777    -0.00000014  0.82D-07  0.40D-07  6  5    86.03
  11      1.25773842    -0.93985865  -143.31223231    -0.00000566    -0.00000005  0.35D-07  0.13D-07  6  4    92.03
  12      1.25771499    -0.93985648  -143.31223014     0.00000217    -0.00000002  0.18D-07  0.26D-08  6  6    98.65
  13      1.25768669    -0.93985364  -143.31222730     0.00000284    -0.00000001  0.98D-08  0.13D-08  6  3   105.93
  14      1.25768661    -0.93985560  -143.31222926    -0.00000196    -0.00000000  0.38D-08  0.56D-09  6  1   114.66
  15      1.25766716    -0.93985452  -143.31222818     0.00000108    -0.00000000  0.16D-08  0.25D-09  6  2   122.39
  16      1.25765659    -0.93985367  -143.31222733     0.00000085    -0.00000000  0.83D-09  0.11D-09  6  5   130.52

 Norm of t1 vector:      0.25233502      S-energy:    -0.00636058      T1 diagnostic:  0.03557284
                                                                       D1 diagnostic:  0.11684578
 Norm of t2 vector:      0.44043572      P-energy:    -0.93349309
                                         Alpha-Beta:  -0.68412079
                                         Alpha-Alpha: -0.14037086
                                         Beta-Beta:   -0.10900145

 Singles amplitudes (print threshold =  0.500E-01):

         I         SYM. A    A   T(IA) [Alpha-Alpha]

         6         1         2     -0.06325439
 
         I         SYM. A    A   T(IA) [Beta-Beta]

         5         1         1     -0.15796336
         8         2         1      0.10965671

 Doubles amplitudes (print threshold =  0.500E-01):

         I         J         SYM. A    SYM. B    A         B      T(IJ, AB) [Beta-Beta]

         8         5         1         2         1         1      0.06598474
         8         5         2         1         1         1     -0.06598474

 Spin contamination <S**2-Sz**2-Sz>     0.00000000

 Memory could be reduced to 164.20 Mwords without degradation in triples
 

  Correlated core orbitals:             1.1       2.1       1.2       1.3
  Orbital energies:                    -4.0296   -2.6001   -2.5487   -2.5506
 
  RCCSD core-core energy               -0.116479183315
  RCCSD core-valence energy            -0.264828083221
  RCCSD valence correlation energy     -0.558546401771
 

 RESULTS
 =======

  Reference energy                   -142.372373657902
  RCCSD singles energy                 -0.006360575164
  RCCSD pair energy                    -0.933493093144
  RCCSD correlation energy             -0.939853668308
  Triples (T) contribution             -0.038961797009
  Total correlation energy             -0.978815465317
 
  RHF-RCCSD energy                   -143.312227326210
  RHF-RCCSD[T] energy                -143.355308305523
  RHF-RCCSD-T energy                 -143.350774244581
 !RHF-RCCSD(T) energy                -143.351189123219

 Program statistics:

 Available memory in ccsd:               511998418
 Min. memory needed in ccsd:              14064756
 Max. memory used in ccsd:                20157915
 Max. memory used in cckext:              15861012 (16 integral passes)
 Max. memory used in cckint:              15004909 ( 1 integral passes)



 **********************************************************************************************************************************
 DATASETS  * FILE   NREC   LENGTH (MB)   RECORD NAMES
              1      19       21.25       500      610      700      900      950      970     1000      129      960     1100   
                                          VAR    BASINP    GEOM    SYMINP    ZMAT    AOBASIS   BASIS     P2S    ABASIS      S 
                                         1400     1410     1420     1200     1210     1080     1600     1650     1700   
                                           T        V       ECP      H0       H01     AOSYM     SMH    MOLCAS    OPER   

              2       4        3.66       700     1000      520     2100   
                                         GEOM     BASIS   MCVARS     RHF  

 PROGRAMS   *        TOTAL  RCCSD(T)       RHF       INT
 CPU TIMES  *       242.47    213.27      2.86     25.82
 REAL TIME  *       381.69 SEC
 DISK USED  *        17.23 GB      
 SF USED    *         2.74 GB      
 GA USED    *         0.00 MB       (max)       0.00 MB       (current)
 **********************************************************************************************************************************
 SETTING CCSD(1)        =      -143.35118912  AU                              

 DO I                   =         2.00000000   
 SETTING Z(2)           =         1.93500000                                  

Geometry recognized as XYZ



 Recomputing integrals since geometry changed


 PROGRAM * SEWARD (Integral evaluation for generally contracted gaussian basis sets)     Author: Roland Lindh, 1990

 Geometry written to block  1 of record 700


 Point group  C2v 



 ATOMIC COORDINATES

 NR  ATOM    CHARGE       X              Y              Z

   1  PD     18.00    0.000000000    0.000000000    0.000000000
   2  O       6.00    0.000000000    0.000000000    3.656620051

 Bond lengths in Bohr (Angstrom)

 1-2  3.656620051
     ( 1.935000000)

 NUCLEAR CHARGE:                   24
 NUMBER OF PRIMITIVE AOS:         370
 NUMBER OF SYMMETRY AOS:          313
 NUMBER OF CONTRACTIONS:          313   ( 138A1  +  71B1  +  71B2  +  33A2  )
 NUMBER OF CORE ORBITALS:           4   (   2A1  +   1B1  +   1B2  +   0A2  )
 NUMBER OF VALENCE ORBITALS:       10   (   5A1  +   2B1  +   2B2  +   1A2  )


 NUCLEAR REPULSION ENERGY   29.53547224

 EXTRA SYMMETRY OF AOS IN SYMMETRY 1:   1 1 1 1 1 1 1 1 1 1   1 1 1 1 1 1 1 1 1 1   1 1 1 1 1 1 1 1 1 1   1 1 1 1 1 1 1 1 1 1
                                        1 1 1 1 1 1 1 1 1 1   1 1 1 2 1 2 1 2 1 2   1 2 1 2 1 2 1 2 1 2   1 2 1 2 1 2 1 2 1 2
                                        1 2 1 2 1 2 1 2 1 2   1 2 1 2 1 3 2 1 3 2   1 3 2 1 1 1 1 1 1 1   1 1 1 1 1 1 1 1 1 1
                                        1 1 1 1 1 1 1 2 1 2   1 2 1 2 1 2 1 2
 EXTRA SYMMETRY OF AOS IN SYMMETRY 2:   1 1 1 1 1 1 1 1 1 1   1 1 1 1 1 1 1 1 1 1   1 1 1 1 1 1 1 1 1 1   1 1 1 1 1 1 1 1 1 1
                                        1 2 1 2 1 2 1 2 1 2   1 2 1 2 1 1 1 1 1 1   1 1 1 1 1 1 1 1 2 1   2
 EXTRA SYMMETRY OF AOS IN SYMMETRY 3:   1 1 1 1 1 1 1 1 1 1   1 1 1 1 1 1 1 1 1 1   1 1 1 1 1 1 1 1 1 1   1 1 1 1 1 1 1 1 1 1
                                        1 2 1 2 1 2 1 2 1 2   1 2 1 2 1 1 1 1 1 1   1 1 1 1 1 1 1 1 2 1   2
 EXTRA SYMMETRY OF AOS IN SYMMETRY 4:   1 1 1 1 1 1 1 1 1 1   1 1 1 1 1 1 1 1 1 1   1 1 2 1 2 1 2 1 1 1   1 1 1

 Eigenvalues of metric

         1 0.880E-06 0.939E-06 0.189E-05 0.903E-05 0.951E-05 0.122E-04 0.262E-04 0.363E-04
         2 0.954E-06 0.982E-06 0.935E-05 0.299E-03 0.471E-03 0.163E-02 0.217E-02 0.299E-02
         3 0.954E-06 0.982E-06 0.935E-05 0.299E-03 0.471E-03 0.163E-02 0.217E-02 0.299E-02
         4 0.951E-05 0.307E-03 0.302E-02 0.107E-01 0.287E-01 0.528E-01 0.876E-01 0.105E+00


 Contracted 2-electron integrals neglected if value below      1.0D-13
 AO integral compression algorithm  1   Integral accuracy      1.0D-13

     935.854 MB (compressed) written to integral file ( 31.1%)

     Node minimum: 18.612 MB, node maximum: 109.314 MB


 NUMBER OF SORTED TWO-ELECTRON INTEGRALS:   13592913.     BUFFER LENGTH:  32768
 NUMBER OF SEGMENTS:   1  SEGMENT LENGTH:   13592913      RECORD LENGTH: 524288

 Memory used in sort:      14.15 MW

 SORT1 READ   375719576. AND WROTE     5483677. INTEGRALS IN     16 RECORDS. CPU TIME:     6.54 SEC, REAL TIME:     8.14 SEC
 SORT2 READ   125772589. AND WROTE   312994044. INTEGRALS IN   2300 RECORDS. CPU TIME:     0.31 SEC, REAL TIME:     0.82 SEC

 Node minimum:    13561530.  Node maximum:    13694643. integrals

 OPERATOR DM      FOR CENTER  0  COORDINATES:    0.000000    0.000000    0.000000


 **********************************************************************************************************************************
 DATASETS  * FILE   NREC   LENGTH (MB)   RECORD NAMES
              1      19       21.20       500      610      700      900      950      970     1000      129      960     1100   
                                          VAR    BASINP    GEOM    SYMINP    ZMAT    AOBASIS   BASIS     P2S    ABASIS      S 
                                         1400     1410     1420     1200     1210     1080     1600     1650     1700   
                                           T        V       ECP      H0       H01     AOSYM     SMH    MOLCAS    OPER   

              2       4        3.66       700     1000      520     2100   
                                         GEOM     BASIS   MCVARS     RHF  

 PROGRAMS   *        TOTAL       INT  RCCSD(T)       RHF       INT
 CPU TIMES  *       268.67     26.15    213.27      2.86     25.82
 REAL TIME  *       410.48 SEC
 DISK USED  *        17.46 GB      
 SF USED    *         2.74 GB      
 GA USED    *         0.00 MB       (max)       0.00 MB       (current)
 **********************************************************************************************************************************


 PROGRAM * RHF-SCF (OPEN SHELL)       Authors: W. Meyer, H.-J. Werner


 NUMBER OF ELECTRONS:      13+   11-    SPACE SYMMETRY=2    SPIN SYMMETRY: Triplet 
 CONVERGENCE THRESHOLDS:    1.00E-05 (Density)    1.00E-07 (Energy)
 MAX. NUMBER OF ITERATIONS:       60
 INTERPOLATION TYPE:            DIIS
 INTERPOLATION STEPS:              2 (START)      1 (STEP)
 LEVEL SHIFTS:                 -0.60 (CLOSED) -0.30 (OPEN) 

 Number of closed-shell orbitals:   11 (   5   2   3   1 )
 Number of open-shell orbitals:      2 (   1   1   0   0 )


 Molecular orbitals read from record     2100.2  Type=RHF/CANONICAL (state 1.2)

 Molecular orbital dump at record        2100.2

 ITERATION    DDIFF          GRAD             ENERGY        2-EL.EN.            DIPOLE MOMENTS         DIIS   ORB.
    1      0.000D+00      0.000D+00      -142.37064397    280.049195    0.00000    0.00000   -2.33155    0    start
    2      0.000D+00      0.192D-02      -142.37102568    280.001160    0.00000    0.00000   -2.32612    1    diag,B
    3      0.396D-03      0.149D-03      -142.37110048    280.017095    0.00000    0.00000   -2.32098    2    diag,B
    4      0.156D-03      0.784D-04      -142.37114192    280.003430    0.00000    0.00000   -2.31724    3    diag,B
    5      0.919D-04      0.472D-04      -142.37116370    280.009429    0.00000    0.00000   -2.31341    4    diag,B
    6      0.658D-04      0.277D-04      -142.37117550    280.008689    0.00000    0.00000   -2.30966    5    diag,B
    7      0.570D-04      0.119D-04      -142.37117774    280.010137    0.00000    0.00000   -2.30801    6    diag,B
    8      0.255D-04      0.464D-05      -142.37117801    280.010334    0.00000    0.00000   -2.30768    7    orth
    9      0.105D-04      0.212D-05      -142.37117807    280.010447    0.00000    0.00000   -2.30763    8    diag,B
   10      0.585D-05      0.126D-05      -142.37117809    280.010330    0.00000    0.00000   -2.30768    0    orth

 Final alpha occupancy:   6   3   3   1
 Final beta  occupancy:   5   2   3   1

 !RHF STATE 1.2 Energy               -142.371178088393
 Nuclear energy                        29.53547224
 One-electron energy                 -311.91181531
 Two-electron energy                  140.00516499
 Virial quotient                       -2.33789967
 !RHF STATE 1.2 Dipole moment           0.00000000     0.00000000    -2.30768326
 Dipole moment /Debye                   0.00000000     0.00000000    -5.86516161

 Orbital energies:

         1.1          2.1          3.1          4.1          5.1          6.1          7.1          8.1
     -3.994434    -2.526673    -1.149187    -0.464754    -0.455358    -0.444514    -0.012959     0.032442

         1.2          2.2          3.2          4.2          5.2
     -2.523555    -0.484603    -0.512127     0.022074     0.078466

         1.3          2.3          3.3          4.3          5.3
     -2.523285    -0.508943    -0.385857     0.023005     0.079812

         1.4          2.4          3.4
     -0.455744     0.093819     0.314075

 HOMO      3.3    -0.385857 =     -10.4997eV
 LUMO      7.1    -0.012959 =      -0.3526eV
 LUMO-HOMO         0.372898 =      10.1471eV


 **********************************************************************************************************************************
 DATASETS  * FILE   NREC   LENGTH (MB)   RECORD NAMES
              1      19       21.25       500      610      700      900      950      970     1000      129      960     1100   
                                          VAR    BASINP    GEOM    SYMINP    ZMAT    AOBASIS   BASIS     P2S    ABASIS      S 
                                         1400     1410     1420     1200     1210     1080     1600     1650     1700   
                                           T        V       ECP      H0       H01     AOSYM     SMH    MOLCAS    OPER   

              2       4        3.66       700     1000      520     2100   
                                         GEOM     BASIS   MCVARS     RHF  

 PROGRAMS   *        TOTAL       RHF       INT  RCCSD(T)       RHF       INT
 CPU TIMES  *       269.71      1.05     26.15    213.27      2.86     25.82
 REAL TIME  *       411.77 SEC
 DISK USED  *        17.46 GB      
 SF USED    *         2.74 GB      
 GA USED    *         0.00 MB       (max)       0.00 MB       (current)
 **********************************************************************************************************************************
 SETTING SCF(2)         =      -142.37117809  AU                              
 SETTING _CC_NORM_MAX   =         2.00000000                                  


 PROGRAM * CCSD (Restricted open-shell coupled cluster)     Authors: C. Hampel, H.-J. Werner, 1991, M. Deegan, P.J. Knowles, 1992


 Convergence thresholds:  THRVAR = 1.00D-08  THRDEN = 1.00D-06

 CCSD(T)     terms to be evaluated (factor= 1.000)


 Number of closed-shell orbitals:  11 (   5   2   3   1 )
 Number of active  orbitals:        2 (   1   1   0   0 )
 Number of external orbitals:     300 ( 132  68  68  32 )

 Memory could be reduced to 163.04 Mwords without degradation in triples

 Number of N-1 electron functions:              24
 Number of N-2 electron functions:             276
 Number of singly external CSFs:              2280
 Number of doubly external CSFs:           4894910
 Total number of CSFs:                     4897190

 Molecular orbitals read from record     2100.2  Type=RHF/CANONICAL (state 1.2)

 Integral transformation finished. Total CPU:   6.37 sec, npass=  1  Memory used:  15.00 MW

 Starting RMP2 calculation

 Wavefunction is spin-projected

 ITER.      SQ.NORM     CORR.ENERGY   TOTAL ENERGY   ENERGY CHANGE        DEN1      VAR(S)    VAR(P)  DIIS     TIME
   1      1.18200882    -0.95626650  -143.32744458    -0.95626650    -0.00161004  0.97D-05  0.57D-03  1  1     7.72
   2      1.18338787    -0.95797694  -143.32915503    -0.00171044    -0.00000539  0.25D-06  0.29D-05  2  2     8.52
   3      1.18346507    -0.95802530  -143.32920338    -0.00004836    -0.00000004  0.97D-08  0.18D-07  3  3    10.61
   4      1.18346710    -0.95802552  -143.32920361    -0.00000023    -0.00000000  0.25D-09  0.16D-09  4  4    12.43

 Norm of t1 vector:      0.04134049      S-energy:    -0.00576282      T1 diagnostic:  0.00048145
 Norm of t2 vector:      0.42633093      P-energy:    -0.95226271
                                         Alpha-Beta:  -0.67292587
                                         Alpha-Alpha: -0.15944959
                                         Beta-Beta:   -0.11988724

 Spin contamination <S**2-Sz**2-Sz>     0.00000000
  Reference energy                   -142.371178088394
  RHF-RMP2 correlation energy          -0.958025522197
 !RHF-RMP2 energy                    -143.329203610590
 (NB above energy spin projected)

 Starting RCCSD calculation

 ITER.      SQ.NORM     CORR.ENERGY   TOTAL ENERGY   ENERGY CHANGE        DEN1      VAR(S)    VAR(P)  DIIS     TIME
   1      1.16776076    -0.91422000  -143.28539808    -0.91422000    -0.02312067  0.87D-02  0.32D-02  1  1    20.68
   2      1.18385527    -0.93316144  -143.30433953    -0.01894145    -0.00278142  0.62D-03  0.87D-03  2  2    27.79
   3      1.19805673    -0.93605477  -143.30723286    -0.00289333    -0.00100801  0.11D-02  0.10D-03  3  3    34.20
   4      1.21089453    -0.93836971  -143.30954779    -0.00231494    -0.00045982  0.41D-03  0.72D-04  4  4    41.06
   5      1.23541524    -0.94110590  -143.31228399    -0.00273620    -0.00013964  0.11D-03  0.27D-04  5  5    47.08
   6      1.25210081    -0.94228450  -143.31346259    -0.00117860    -0.00004185  0.26D-04  0.11D-04  6  6    53.68
   7      1.26254215    -0.94291394  -143.31409202    -0.00062944    -0.00001156  0.69D-05  0.34D-05  6  1    62.78
   8      1.26525883    -0.94304775  -143.31422584    -0.00013382    -0.00000244  0.13D-05  0.75D-06  6  2    69.06
   9      1.26609620    -0.94306598  -143.31424407    -0.00001823    -0.00000054  0.27D-06  0.18D-06  6  4    76.47
  10      1.26594782    -0.94306343  -143.31424152     0.00000255    -0.00000011  0.68D-07  0.29D-07  6  3    83.59
  11      1.26594392    -0.94305927  -143.31423736     0.00000416    -0.00000005  0.33D-07  0.14D-07  6  4    90.69
  12      1.26593151    -0.94306002  -143.31423811    -0.00000076    -0.00000002  0.15D-07  0.25D-08  6  5    97.79
  13      1.26588512    -0.94305677  -143.31423486     0.00000325    -0.00000001  0.52D-08  0.10D-08  6  2   105.96
  14      1.26589106    -0.94305782  -143.31423591    -0.00000105    -0.00000000  0.23D-08  0.43D-09  6  6   113.26
  15      1.26587603    -0.94305680  -143.31423489     0.00000101    -0.00000000  0.10D-08  0.19D-09  6  1   120.44
  16      1.26588436    -0.94305743  -143.31423552    -0.00000063    -0.00000000  0.57D-09  0.70D-10  6  3   129.17

 Norm of t1 vector:      0.26240759      S-energy:    -0.00630535      T1 diagnostic:  0.03704940
                                                                       D1 diagnostic:  0.11567757
 Norm of t2 vector:      0.44387680      P-energy:    -0.93675208
                                         Alpha-Beta:  -0.68549099
                                         Alpha-Alpha: -0.14076803
                                         Beta-Beta:   -0.11049306

 Singles amplitudes (print threshold =  0.500E-01):

         I         SYM. A    A   T(IA) [Alpha-Alpha]

         6         1         2     -0.06839085
 
         I         SYM. A    A   T(IA) [Beta-Beta]

         4         1         1     -0.16107775
         8         2         1      0.12778301

 Doubles amplitudes (print threshold =  0.500E-01):

         I         J         SYM. A    SYM. B    A         B      T(IJ, AB) [Beta-Beta]

         8         4         1         2         1         1      0.07554735
         8         4         2         1         1         1     -0.07554735

 Spin contamination <S**2-Sz**2-Sz>     0.00000000

 Memory could be reduced to 164.20 Mwords without degradation in triples
 

  Correlated core orbitals:             1.1       2.1       1.2       1.3
  Orbital energies:                    -4.0261   -2.5965   -2.5451   -2.5467
 
  RCCSD core-core energy               -0.116349708919
  RCCSD core-valence energy            -0.265117656916
  RCCSD valence correlation energy     -0.561590066400
 

 RESULTS
 =======

  Reference energy                   -142.371178088394
  RCCSD singles energy                 -0.006305350891
  RCCSD pair energy                    -0.936752081344
  RCCSD correlation energy             -0.943057432235
  Triples (T) contribution             -0.039615919814
  Total correlation energy             -0.982673352049
 
  RHF-RCCSD energy                   -143.314235520629
  RHF-RCCSD[T] energy                -143.358211276059
  RHF-RCCSD-T energy                 -143.353488530474
 !RHF-RCCSD(T) energy                -143.353851440443

 Program statistics:

 Available memory in ccsd:               511998418
 Min. memory needed in ccsd:              14064756
 Max. memory used in ccsd:                20157915
 Max. memory used in cckext:              15861012 (16 integral passes)
 Max. memory used in cckint:              15004909 ( 1 integral passes)



 **********************************************************************************************************************************
 DATASETS  * FILE   NREC   LENGTH (MB)   RECORD NAMES
              1      19       21.25       500      610      700      900      950      970     1000      129      960     1100   
                                          VAR    BASINP    GEOM    SYMINP    ZMAT    AOBASIS   BASIS     P2S    ABASIS      S 
                                         1400     1410     1420     1200     1210     1080     1600     1650     1700   
                                           T        V       ECP      H0       H01     AOSYM     SMH    MOLCAS    OPER   

              2       4        3.66       700     1000      520     2100   
                                         GEOM     BASIS   MCVARS     RHF  

 PROGRAMS   *        TOTAL  RCCSD(T)       RHF       INT  RCCSD(T)       RHF       INT
 CPU TIMES  *       480.31    210.55      1.05     26.15    213.27      2.86     25.82
 REAL TIME  *       757.05 SEC
 DISK USED  *        17.46 GB      
 SF USED    *         2.74 GB      
 GA USED    *         0.00 MB       (max)       0.00 MB       (current)
 **********************************************************************************************************************************
 SETTING CCSD(2)        =      -143.35385144  AU                              

 DO I                   =         3.00000000   
 SETTING Z(3)           =         1.88500000                                  

Geometry recognized as XYZ



 Recomputing integrals since geometry changed


 PROGRAM * SEWARD (Integral evaluation for generally contracted gaussian basis sets)     Author: Roland Lindh, 1990

 Geometry written to block  1 of record 700


 Point group  C2v 



 ATOMIC COORDINATES

 NR  ATOM    CHARGE       X              Y              Z

   1  PD     18.00    0.000000000    0.000000000    0.000000000
   2  O       6.00    0.000000000    0.000000000    3.562133745

 Bond lengths in Bohr (Angstrom)

 1-2  3.562133745
     ( 1.885000000)

 NUCLEAR CHARGE:                   24
 NUMBER OF PRIMITIVE AOS:         370
 NUMBER OF SYMMETRY AOS:          313
 NUMBER OF CONTRACTIONS:          313   ( 138A1  +  71B1  +  71B2  +  33A2  )
 NUMBER OF CORE ORBITALS:           4   (   2A1  +   1B1  +   1B2  +   0A2  )
 NUMBER OF VALENCE ORBITALS:       10   (   5A1  +   2B1  +   2B2  +   1A2  )


 NUCLEAR REPULSION ENERGY   30.31890651

 EXTRA SYMMETRY OF AOS IN SYMMETRY 1:   1 1 1 1 1 1 1 1 1 1   1 1 1 1 1 1 1 1 1 1   1 1 1 1 1 1 1 1 1 1   1 1 1 1 1 1 1 1 1 1
                                        1 1 1 1 1 1 1 1 1 1   1 1 1 2 1 2 1 2 1 2   1 2 1 2 1 2 1 2 1 2   1 2 1 2 1 2 1 2 1 2
                                        1 2 1 2 1 2 1 2 1 2   1 2 1 2 1 3 2 1 3 2   1 3 2 1 1 1 1 1 1 1   1 1 1 1 1 1 1 1 1 1
                                        1 1 1 1 1 1 1 2 1 2   1 2 1 2 1 2 1 2
 EXTRA SYMMETRY OF AOS IN SYMMETRY 2:   1 1 1 1 1 1 1 1 1 1   1 1 1 1 1 1 1 1 1 1   1 1 1 1 1 1 1 1 1 1   1 1 1 1 1 1 1 1 1 1
                                        1 2 1 2 1 2 1 2 1 2   1 2 1 2 1 1 1 1 1 1   1 1 1 1 1 1 1 1 2 1   2
 EXTRA SYMMETRY OF AOS IN SYMMETRY 3:   1 1 1 1 1 1 1 1 1 1   1 1 1 1 1 1 1 1 1 1   1 1 1 1 1 1 1 1 1 1   1 1 1 1 1 1 1 1 1 1
                                        1 2 1 2 1 2 1 2 1 2   1 2 1 2 1 1 1 1 1 1   1 1 1 1 1 1 1 1 2 1   2
 EXTRA SYMMETRY OF AOS IN SYMMETRY 4:   1 1 1 1 1 1 1 1 1 1   1 1 1 1 1 1 1 1 1 1   1 1 2 1 2 1 2 1 1 1   1 1 1

 Eigenvalues of metric

         1 0.870E-06 0.933E-06 0.188E-05 0.903E-05 0.951E-05 0.119E-04 0.260E-04 0.358E-04
         2 0.953E-06 0.982E-06 0.934E-05 0.298E-03 0.471E-03 0.163E-02 0.217E-02 0.299E-02
         3 0.953E-06 0.982E-06 0.934E-05 0.298E-03 0.471E-03 0.163E-02 0.217E-02 0.299E-02
         4 0.951E-05 0.307E-03 0.302E-02 0.107E-01 0.287E-01 0.528E-01 0.871E-01 0.105E+00


 Contracted 2-electron integrals neglected if value below      1.0D-13
 AO integral compression algorithm  1   Integral accuracy      1.0D-13

     946.078 MB (compressed) written to integral file ( 31.5%)

     Node minimum: 17.564 MB, node maximum: 109.314 MB


 NUMBER OF SORTED TWO-ELECTRON INTEGRALS:   13592913.     BUFFER LENGTH:  32768
 NUMBER OF SEGMENTS:   1  SEGMENT LENGTH:   13592913      RECORD LENGTH: 524288

 Memory used in sort:      14.15 MW

 SORT1 READ   375719576. AND WROTE     5553162. INTEGRALS IN     16 RECORDS. CPU TIME:     6.73 SEC, REAL TIME:     8.24 SEC
 SORT2 READ   127330145. AND WROTE   312994044. INTEGRALS IN   2116 RECORDS. CPU TIME:     0.38 SEC, REAL TIME:     0.69 SEC

 Node minimum:    13561530.  Node maximum:    13694643. integrals

 OPERATOR DM      FOR CENTER  0  COORDINATES:    0.000000    0.000000    0.000000


 **********************************************************************************************************************************
 DATASETS  * FILE   NREC   LENGTH (MB)   RECORD NAMES
              1      19       21.20       500      610      700      900      950      970     1000      129      960     1100   
                                          VAR    BASINP    GEOM    SYMINP    ZMAT    AOBASIS   BASIS     P2S    ABASIS      S 
                                         1400     1410     1420     1200     1210     1080     1600     1650     1700   
                                           T        V       ECP      H0       H01     AOSYM     SMH    MOLCAS    OPER   

              2       4        3.66       700     1000      520     2100   
                                         GEOM     BASIS   MCVARS     RHF  

 PROGRAMS   *        TOTAL       INT  RCCSD(T)       RHF       INT  RCCSD(T)       RHF       INT
 CPU TIMES  *       507.07     26.73    210.55      1.05     26.15    213.27      2.86     25.82
 REAL TIME  *       786.10 SEC
 DISK USED  *        17.64 GB      
 SF USED    *         2.74 GB      
 GA USED    *         0.00 MB       (max)       0.00 MB       (current)
 **********************************************************************************************************************************


 PROGRAM * RHF-SCF (OPEN SHELL)       Authors: W. Meyer, H.-J. Werner


 NUMBER OF ELECTRONS:      13+   11-    SPACE SYMMETRY=2    SPIN SYMMETRY: Triplet 
 CONVERGENCE THRESHOLDS:    1.00E-05 (Density)    1.00E-07 (Energy)
 MAX. NUMBER OF ITERATIONS:       60
 INTERPOLATION TYPE:            DIIS
 INTERPOLATION STEPS:              2 (START)      1 (STEP)
 LEVEL SHIFTS:                 -0.60 (CLOSED) -0.30 (OPEN) 

 Number of closed-shell orbitals:   11 (   5   2   3   1 )
 Number of open-shell orbitals:      2 (   1   1   0   0 )


 Molecular orbitals read from record     2100.2  Type=RHF/CANONICAL (state 1.2)

 Molecular orbital dump at record        2100.2

 ITERATION    DDIFF          GRAD             ENERGY        2-EL.EN.            DIPOLE MOMENTS         DIIS   ORB.
    1      0.000D+00      0.000D+00      -142.36757810    281.611169    0.00000    0.00000   -2.23595    0    start
    2      0.000D+00      0.209D-02      -142.36804294    281.558084    0.00000    0.00000   -2.23175    1    diag,B
    3      0.436D-03      0.165D-03      -142.36813694    281.573841    0.00000    0.00000   -2.22619    2    diag,B
    4      0.163D-03      0.873D-04      -142.36819010    281.557287    0.00000    0.00000   -2.22224    3    diag,B
    5      0.100D-03      0.531D-04      -142.36821858    281.562879    0.00000    0.00000   -2.21784    4    diag,B
    6      0.749D-04      0.317D-04      -142.36823498    281.560723    0.00000    0.00000   -2.21319    5    diag,B
    7      0.685D-04      0.140D-04      -142.36823832    281.561810    0.00000    0.00000   -2.21102    6    diag,B
    8      0.315D-04      0.585D-05      -142.36823879    281.561810    0.00000    0.00000   -2.21047    7    orth
    9      0.126D-04      0.293D-05      -142.36823892    281.561875    0.00000    0.00000   -2.21033    8    diag,B
   10      0.786D-05      0.176D-05      -142.36823897    281.561701    0.00000    0.00000   -2.21034    9    diag,B
   11      0.350D-05      0.117D-05      -142.36823900    281.561552    0.00000    0.00000   -2.21041    0    orth

 Final alpha occupancy:   6   3   3   1
 Final beta  occupancy:   5   2   3   1

 !RHF STATE 1.2 Energy               -142.368238996712
 Nuclear energy                        30.31890651
 One-electron energy                 -313.46792145
 Two-electron energy                  140.78077594
 Virial quotient                       -2.33644893
 !RHF STATE 1.2 Dipole moment           0.00000000     0.00000000    -2.21040702
 Dipole moment /Debye                   0.00000000     0.00000000    -5.61792628

 Orbital energies:

         1.1          2.1          3.1          4.1          5.1          6.1          7.1          8.1
     -3.991894    -2.525306    -1.158316    -0.475845    -0.452516    -0.430864    -0.010941     0.033006

         1.2          2.2          3.2          4.2          5.2
     -2.520619    -0.484092    -0.514638     0.022440     0.079230

         1.3          2.3          3.3          4.3          5.3
     -2.520281    -0.514090    -0.384710     0.023382     0.080643

         1.4          2.4          3.4
     -0.452727     0.094246     0.315120

 HOMO      3.3    -0.384710 =     -10.4685eV
 LUMO      7.1    -0.010941 =      -0.2977eV
 LUMO-HOMO         0.373769 =      10.1708eV


 **********************************************************************************************************************************
 DATASETS  * FILE   NREC   LENGTH (MB)   RECORD NAMES
              1      19       21.25       500      610      700      900      950      970     1000      129      960     1100   
                                          VAR    BASINP    GEOM    SYMINP    ZMAT    AOBASIS   BASIS     P2S    ABASIS      S 
                                         1400     1410     1420     1200     1210     1080     1600     1650     1700   
                                           T        V       ECP      H0       H01     AOSYM     SMH    MOLCAS    OPER   

              2       4        3.66       700     1000      520     2100   
                                         GEOM     BASIS   MCVARS     RHF  

 PROGRAMS   *        TOTAL       RHF       INT  RCCSD(T)       RHF       INT  RCCSD(T)       RHF       INT
 CPU TIMES  *       508.17      1.10     26.73    210.55      1.05     26.15    213.27      2.86     25.82
 REAL TIME  *       787.36 SEC
 DISK USED  *        17.64 GB      
 SF USED    *         2.74 GB      
 GA USED    *         0.00 MB       (max)       0.00 MB       (current)
 **********************************************************************************************************************************
 SETTING SCF(3)         =      -142.36823900  AU                              
 SETTING _CC_NORM_MAX   =         2.00000000                                  


 PROGRAM * CCSD (Restricted open-shell coupled cluster)     Authors: C. Hampel, H.-J. Werner, 1991, M. Deegan, P.J. Knowles, 1992


 Convergence thresholds:  THRVAR = 1.00D-08  THRDEN = 1.00D-06

 CCSD(T)     terms to be evaluated (factor= 1.000)


 Number of closed-shell orbitals:  11 (   5   2   3   1 )
 Number of active  orbitals:        2 (   1   1   0   0 )
 Number of external orbitals:     300 ( 132  68  68  32 )

 Memory could be reduced to 163.04 Mwords without degradation in triples

 Number of N-1 electron functions:              24
 Number of N-2 electron functions:             276
 Number of singly external CSFs:              2280
 Number of doubly external CSFs:           4894910
 Total number of CSFs:                     4897190

 Molecular orbitals read from record     2100.2  Type=RHF/CANONICAL (state 1.2)

 Integral transformation finished. Total CPU:   6.34 sec, npass=  1  Memory used:  15.00 MW

 Starting RMP2 calculation

 Wavefunction is spin-projected

 ITER.      SQ.NORM     CORR.ENERGY   TOTAL ENERGY   ENERGY CHANGE        DEN1      VAR(S)    VAR(P)  DIIS     TIME
   1      1.18343876    -0.96089614  -143.32913513    -0.96089614    -0.00162480  0.11D-04  0.57D-03  1  1     7.74
   2      1.18483243    -0.96262281  -143.33086181    -0.00172667    -0.00000562  0.29D-06  0.30D-05  2  2     8.90
   3      1.18491136    -0.96267206  -143.33091106    -0.00004925    -0.00000004  0.11D-07  0.19D-07  3  3    10.85
   4      1.18491355    -0.96267235  -143.33091134    -0.00000029    -0.00000000  0.28D-09  0.18D-09  4  4    12.20

 Norm of t1 vector:      0.04161994      S-energy:    -0.00571358      T1 diagnostic:  0.00052160
 Norm of t2 vector:      0.42799688      P-energy:    -0.95695876
                                         Alpha-Beta:  -0.67538837
                                         Alpha-Alpha: -0.16027967
                                         Beta-Beta:   -0.12129072

 Spin contamination <S**2-Sz**2-Sz>     0.00000000
  Reference energy                   -142.368238996712
  RHF-RMP2 correlation energy          -0.962672346630
 !RHF-RMP2 energy                    -143.330911343342
 (NB above energy spin projected)

 Starting RCCSD calculation

 ITER.      SQ.NORM     CORR.ENERGY   TOTAL ENERGY   ENERGY CHANGE        DEN1      VAR(S)    VAR(P)  DIIS     TIME
   1      1.16846522    -0.91677514  -143.28501414    -0.91677514    -0.02395310  0.92D-02  0.33D-02  1  1    19.98
   2      1.18505948    -0.93623738  -143.30447637    -0.01946223    -0.00290985  0.68D-03  0.90D-03  2  2    26.78
   3      1.20014913    -0.93924616  -143.30748516    -0.00300878    -0.00108518  0.11D-02  0.11D-03  3  3    34.06
   4      1.21432889    -0.94173192  -143.30997092    -0.00248576    -0.00050606  0.45D-03  0.78D-04  4  4    41.22
   5      1.24270329    -0.94481573  -143.31305473    -0.00308381    -0.00015173  0.12D-03  0.28D-04  5  5    47.91
   6      1.26193792    -0.94613732  -143.31437632    -0.00132159    -0.00004389  0.27D-04  0.11D-04  6  6    53.99
   7      1.27345330    -0.94681831  -143.31505730    -0.00068099    -0.00001153  0.72D-05  0.31D-05  6  1    61.10
   8      1.27614446    -0.94694567  -143.31518467    -0.00012736    -0.00000230  0.13D-05  0.66D-06  6  2    70.51
   9      1.27693718    -0.94696189  -143.31520089    -0.00001622    -0.00000049  0.27D-06  0.15D-06  6  4    77.74
  10      1.27677545    -0.94695803  -143.31519702     0.00000387    -0.00000011  0.73D-07  0.24D-07  6  3    87.33
  11      1.27679950    -0.94695552  -143.31519452     0.00000251    -0.00000005  0.37D-07  0.12D-07  6  4    95.44
  12      1.27676309    -0.94695414  -143.31519314     0.00000138    -0.00000002  0.17D-07  0.23D-08  6  2   103.36
  13      1.27674135    -0.94695212  -143.31519112     0.00000202    -0.00000001  0.59D-08  0.12D-08  6  5   110.47
  14      1.27676538    -0.94695478  -143.31519378    -0.00000266    -0.00000000  0.27D-08  0.43D-09  6  6   119.35
  15      1.27676646    -0.94695479  -143.31519378    -0.00000000    -0.00000000  0.13D-08  0.17D-09  6  1   128.60

 Norm of t1 vector:      0.27544358      S-energy:    -0.00624746      T1 diagnostic:  0.03895181
                                                                       D1 diagnostic:  0.11447863
 Norm of t2 vector:      0.44821567      P-energy:    -0.94070733
                                         Alpha-Beta:  -0.68722129
                                         Alpha-Alpha: -0.14120811
                                         Beta-Beta:   -0.11227793

 Singles amplitudes (print threshold =  0.500E-01):

         I         SYM. A    A   T(IA) [Alpha-Alpha]

         6         1         2     -0.07358081
 
         I         SYM. A    A   T(IA) [Beta-Beta]

         4         1         1     -0.16148542
         8         2         1      0.14826353

 Doubles amplitudes (print threshold =  0.500E-01):

         I         J         SYM. A    SYM. B    A         B      T(IJ, AB) [Beta-Beta]

         8         4         1         2         1         1      0.08251199
         8         4         2         1         1         1     -0.08251199

 Spin contamination <S**2-Sz**2-Sz>     0.00000000

 Memory could be reduced to 164.20 Mwords without degradation in triples
 

  Correlated core orbitals:             1.1       2.1       1.2       1.3
  Orbital energies:                    -4.0230   -2.5933   -2.5418   -2.5431
 
  RCCSD core-core energy               -0.116197491082
  RCCSD core-valence energy            -0.265440029149
  RCCSD valence correlation energy     -0.565317267067
 

 RESULTS
 =======

  Reference energy                   -142.368238996712
  RCCSD singles energy                 -0.006247458011
  RCCSD pair energy                    -0.940707329288
  RCCSD correlation energy             -0.946954787299
  Triples (T) contribution             -0.040406866950
  Total correlation energy             -0.987361654249
 
  RHF-RCCSD energy                   -143.315193784010
  RHF-RCCSD[T] energy                -143.360282946031
  RHF-RCCSD-T energy                 -143.355302066472
 !RHF-RCCSD(T) energy                -143.355600650961

 Program statistics:

 Available memory in ccsd:               511998418
 Min. memory needed in ccsd:              14064756
 Max. memory used in ccsd:                20157915
 Max. memory used in cckext:              15861012 (15 integral passes)
 Max. memory used in cckint:              15004909 ( 1 integral passes)



 **********************************************************************************************************************************
 DATASETS  * FILE   NREC   LENGTH (MB)   RECORD NAMES
              1      19       21.25       500      610      700      900      950      970     1000      129      960     1100   
                                          VAR    BASINP    GEOM    SYMINP    ZMAT    AOBASIS   BASIS     P2S    ABASIS      S 
                                         1400     1410     1420     1200     1210     1080     1600     1650     1700   
                                           T        V       ECP      H0       H01     AOSYM     SMH    MOLCAS    OPER   

              2       4        3.66       700     1000      520     2100   
                                         GEOM     BASIS   MCVARS     RHF  

 PROGRAMS   *        TOTAL  RCCSD(T)       RHF       INT  RCCSD(T)       RHF       INT  RCCSD(T)       RHF       INT
 CPU TIMES  *       768.82    211.09      1.10     26.73    210.55      1.05     26.15    213.27      2.86     25.82
 REAL TIME  *      1173.17 SEC
 DISK USED  *        17.64 GB      
 SF USED    *         2.74 GB      
 GA USED    *         0.00 MB       (max)       0.00 MB       (current)
 **********************************************************************************************************************************
 SETTING CCSD(3)        =      -143.35560065  AU                              

 DO I                   =         4.00000000   
 SETTING Z(4)           =         1.83500000                                  

Geometry recognized as XYZ



 Recomputing integrals since geometry changed


 PROGRAM * SEWARD (Integral evaluation for generally contracted gaussian basis sets)     Author: Roland Lindh, 1990

 Geometry written to block  1 of record 700


 Point group  C2v 



 ATOMIC COORDINATES

 NR  ATOM    CHARGE       X              Y              Z

   1  PD     18.00    0.000000000    0.000000000    0.000000000
   2  O       6.00    0.000000000    0.000000000    3.467647439

 Bond lengths in Bohr (Angstrom)

 1-2  3.467647439
     ( 1.835000000)

 NUCLEAR CHARGE:                   24
 NUMBER OF PRIMITIVE AOS:         370
 NUMBER OF SYMMETRY AOS:          313
 NUMBER OF CONTRACTIONS:          313   ( 138A1  +  71B1  +  71B2  +  33A2  )
 NUMBER OF CORE ORBITALS:           4   (   2A1  +   1B1  +   1B2  +   0A2  )
 NUMBER OF VALENCE ORBITALS:       10   (   5A1  +   2B1  +   2B2  +   1A2  )


 NUCLEAR REPULSION ENERGY   31.14503476

 EXTRA SYMMETRY OF AOS IN SYMMETRY 1:   1 1 1 1 1 1 1 1 1 1   1 1 1 1 1 1 1 1 1 1   1 1 1 1 1 1 1 1 1 1   1 1 1 1 1 1 1 1 1 1
                                        1 1 1 1 1 1 1 1 1 1   1 1 1 2 1 2 1 2 1 2   1 2 1 2 1 2 1 2 1 2   1 2 1 2 1 2 1 2 1 2
                                        1 2 1 2 1 2 1 2 1 2   1 2 1 2 1 3 2 1 3 2   1 3 2 1 1 1 1 1 1 1   1 1 1 1 1 1 1 1 1 1
                                        1 1 1 1 1 1 1 2 1 2   1 2 1 2 1 2 1 2
 EXTRA SYMMETRY OF AOS IN SYMMETRY 2:   1 1 1 1 1 1 1 1 1 1   1 1 1 1 1 1 1 1 1 1   1 1 1 1 1 1 1 1 1 1   1 1 1 1 1 1 1 1 1 1
                                        1 2 1 2 1 2 1 2 1 2   1 2 1 2 1 1 1 1 1 1   1 1 1 1 1 1 1 1 2 1   2
 EXTRA SYMMETRY OF AOS IN SYMMETRY 3:   1 1 1 1 1 1 1 1 1 1   1 1 1 1 1 1 1 1 1 1   1 1 1 1 1 1 1 1 1 1   1 1 1 1 1 1 1 1 1 1
                                        1 2 1 2 1 2 1 2 1 2   1 2 1 2 1 1 1 1 1 1   1 1 1 1 1 1 1 1 2 1   2
 EXTRA SYMMETRY OF AOS IN SYMMETRY 4:   1 1 1 1 1 1 1 1 1 1   1 1 1 1 1 1 1 1 1 1   1 1 2 1 2 1 2 1 1 1   1 1 1

 Eigenvalues of metric

         1 0.859E-06 0.925E-06 0.187E-05 0.900E-05 0.951E-05 0.116E-04 0.257E-04 0.353E-04
         2 0.952E-06 0.981E-06 0.933E-05 0.297E-03 0.471E-03 0.162E-02 0.217E-02 0.298E-02
         3 0.952E-06 0.981E-06 0.933E-05 0.297E-03 0.471E-03 0.162E-02 0.217E-02 0.298E-02
         4 0.951E-05 0.307E-03 0.302E-02 0.107E-01 0.287E-01 0.528E-01 0.865E-01 0.105E+00


 Contracted 2-electron integrals neglected if value below      1.0D-13
 AO integral compression algorithm  1   Integral accuracy      1.0D-13

     957.088 MB (compressed) written to integral file ( 31.9%)

     Node minimum: 20.972 MB, node maximum: 109.314 MB


 NUMBER OF SORTED TWO-ELECTRON INTEGRALS:   13592913.     BUFFER LENGTH:  32768
 NUMBER OF SEGMENTS:   1  SEGMENT LENGTH:   13592913      RECORD LENGTH: 524288

 Memory used in sort:      14.15 MW

 SORT1 READ   375719576. AND WROTE     5623353. INTEGRALS IN     17 RECORDS. CPU TIME:     6.58 SEC, REAL TIME:     8.12 SEC
 SORT2 READ   128932594. AND WROTE   312994044. INTEGRALS IN   3404 RECORDS. CPU TIME:     0.35 SEC, REAL TIME:     0.66 SEC

 Node minimum:    13561530.  Node maximum:    13694643. integrals

 OPERATOR DM      FOR CENTER  0  COORDINATES:    0.000000    0.000000    0.000000


 **********************************************************************************************************************************
 DATASETS  * FILE   NREC   LENGTH (MB)   RECORD NAMES
              1      19       21.20       500      610      700      900      950      970     1000      129      960     1100   
                                          VAR    BASINP    GEOM    SYMINP    ZMAT    AOBASIS   BASIS     P2S    ABASIS      S 
                                         1400     1410     1420     1200     1210     1080     1600     1650     1700   
                                           T        V       ECP      H0       H01     AOSYM     SMH    MOLCAS    OPER   

              2       4        3.66       700     1000      520     2100   
                                         GEOM     BASIS   MCVARS     RHF  

 PROGRAMS   *        TOTAL       INT  RCCSD(T)       RHF       INT  RCCSD(T)       RHF       INT  RCCSD(T)       RHF       INT
 CPU TIMES  *       803.83     34.97    211.09      1.10     26.73    210.55      1.05     26.15    213.27      2.86     25.82
 REAL TIME  *      1210.51 SEC
 DISK USED  *        17.77 GB      
 SF USED    *         2.74 GB      
 GA USED    *         0.00 MB       (max)       0.00 MB       (current)
 **********************************************************************************************************************************


 PROGRAM * RHF-SCF (OPEN SHELL)       Authors: W. Meyer, H.-J. Werner


 NUMBER OF ELECTRONS:      13+   11-    SPACE SYMMETRY=2    SPIN SYMMETRY: Triplet 
 CONVERGENCE THRESHOLDS:    1.00E-05 (Density)    1.00E-07 (Energy)
 MAX. NUMBER OF ITERATIONS:       60
 INTERPOLATION TYPE:            DIIS
 INTERPOLATION STEPS:              2 (START)      1 (STEP)
 LEVEL SHIFTS:                 -0.60 (CLOSED) -0.30 (OPEN) 

 Number of closed-shell orbitals:   11 (   5   2   3   1 )
 Number of open-shell orbitals:      2 (   1   1   0   0 )


 Molecular orbitals read from record     2100.2  Type=RHF/CANONICAL (state 1.2)

 Molecular orbital dump at record        2100.2

 ITERATION    DDIFF          GRAD             ENERGY        2-EL.EN.            DIPOLE MOMENTS         DIIS   ORB.
    1      0.000D+00      0.000D+00      -142.36234202    283.230305    0.00000    0.00000   -2.13975    0    start
    2      0.000D+00      0.229D-02      -142.36291114    283.171187    0.00000    0.00000   -2.13711    1    diag,B
    3      0.560D-03      0.184D-03      -142.36303022    283.186357    0.00000    0.00000   -2.13100    2    diag,B
    4      0.173D-03      0.978D-04      -142.36309901    283.165989    0.00000    0.00000   -2.12684    3    diag,B
    5      0.109D-03      0.605D-04      -142.36313694    283.170652    0.00000    0.00000   -2.12175    4    diag,B
    6      0.859D-04      0.366D-04      -142.36316022    283.166167    0.00000    0.00000   -2.11598    5    diag,B
    7      0.837D-04      0.167D-04      -142.36316531    283.166501    0.00000    0.00000   -2.11315    6    diag,B
    8      0.396D-04      0.752D-05      -142.36316618    283.166093    0.00000    0.00000   -2.11228    7    orth
    9      0.158D-04      0.401D-05      -142.36316644    283.165993    0.00000    0.00000   -2.11198    8    diag,B
   10      0.110D-04      0.230D-05      -142.36316653    283.165652    0.00000    0.00000   -2.11196    9    diag,B
   11      0.512D-05      0.139D-05      -142.36316656    283.165434    0.00000    0.00000   -2.11206    0    orth

 Final alpha occupancy:   6   3   3   1
 Final beta  occupancy:   5   2   3   1

 !RHF STATE 1.2 Energy               -142.363166562391
 Nuclear energy                        31.14503476
 One-electron energy                 -315.09091819
 Two-electron energy                  141.58271687
 Virial quotient                       -2.33486385
 !RHF STATE 1.2 Dipole moment           0.00000000     0.00000000    -2.11205528
 Dipole moment /Debye                   0.00000000     0.00000000    -5.36795746

 Orbital energies:

         1.1          2.1          3.1          4.1          5.1          6.1          7.1          8.1
     -3.990050    -2.525024    -1.168333    -0.487776    -0.449984    -0.416095    -0.008867     0.033454

         1.2          2.2          3.2          4.2          5.2
     -2.518241    -0.484869    -0.516509     0.022786     0.079940

         1.3          2.3          3.3          4.3          5.3
     -2.517823    -0.521238    -0.382887     0.023743     0.081431

         1.4          2.4          3.4
     -0.450161     0.094671     0.316117

 HOMO      3.3    -0.382887 =     -10.4189eV
 LUMO      7.1    -0.008867 =      -0.2413eV
 LUMO-HOMO         0.374020 =      10.1776eV


 **********************************************************************************************************************************
 DATASETS  * FILE   NREC   LENGTH (MB)   RECORD NAMES
              1      19       21.25       500      610      700      900      950      970     1000      129      960     1100   
                                          VAR    BASINP    GEOM    SYMINP    ZMAT    AOBASIS   BASIS     P2S    ABASIS      S 
                                         1400     1410     1420     1200     1210     1080     1600     1650     1700   
                                           T        V       ECP      H0       H01     AOSYM     SMH    MOLCAS    OPER   

              2       4        3.66       700     1000      520     2100   
                                         GEOM     BASIS   MCVARS     RHF  

 PROGRAMS   *        TOTAL       RHF       INT  RCCSD(T)       RHF       INT  RCCSD(T)       RHF       INT  RCCSD(T)       RHF
 CPU TIMES  *       804.91      1.08     34.97    211.09      1.10     26.73    210.55      1.05     26.15    213.27      2.86
 REAL TIME  *      1211.95 SEC
 DISK USED  *        17.77 GB      
 SF USED    *         2.74 GB      
 GA USED    *         0.00 MB       (max)       0.00 MB       (current)
 **********************************************************************************************************************************
 SETTING SCF(4)         =      -142.36316656  AU                              
 SETTING _CC_NORM_MAX   =         2.00000000                                  


 PROGRAM * CCSD (Restricted open-shell coupled cluster)     Authors: C. Hampel, H.-J. Werner, 1991, M. Deegan, P.J. Knowles, 1992


 Convergence thresholds:  THRVAR = 1.00D-08  THRDEN = 1.00D-06

 CCSD(T)     terms to be evaluated (factor= 1.000)


 Number of closed-shell orbitals:  11 (   5   2   3   1 )
 Number of active  orbitals:        2 (   1   1   0   0 )
 Number of external orbitals:     300 ( 132  68  68  32 )

 Memory could be reduced to 163.04 Mwords without degradation in triples

 Number of N-1 electron functions:              24
 Number of N-2 electron functions:             276
 Number of singly external CSFs:              2280
 Number of doubly external CSFs:           4894910
 Total number of CSFs:                     4897190

 Molecular orbitals read from record     2100.2  Type=RHF/CANONICAL (state 1.2)

 Integral transformation finished. Total CPU:   6.02 sec, npass=  1  Memory used:  15.00 MW

 Starting RMP2 calculation

 Wavefunction is spin-projected

 ITER.      SQ.NORM     CORR.ENERGY   TOTAL ENERGY   ENERGY CHANGE        DEN1      VAR(S)    VAR(P)  DIIS     TIME
   1      1.18532747    -0.96646407  -143.32963063    -0.96646407    -0.00164771  0.13D-04  0.58D-03  1  1     7.50
   2      1.18674821    -0.96821588  -143.33138244    -0.00175181    -0.00000596  0.35D-06  0.31D-05  2  2     9.35
   3      1.18683029    -0.96826670  -143.33143326    -0.00005082    -0.00000005  0.13D-07  0.21D-07  3  3    12.92
   4      1.18683274    -0.96826708  -143.33143365    -0.00000038    -0.00000000  0.32D-09  0.22D-09  4  4    14.65

 Norm of t1 vector:      0.04202143      S-energy:    -0.00565574      T1 diagnostic:  0.00056972
 Norm of t2 vector:      0.43019407      P-energy:    -0.96261134
                                         Alpha-Beta:  -0.67839398
                                         Alpha-Alpha: -0.16125458
                                         Beta-Beta:   -0.12296278

 Spin contamination <S**2-Sz**2-Sz>     0.00000000
  Reference energy                   -142.363166562391
  RHF-RMP2 correlation energy          -0.968267082944
 !RHF-RMP2 energy                    -143.331433645334
 (NB above energy spin projected)

 Starting RCCSD calculation

 ITER.      SQ.NORM     CORR.ENERGY   TOTAL ENERGY   ENERGY CHANGE        DEN1      VAR(S)    VAR(P)  DIIS     TIME
   1      1.16946242    -0.91983018  -143.28299674    -0.91983018    -0.02497403  0.97D-02  0.35D-02  1  1    22.31
   2      1.18673161    -0.93993400  -143.30310056    -0.02010383    -0.00307206  0.77D-03  0.94D-03  2  2    28.52
   3      1.20300667    -0.94309431  -143.30626087    -0.00316031    -0.00118446  0.12D-02  0.12D-03  3  3    48.88
   4      1.21896846    -0.94580191  -143.30896847    -0.00270760    -0.00056343  0.50D-03  0.85D-04  4  4    56.19
   5      1.25248017    -0.94933800  -143.31250456    -0.00353609    -0.00016406  0.13D-03  0.29D-04  5  5    63.51
   6      1.27457548    -0.95081129  -143.31397785    -0.00147329    -0.00004492  0.28D-04  0.11D-04  6  6    71.29
   7      1.28693556    -0.95153053  -143.31469709    -0.00071924    -0.00001117  0.73D-05  0.28D-05  6  1    79.90
   8      1.28950460    -0.95164792  -143.31481448    -0.00011740    -0.00000214  0.12D-05  0.58D-06  6  2    86.34
   9      1.29026738    -0.95166380  -143.31483036    -0.00001587    -0.00000045  0.27D-06  0.12D-06  6  4    94.55
  10      1.29010954    -0.95165952  -143.31482609     0.00000427    -0.00000010  0.76D-07  0.21D-07  6  3   101.83
  11      1.29016941    -0.95165890  -143.31482546     0.00000062    -0.00000005  0.38D-07  0.10D-07  6  4   108.08
  12      1.29016790    -0.95165987  -143.31482643    -0.00000097    -0.00000002  0.15D-07  0.27D-08  6  5   115.76
  13      1.29016253    -0.95165863  -143.31482519     0.00000124    -0.00000001  0.72D-08  0.12D-08  6  6   123.70
  14      1.29018226    -0.95166022  -143.31482678    -0.00000159    -0.00000000  0.26D-08  0.37D-09  6  1   137.57
  15      1.29016944    -0.95165885  -143.31482542     0.00000136    -0.00000000  0.14D-08  0.16D-09  6  2   145.51
  16      1.29016375    -0.95165855  -143.31482511     0.00000030    -0.00000000  0.63D-09  0.89D-10  6  3   154.13

 Norm of t1 vector:      0.29099479      S-energy:    -0.00618740      T1 diagnostic:  0.04121494
                                                                       D1 diagnostic:  0.12061864
 Norm of t2 vector:      0.45330539      P-energy:    -0.94547115
                                         Alpha-Beta:  -0.68938052
                                         Alpha-Alpha: -0.14169482
                                         Beta-Beta:   -0.11439581

 Singles amplitudes (print threshold =  0.500E-01):

         I         SYM. A    A   T(IA) [Alpha-Alpha]

         6         1         2     -0.07865589
 
         I         SYM. A    A   T(IA) [Beta-Beta]

         4         1         1     -0.15959713
         8         2         1      0.17057952

 Doubles amplitudes (print threshold =  0.500E-01):

         I         J         SYM. A    SYM. B    A         B      T(IJ, AB) [Beta-Beta]

         8         4         1         2         1         1      0.08811662
         8         4         2         1         1         1     -0.08811662

 Spin contamination <S**2-Sz**2-Sz>     0.00000000

 Memory could be reduced to 164.20 Mwords without degradation in triples
 

  Correlated core orbitals:             1.1       2.1       1.2       1.3
  Orbital energies:                    -4.0204   -2.5908   -2.5391   -2.5399
 
  RCCSD core-core energy               -0.116018609902
  RCCSD core-valence energy            -0.265797513683
  RCCSD valence correlation energy     -0.569842426453
 

 RESULTS
 =======

  Reference energy                   -142.363166562391
  RCCSD singles energy                 -0.006187401258
  RCCSD pair energy                    -0.945471148781
  RCCSD correlation energy             -0.951658550039
  Triples (T) contribution             -0.041318585473
  Total correlation energy             -0.992977135512
 
  RHF-RCCSD energy                   -143.314825112429
  RHF-RCCSD[T] energy                -143.361226042740
  RHF-RCCSD-T energy                 -143.355927172274
 !RHF-RCCSD(T) energy                -143.356143697902

 Program statistics:

 Available memory in ccsd:               511998418
 Min. memory needed in ccsd:              14064756
 Max. memory used in ccsd:                20157915
 Max. memory used in cckext:              15861012 (16 integral passes)
 Max. memory used in cckint:              15004909 ( 1 integral passes)



 **********************************************************************************************************************************
 DATASETS  * FILE   NREC   LENGTH (MB)   RECORD NAMES
              1      19       21.25       500      610      700      900      950      970     1000      129      960     1100   
                                          VAR    BASINP    GEOM    SYMINP    ZMAT    AOBASIS   BASIS     P2S    ABASIS      S 
                                         1400     1410     1420     1200     1210     1080     1600     1650     1700   
                                           T        V       ECP      H0       H01     AOSYM     SMH    MOLCAS    OPER   

              2       4        3.66       700     1000      520     2100   
                                         GEOM     BASIS   MCVARS     RHF  

 PROGRAMS   *        TOTAL  RCCSD(T)       RHF       INT  RCCSD(T)       RHF       INT  RCCSD(T)       RHF       INT  RCCSD(T)
 CPU TIMES  *      1041.90    236.88      1.08     34.97    211.09      1.10     26.73    210.55      1.05     26.15    213.27
 REAL TIME  *      1680.01 SEC
 DISK USED  *        17.77 GB      
 SF USED    *         2.74 GB      
 GA USED    *         0.00 MB       (max)       0.00 MB       (current)
 **********************************************************************************************************************************
 SETTING CCSD(4)        =      -143.35614370  AU                              

 DO I                   =         5.00000000   
 SETTING Z(5)           =         1.78500000                                  

Geometry recognized as XYZ



 Recomputing integrals since geometry changed


 PROGRAM * SEWARD (Integral evaluation for generally contracted gaussian basis sets)     Author: Roland Lindh, 1990

 Geometry written to block  1 of record 700


 Point group  C2v 



 ATOMIC COORDINATES

 NR  ATOM    CHARGE       X              Y              Z

   1  PD     18.00    0.000000000    0.000000000    0.000000000
   2  O       6.00    0.000000000    0.000000000    3.373161132

 Bond lengths in Bohr (Angstrom)

 1-2  3.373161132
     ( 1.785000000)

 NUCLEAR CHARGE:                   24
 NUMBER OF PRIMITIVE AOS:         370
 NUMBER OF SYMMETRY AOS:          313
 NUMBER OF CONTRACTIONS:          313   ( 138A1  +  71B1  +  71B2  +  33A2  )
 NUMBER OF CORE ORBITALS:           4   (   2A1  +   1B1  +   1B2  +   0A2  )
 NUMBER OF VALENCE ORBITALS:       10   (   5A1  +   2B1  +   2B2  +   1A2  )


 NUCLEAR REPULSION ENERGY   32.01744469

 EXTRA SYMMETRY OF AOS IN SYMMETRY 1:   1 1 1 1 1 1 1 1 1 1   1 1 1 1 1 1 1 1 1 1   1 1 1 1 1 1 1 1 1 1   1 1 1 1 1 1 1 1 1 1
                                        1 1 1 1 1 1 1 1 1 1   1 1 1 2 1 2 1 2 1 2   1 2 1 2 1 2 1 2 1 2   1 2 1 2 1 2 1 2 1 2
                                        1 2 1 2 1 2 1 2 1 2   1 2 1 2 1 3 2 1 3 2   1 3 2 1 1 1 1 1 1 1   1 1 1 1 1 1 1 1 1 1
                                        1 1 1 1 1 1 1 2 1 2   1 2 1 2 1 2 1 2
 EXTRA SYMMETRY OF AOS IN SYMMETRY 2:   1 1 1 1 1 1 1 1 1 1   1 1 1 1 1 1 1 1 1 1   1 1 1 1 1 1 1 1 1 1   1 1 1 1 1 1 1 1 1 1
                                        1 2 1 2 1 2 1 2 1 2   1 2 1 2 1 1 1 1 1 1   1 1 1 1 1 1 1 1 2 1   2
 EXTRA SYMMETRY OF AOS IN SYMMETRY 3:   1 1 1 1 1 1 1 1 1 1   1 1 1 1 1 1 1 1 1 1   1 1 1 1 1 1 1 1 1 1   1 1 1 1 1 1 1 1 1 1
                                        1 2 1 2 1 2 1 2 1 2   1 2 1 2 1 1 1 1 1 1   1 1 1 1 1 1 1 1 2 1   2
 EXTRA SYMMETRY OF AOS IN SYMMETRY 4:   1 1 1 1 1 1 1 1 1 1   1 1 1 1 1 1 1 1 1 1   1 1 2 1 2 1 2 1 1 1   1 1 1

 Eigenvalues of metric

         1 0.849E-06 0.916E-06 0.186E-05 0.895E-05 0.951E-05 0.113E-04 0.253E-04 0.348E-04
         2 0.951E-06 0.981E-06 0.932E-05 0.296E-03 0.471E-03 0.162E-02 0.216E-02 0.297E-02
         3 0.951E-06 0.981E-06 0.932E-05 0.296E-03 0.471E-03 0.162E-02 0.216E-02 0.297E-02
         4 0.951E-05 0.307E-03 0.302E-02 0.107E-01 0.287E-01 0.527E-01 0.859E-01 0.104E+00


 Contracted 2-electron integrals neglected if value below      1.0D-13
 AO integral compression algorithm  1   Integral accuracy      1.0D-13

     969.146 MB (compressed) written to integral file ( 32.2%)

     Node minimum: 18.350 MB, node maximum: 109.314 MB


 NUMBER OF SORTED TWO-ELECTRON INTEGRALS:   13592913.     BUFFER LENGTH:  32768
 NUMBER OF SEGMENTS:   1  SEGMENT LENGTH:   13592913      RECORD LENGTH: 524288

 Memory used in sort:      14.15 MW

[...]
 DATASETS  * FILE   NREC   LENGTH (MB)   RECORD NAMES
              1      19       21.25       500      610      700      900      950      970     1000      129      960     1100   
                                          VAR    BASINP    GEOM    SYMINP    ZMAT    AOBASIS   BASIS     P2S    ABASIS      S 
                                         1400     1410     1420     1200     1210     1080     1600     1650     1700   
                                           T        V       ECP      H0       H01     AOSYM     SMH    MOLCAS    OPER   

              2       4        3.66       700     1000      520     2100   
                                         GEOM     BASIS   MCVARS     RHF  

 PROGRAMS   *        TOTAL  RCCSD(T)       RHF       INT  RCCSD(T)       RHF       INT  RCCSD(T)       RHF       INT  RCCSD(T)
 CPU TIMES  *      2557.32    215.99      2.52     28.24    186.70      1.49     27.44    245.48      1.95     26.96    245.82
 REAL TIME  *      4301.11 SEC
 DISK USED  *        18.08 GB      
 SF USED    *         2.74 GB      
 GA USED    *         0.00 MB       (max)       0.00 MB       (current)
 **********************************************************************************************************************************
 SETTING CCSD(10)       =      -143.29887566  AU                              

 DO I                   =        11.00000000   
 SETTING Z(11)          =         1.48500000                                  

Geometry recognized as XYZ



 Recomputing integrals since geometry changed


 PROGRAM * SEWARD (Integral evaluation for generally contracted gaussian basis sets)     Author: Roland Lindh, 1990

 Geometry written to block  1 of record 700


 Point group  C2v 



 ATOMIC COORDINATES

 NR  ATOM    CHARGE       X              Y              Z

   1  PD     18.00    0.000000000    0.000000000    0.000000000
   2  O       6.00    0.000000000    0.000000000    2.806243295

 Bond lengths in Bohr (Angstrom)

 1-2  2.806243295
     ( 1.485000000)

 NUCLEAR CHARGE:                   24
 NUMBER OF PRIMITIVE AOS:         370
 NUMBER OF SYMMETRY AOS:          313
 NUMBER OF CONTRACTIONS:          313   ( 138A1  +  71B1  +  71B2  +  33A2  )
 NUMBER OF CORE ORBITALS:           4   (   2A1  +   1B1  +   1B2  +   0A2  )
 NUMBER OF VALENCE ORBITALS:       10   (   5A1  +   2B1  +   2B2  +   1A2  )


 NUCLEAR REPULSION ENERGY   38.48561534

 EXTRA SYMMETRY OF AOS IN SYMMETRY 1:   1 1 1 1 1 1 1 1 1 1   1 1 1 1 1 1 1 1 1 1   1 1 1 1 1 1 1 1 1 1   1 1 1 1 1 1 1 1 1 1
                                        1 1 1 1 1 1 1 1 1 1   1 1 1 2 1 2 1 2 1 2   1 2 1 2 1 2 1 2 1 2   1 2 1 2 1 2 1 2 1 2
                                        1 2 1 2 1 2 1 2 1 2   1 2 1 2 1 3 2 1 3 2   1 3 2 1 1 1 1 1 1 1   1 1 1 1 1 1 1 1 1 1
                                        1 1 1 1 1 1 1 2 1 2   1 2 1 2 1 2 1 2
 EXTRA SYMMETRY OF AOS IN SYMMETRY 2:   1 1 1 1 1 1 1 1 1 1   1 1 1 1 1 1 1 1 1 1   1 1 1 1 1 1 1 1 1 1   1 1 1 1 1 1 1 1 1 1
                                        1 2 1 2 1 2 1 2 1 2   1 2 1 2 1 1 1 1 1 1   1 1 1 1 1 1 1 1 2 1   2
 EXTRA SYMMETRY OF AOS IN SYMMETRY 3:   1 1 1 1 1 1 1 1 1 1   1 1 1 1 1 1 1 1 1 1   1 1 1 1 1 1 1 1 1 1   1 1 1 1 1 1 1 1 1 1
                                        1 2 1 2 1 2 1 2 1 2   1 2 1 2 1 1 1 1 1 1   1 1 1 1 1 1 1 1 2 1   2
 EXTRA SYMMETRY OF AOS IN SYMMETRY 4:   1 1 1 1 1 1 1 1 1 1   1 1 1 1 1 1 1 1 1 1   1 1 2 1 2 1 2 1 1 1   1 1 1

 Eigenvalues of metric

         1 0.748E-06 0.903E-06 0.179E-05 0.787E-05 0.919E-05 0.949E-05 0.217E-04 0.316E-04
         2 0.932E-06 0.975E-06 0.927E-05 0.293E-03 0.469E-03 0.159E-02 0.210E-02 0.294E-02
         3 0.932E-06 0.975E-06 0.927E-05 0.293E-03 0.469E-03 0.159E-02 0.210E-02 0.294E-02
         4 0.949E-05 0.307E-03 0.302E-02 0.107E-01 0.286E-01 0.524E-01 0.790E-01 0.899E-01


 Contracted 2-electron integrals neglected if value below      1.0D-13
 AO integral compression algorithm  1   Integral accuracy      1.0D-13

     1043.333 MB (compressed) written to integral file ( 34.7%)

     Node minimum: 19.399 MB, node maximum: 109.314 MB


 NUMBER OF SORTED TWO-ELECTRON INTEGRALS:   13592913.     BUFFER LENGTH:  32768
 NUMBER OF SEGMENTS:   1  SEGMENT LENGTH:   13592913      RECORD LENGTH: 524288

 Memory used in sort:      14.15 MW

 SORT1 READ   375719576. AND WROTE     6114105. INTEGRALS IN     18 RECORDS. CPU TIME:     7.32 SEC, REAL TIME:     8.92 SEC
 SORT2 READ   140699088. AND WROTE   312994044. INTEGRALS IN   5336 RECORDS. CPU TIME:     0.43 SEC, REAL TIME:     0.74 SEC

 Node minimum:    13561530.  Node maximum:    13694643. integrals

 OPERATOR DM      FOR CENTER  0  COORDINATES:    0.000000    0.000000    0.000000


 **********************************************************************************************************************************
 DATASETS  * FILE   NREC   LENGTH (MB)   RECORD NAMES
              1      19       21.20       500      610      700      900      950      970     1000      129      960     1100   
                                          VAR    BASINP    GEOM    SYMINP    ZMAT    AOBASIS   BASIS     P2S    ABASIS      S 
                                         1400     1410     1420     1200     1210     1080     1600     1650     1700   
                                           T        V       ECP      H0       H01     AOSYM     SMH    MOLCAS    OPER   

              2       4        3.66       700     1000      520     2100   
                                         GEOM     BASIS   MCVARS     RHF  

 PROGRAMS   *        TOTAL       INT  RCCSD(T)       RHF       INT  RCCSD(T)       RHF       INT  RCCSD(T)       RHF       INT
 CPU TIMES  *      2583.96     26.50    215.99      2.52     28.24    186.70      1.49     27.44    245.48      1.95     26.96
 REAL TIME  *      4330.25 SEC
 DISK USED  *        18.12 GB      
 SF USED    *         2.74 GB      
 GA USED    *         0.00 MB       (max)       0.00 MB       (current)
 **********************************************************************************************************************************


 PROGRAM * RHF-SCF (OPEN SHELL)       Authors: W. Meyer, H.-J. Werner


 NUMBER OF ELECTRONS:      13+   11-    SPACE SYMMETRY=2    SPIN SYMMETRY: Triplet 
 CONVERGENCE THRESHOLDS:    1.00E-05 (Density)    1.00E-07 (Energy)
 MAX. NUMBER OF ITERATIONS:       60
 INTERPOLATION TYPE:            DIIS
 INTERPOLATION STEPS:              2 (START)      1 (STEP)
 LEVEL SHIFTS:                 -0.60 (CLOSED) -0.30 (OPEN) 

 Number of closed-shell orbitals:   11 (   5   2   3   1 )
 Number of open-shell orbitals:      2 (   1   1   0   0 )


 Molecular orbitals read from record     2100.2  Type=RHF/CANONICAL (state 1.2)

 Molecular orbital dump at record        2100.2

 ITERATION    DDIFF          GRAD             ENERGY        2-EL.EN.            DIPOLE MOMENTS         DIIS   ORB.
    1      0.000D+00      0.000D+00      -142.21762114    295.569606    0.00000    0.00000   -1.34793    0    start
    2      0.000D+00      0.532D-02      -142.22050121    295.442700    0.00000    0.00000   -1.37253    1    diag,B
    3      0.449D-02      0.472D-03      -142.22117572    295.417606    0.00000    0.00000   -1.34523    2    diag,B
    4      0.753D-03      0.256D-03      -142.22158556    295.321184    0.00000    0.00000   -1.34511    3    diag,B
    5      0.256D-03      0.200D-03      -142.22195941    295.268641    0.00000    0.00000   -1.32973    4    diag,B
    6      0.248D-03      0.136D-03      -142.22238874    295.144783    0.00000    0.00000   -1.30876    5    diag,B
    7      0.439D-03      0.930D-04      -142.22258971    295.064122    0.00000    0.00000   -1.29396    6    diag,B
    8      0.296D-03      0.587D-04      -142.22267693    294.994686    0.00000    0.00000   -1.28257    7    orth
    9      0.215D-03      0.315D-04      -142.22269942    294.958292    0.00000    0.00000   -1.27817    8    diag,B
   10      0.135D-03      0.126D-04      -142.22270167    294.950053    0.00000    0.00000   -1.27792    9    diag,B
   11      0.451D-04      0.448D-05      -142.22270188    294.949236    0.00000    0.00000   -1.27824    9    diag,B
   12      0.178D-04      0.201D-05      -142.22270194    294.949384    0.00000    0.00000   -1.27847    9    diag,B
   13      0.625D-05      0.116D-05      -142.22270195    294.949389    0.00000    0.00000   -1.27854    0    orth

 Final alpha occupancy:   6   3   3   1
 Final beta  occupancy:   5   2   3   1

 !RHF STATE 1.2 Energy               -142.222701950519
 Nuclear energy                        38.48561534
 One-electron energy                 -328.18301174
 Two-electron energy                  147.47469445
 Virial quotient                       -2.32384021
 !RHF STATE 1.2 Dipole moment           0.00000000     0.00000000    -1.27853752
 Dipole moment /Debye                   0.00000000     0.00000000    -3.24950538

 Orbital energies:

         1.1          2.1          3.1          4.1          5.1          6.1          7.1          8.1
     -4.043542    -2.611893    -1.273471    -0.604564    -0.480761    -0.300684     0.009648     0.032836

         1.2          2.2          3.2          4.2          5.2
     -2.559225    -0.595102    -0.454075     0.023863     0.078922

         1.3          2.3          3.3          4.3          5.3
     -2.557140    -0.657237    -0.375563     0.025061     0.081952

         1.4          2.4          3.4
     -0.480934     0.096846     0.316020

 HOMO      6.1    -0.300684 =      -8.1820eV
 LUMO      7.1     0.009648 =       0.2625eV
 LUMO-HOMO         0.310332 =       8.4446eV


 **********************************************************************************************************************************
 DATASETS  * FILE   NREC   LENGTH (MB)   RECORD NAMES
              1      19       21.25       500      610      700      900      950      970     1000      129      960     1100   
                                          VAR    BASINP    GEOM    SYMINP    ZMAT    AOBASIS   BASIS     P2S    ABASIS      S 
                                         1400     1410     1420     1200     1210     1080     1600     1650     1700   
                                           T        V       ECP      H0       H01     AOSYM     SMH    MOLCAS    OPER   

              2       4        3.66       700     1000      520     2100   
                                         GEOM     BASIS   MCVARS     RHF  

 PROGRAMS   *        TOTAL       RHF       INT  RCCSD(T)       RHF       INT  RCCSD(T)       RHF       INT  RCCSD(T)       RHF
 CPU TIMES  *      2586.32      2.33     26.50    215.99      2.52     28.24    186.70      1.49     27.44    245.48      1.95
 REAL TIME  *      4334.29 SEC
 DISK USED  *        18.12 GB      
 SF USED    *         2.74 GB      
 GA USED    *         0.00 MB       (max)       0.00 MB       (current)
 **********************************************************************************************************************************
 SETTING SCF(11)        =      -142.22270195  AU                              
 SETTING _CC_NORM_MAX   =         2.00000000                                  


 PROGRAM * CCSD (Restricted open-shell coupled cluster)     Authors: C. Hampel, H.-J. Werner, 1991, M. Deegan, P.J. Knowles, 1992


 Convergence thresholds:  THRVAR = 1.00D-08  THRDEN = 1.00D-06

 CCSD(T)     terms to be evaluated (factor= 1.000)


 Number of closed-shell orbitals:  11 (   5   2   3   1 )
 Number of active  orbitals:        2 (   1   1   0   0 )
 Number of external orbitals:     300 ( 132  68  68  32 )

 Memory could be reduced to 163.04 Mwords without degradation in triples

 Number of N-1 electron functions:              24
 Number of N-2 electron functions:             276
 Number of singly external CSFs:              2280
 Number of doubly external CSFs:           4894910
 Total number of CSFs:                     4897190

 Molecular orbitals read from record     2100.2  Type=RHF/CANONICAL (state 1.2)

 Integral transformation finished. Total CPU:   6.16 sec, npass=  1  Memory used:  15.00 MW

 Starting RMP2 calculation

 Wavefunction is spin-projected

 ITER.      SQ.NORM     CORR.ENERGY   TOTAL ENERGY   ENERGY CHANGE        DEN1      VAR(S)    VAR(P)  DIIS     TIME
   1      1.22259346    -1.05158576  -143.27428771    -1.05158576    -0.00189751  0.37D-04  0.72D-03  1  1     7.16
   2      1.22443161    -1.05360281  -143.27630476    -0.00201705    -0.00000751  0.95D-06  0.41D-05  2  2     7.89
   3      1.22454794    -1.05366643  -143.27636838    -0.00006362    -0.00000006  0.22D-07  0.25D-07  3  3     9.47
   4      1.22455204    -1.05366731  -143.27636926    -0.00000088    -0.00000000  0.27D-09  0.21D-09  4  4    10.90

 Norm of t1 vector:      0.05197676      S-energy:    -0.00550249      T1 diagnostic:  0.00092031
 Norm of t2 vector:      0.47101003      P-energy:    -1.04816482
                                         Alpha-Beta:  -0.72642051
                                         Alpha-Alpha: -0.17293289
                                         Beta-Beta:   -0.14881142

 Spin contamination <S**2-Sz**2-Sz>     0.00000000
  Reference energy                   -142.222701950519
  RHF-RMP2 correlation energy          -1.053667309502
 !RHF-RMP2 energy                    -143.276369260020
 (NB above energy spin projected)

 Starting RCCSD calculation

 ITER.      SQ.NORM     CORR.ENERGY   TOTAL ENERGY   ENERGY CHANGE        DEN1      VAR(S)    VAR(P)  DIIS     TIME
   1      1.18154550    -0.96216727  -143.18486922    -0.96216727    -0.03860292  0.12D-01  0.70D-02  1  1    18.66
   2      1.20332532    -0.99182221  -143.21452416    -0.02965494    -0.00322162  0.98D-03  0.87D-03  2  2    25.02
   3      1.21787313    -0.99445547  -143.21715742    -0.00263326    -0.00092124  0.96D-03  0.58D-04  3  3    32.36
   4      1.23258908    -0.99731828  -143.22002023    -0.00286281    -0.00027045  0.24D-03  0.27D-04  4  4    40.76
   5      1.24831190    -0.99932463  -143.22202658    -0.00200635    -0.00004255  0.35D-04  0.51D-05  5  5    48.17
   6      1.25311878    -0.99973407  -143.22243602    -0.00040944    -0.00000706  0.56D-05  0.12D-05  6  6    54.87
   7      1.25449802    -0.99981577  -143.22251772    -0.00008170    -0.00000150  0.12D-05  0.26D-06  6  1    63.09
   8      1.25466938    -0.99983860  -143.22254055    -0.00002283    -0.00000035  0.42D-06  0.45D-07  6  2    79.07
   9      1.25476953    -0.99982795  -143.22252990     0.00001065    -0.00000012  0.15D-06  0.12D-07  6  3    86.63
  10      1.25490159    -0.99984567  -143.22254762    -0.00001772    -0.00000004  0.44D-07  0.50D-08  6  4    95.00
  11      1.25490214    -0.99983622  -143.22253817     0.00000945    -0.00000001  0.99D-08  0.21D-08  6  5   102.21
  12      1.25491842    -0.99983718  -143.22253913    -0.00000096    -0.00000000  0.12D-08  0.39D-09  6  6   109.00

 Norm of t1 vector:      0.23226676      S-energy:    -0.00523201      T1 diagnostic:  0.03272618
                                                                       D1 diagnostic:  0.10822098
 Norm of t2 vector:      0.44829742      P-energy:    -0.99460517
                                         Alpha-Beta:  -0.71726908
                                         Alpha-Alpha: -0.14692347
                                         Beta-Beta:   -0.13041261

 Singles amplitudes (print threshold =  0.500E-01):

         I         SYM. A    A   T(IA) [Beta-Beta]

         4         1         1     -0.06947827
         8         2         1      0.15301537

 Doubles amplitudes (print threshold =  0.500E-01):

         I         J         SYM. A    SYM. B    A         B      T(IJ, AB) [Beta-Beta]

         8         4         1         2         1         1      0.05716843
         8         4         2         1         1         1     -0.05716843

 Spin contamination <S**2-Sz**2-Sz>     0.00000000

 Memory could be reduced to 164.20 Mwords without degradation in triples
 

  Correlated core orbitals:             1.1       2.1       1.2       1.3
  Orbital energies:                    -4.0687   -2.6519   -2.5861   -2.5692
 
  RCCSD core-core energy               -0.113645310801
  RCCSD core-valence energy            -0.268825963750
  RCCSD valence correlation energy     -0.617365908872
 

 RESULTS
 =======

  Reference energy                   -142.222701950519
  RCCSD singles energy                 -0.005232010203
  RCCSD pair energy                    -0.994605173219
  RCCSD correlation energy             -0.999837183423
  Triples (T) contribution             -0.046108367630
  Total correlation energy             -1.045945551053
 
  RHF-RCCSD energy                   -143.222539133942
  RHF-RCCSD[T] energy                -143.272255219918
  RHF-RCCSD-T energy                 -143.268381164060
 !RHF-RCCSD(T) energy                -143.268647501572

 Program statistics:

 Available memory in ccsd:               511998418
 Min. memory needed in ccsd:              14064756
 Max. memory used in ccsd:                20157915
 Max. memory used in cckext:              15861012 (12 integral passes)
 Max. memory used in cckint:              15004909 ( 1 integral passes)



 **********************************************************************************************************************************
 DATASETS  * FILE   NREC   LENGTH (MB)   RECORD NAMES
              1      19       21.25       500      610      700      900      950      970     1000      129      960     1100   
                                          VAR    BASINP    GEOM    SYMINP    ZMAT    AOBASIS   BASIS     P2S    ABASIS      S 
                                         1400     1410     1420     1200     1210     1080     1600     1650     1700   
                                           T        V       ECP      H0       H01     AOSYM     SMH    MOLCAS    OPER   

              2       4        3.66       700     1000      520     2100   
                                         GEOM     BASIS   MCVARS     RHF  

 PROGRAMS   *        TOTAL  RCCSD(T)       RHF       INT  RCCSD(T)       RHF       INT  RCCSD(T)       RHF       INT  RCCSD(T)
 CPU TIMES  *      2777.10    190.69      2.33     26.50    215.99      2.52     28.24    186.70      1.49     27.44    245.48
 REAL TIME  *      4660.43 SEC
 DISK USED  *        18.12 GB      
 SF USED    *         2.74 GB      
 GA USED    *         0.00 MB       (max)       0.00 MB       (current)
 **********************************************************************************************************************************
 SETTING CCSD(11)       =      -143.26864750  AU                              
 Output type csv         
                                                                                                                                                                                                                                                                

     Z,SCF,CCSD
   1.985,   -142.3723737,   -143.3511891
   1.935,   -142.3711781,   -143.3538514
   1.885,   -142.3682390,   -143.3556007
   1.835,   -142.3631666,   -143.3561437
   1.785,   -142.3555103,   -143.3550820
   1.735,   -142.3447584,   -143.3518693
   1.685,   -142.3303401,   -143.3457548
   1.635,   -142.3116303,   -143.3357546
   1.585,   -142.2879480,   -143.3206480
   1.535,   -142.2585544,   -143.2988757
   1.485,   -142.2227020,   -143.2686475
                                                  

 RCCSD(T)/USERDEF energy=   -143.268647501572

        RCCSD(T)        RHF-SCF         RCCSD(T)        RHF-SCF         RCCSD(T)        RHF-SCF         RCCSD(T)        RHF-SCF 
   -143.26864750   -142.22270195   -143.29887566   -142.25855438   -143.32064805   -142.28794797   -143.33575455   -142.31163027
 **********************************************************************************************************************************
 Molpro calculation terminated
 Variable memory released
