
 Primary working directories    : /global/cscratch1/sd/bkincaid
 Secondary working directories  : /global/cscratch1/sd/bkincaid
 Wavefunction directory         : /global/homes/b/bkincaid/wfu/
 Main file repository           : /global/cscratch1/sd/bkincaid/

 SHA1      : 19cd028119e0e09f93f0674bd8af7968d9b3eff6
 NAME      : 2015.1.36
 ARCHNAME  : linux/x86_64
 FC        : /opt/cray/pe/craype/2.5.14/bin/ftn
 BLASLIB   : -L/opt/intel/compilers_and_libraries_2018.1.163/linux/mkl/lib/intel64 -Wl,-_start-group -lmkl_intel_ilp64 -lmkl_intel_thread -lmkl_core -Wl,-_end-group -liomp5
 id        : lbl

 Nodes     nprocs
 nid01884    23
 Number of processes for MPI-2 version of Molpro:   nprocs(total)=   24   nprocs(compute)=   23   nprocs(helper)=    1

 Using customized tuning parameters: mindgm=7; mindgv=16; mindgc=1; mindgr=1; noblas=0; minvec=7
 default implementation of scratch files=sf  

 ***,Calculation for PdH groundstate
 memory,512,m
 gthresh,twoint=1.0E-12
 gthresh,throvl=1.0E-12
                                                                                 !symmetry,nosym
 
 
 basis={
 Including file /global/u1/b/bkincaid/molpro/Pd/molecules/PdH/tz/ecps/bk16.5/bk16.5
 Including file /global/u1/b/bkincaid/molpro/Pd/molecules/PdH/tz/ecps/bk16.5/Pd-aug-cc-pwCVTZ.basis
 ecp,H,0,1,0
 3
 1, 21.24359508259891,   1.00000000000000
 3, 21.24359508259891,  21.24359508259891
 2, 21.77696655044365, -10.85192405303825
 1
 2, 1.000000000000000,   0.00000000000000
 Including file /global/u1/b/bkincaid/molpro/Pd/molecules/PdH/tz/ecps/bk16.5/H-aug-cc-pVTZ.basis
 }
 
 ne = 19
 
 A1=5
 B1=2
 B2=2
 A2=1
 
 do i=1,11
 z(i) = 1.679 - 0.05*(i-1)
 geometry={
 2
 PdH
 Pd 0.0 0.0 0.0
 H 0.0 0.0 z(i)
 }
 {rhf
 wf,nelec=ne,spin=1,sym=1
 occ,A1,B1,B2,A2
 closed,A1-1,B1,B2,A2
 }
 scf(i)=energy
 _CC_NORM_MAX=2.0
 {rccsd(t);maxit,100;core}
 ccsd(i)=energy
 enddo
 
 table,z,scf,ccsd
 save
 type,csv

 Variables initialized (889), CPU time= 0.01 sec
 Commands  initialized (702), CPU time= 0.02 sec, 572 directives.
 Default parameters read. Elapsed time= 0.16 sec

 Checking input...
 Passed
1


                                         ***  PROGRAM SYSTEM MOLPRO  ***
                                       Copyright, TTI GmbH Stuttgart, 2015
                                    Version 2015.1 linked Dec 29 2018 15:55:43


 **********************************************************************************************************************************
 LABEL *   Calculation for PdH groundstate                                               
  64 bit mpp version                                                                     DATE: 16-Apr-21          TIME: 11:08:12  
 **********************************************************************************************************************************

 SHA1:             19cd028119e0e09f93f0674bd8af7968d9b3eff6
 **********************************************************************************************************************************

 THRESHOLDS:

 ZERO    =  1.00D-12  ONEINT  =  1.00D-12  TWOINT  =  1.00D-12  PREFAC  =  1.00D-14  LOCALI  =  1.00D-09  EORDER  =  1.00D-04
 ENERGY  =  0.00D+00  ETEST   =  0.00D+00  EDENS   =  0.00D+00  THRDEDEF=  1.00D-06  GRADIENT=  1.00D-02  STEP    =  1.00D-03
 ORBITAL =  1.00D-05  CIVEC   =  1.00D-05  COEFF   =  1.00D-04  PRINTCI =  5.00D-02  PUNCHCI =  9.90D+01  OPTGRAD =  3.00D-04
 OPTENERG=  1.00D-06  OPTSTEP =  3.00D-04  THRGRAD =  1.00D-10  COMPRESS=  1.00D-11  VARMIN  =  1.00D-07  VARMAX  =  1.00D-03
 THRDOUB =  0.00D+00  THRDIV  =  1.00D-05  THRRED  =  1.00D-07  THRPSP  =  1.00D+00  THRDC   =  1.00D-10  THRCS   =  1.00D-10
 THRNRM  =  1.00D-08  THREQ   =  0.00D+00  THRDE   =  1.00D+00  THRREF  =  1.00D-05  SPARFAC =  1.00D+00  THRDLP  =  1.00D-07
 THRDIA  =  1.00D-10  THRDLS  =  1.00D-07  THRGPS  =  0.00D+00  THRKEX  =  0.00D+00  THRDIS  =  2.00D-01  THRVAR  =  1.00D-10
 THRLOC  =  1.00D-06  THRGAP  =  1.00D-06  THRLOCT = -1.00D+00  THRGAPT = -1.00D+00  THRORB  =  1.00D-06  THRMLTP =  0.00D+00
 THRCPQCI=  1.00D-10  KEXTA   =  0.00D+00  THRCOARS=  0.00D+00  SYMTOL  =  1.00D-06  GRADTOL =  1.00D-06  THROVL  =  1.00D-08
 THRORTH =  1.00D-08  GRID    =  1.00D-06  GRIDMAX =  1.00D-03  DTMAX   =  0.00D+00  THROCCDE=  1.00D-01  THROCCDE=  1.00D-01



 THRESHOLDS:

 ZERO    =  1.00D-12  ONEINT  =  1.00D-12  TWOINT  =  1.00D-12  PREFAC  =  1.00D-14  LOCALI  =  1.00D-09  EORDER  =  1.00D-04
 ENERGY  =  0.00D+00  ETEST   =  0.00D+00  EDENS   =  0.00D+00  THRDEDEF=  1.00D-06  GRADIENT=  1.00D-02  STEP    =  1.00D-03
 ORBITAL =  1.00D-05  CIVEC   =  1.00D-05  COEFF   =  1.00D-04  PRINTCI =  5.00D-02  PUNCHCI =  9.90D+01  OPTGRAD =  3.00D-04
 OPTENERG=  1.00D-06  OPTSTEP =  3.00D-04  THRGRAD =  1.00D-10  COMPRESS=  1.00D-11  VARMIN  =  1.00D-07  VARMAX  =  1.00D-03
 THRDOUB =  0.00D+00  THRDIV  =  1.00D-05  THRRED  =  1.00D-07  THRPSP  =  1.00D+00  THRDC   =  1.00D-10  THRCS   =  1.00D-10
 THRNRM  =  1.00D-08  THREQ   =  0.00D+00  THRDE   =  1.00D+00  THRREF  =  1.00D-05  SPARFAC =  1.00D+00  THRDLP  =  1.00D-07
 THRDIA  =  1.00D-10  THRDLS  =  1.00D-07  THRGPS  =  0.00D+00  THRKEX  =  0.00D+00  THRDIS  =  2.00D-01  THRVAR  =  1.00D-10
 THRLOC  =  1.00D-06  THRGAP  =  1.00D-06  THRLOCT = -1.00D+00  THRGAPT = -1.00D+00  THRORB  =  1.00D-06  THRMLTP =  0.00D+00
 THRCPQCI=  1.00D-10  KEXTA   =  0.00D+00  THRCOARS=  0.00D+00  SYMTOL  =  1.00D-06  GRADTOL =  1.00D-06  THROVL  =  1.00D-12
 THRORTH =  1.00D-08  GRID    =  1.00D-06  GRIDMAX =  1.00D-03  DTMAX   =  0.00D+00  THROCCDE=  1.00D-01  THROCCDE=  1.00D-01



 Variable memory set to  512000000 words,  buffer space   230000 words

 SETTING BASIS          =    USERDEF
 SETTING NE             =        19.00000000                                  
 SETTING A1             =         5.00000000                                  
 SETTING B1             =         2.00000000                                  
 SETTING B2             =         2.00000000                                  
 SETTING A2             =         1.00000000                                  

 DO I                   =         1.00000000   
 SETTING Z(1)           =         1.67900000                                  

Geometry recognized as XYZ



 Recomputing integrals since basis changed


 Using spherical harmonics



 PROGRAM * SEWARD (Integral evaluation for generally contracted gaussian basis sets)     Author: Roland Lindh, 1990

 Geometry written to block  1 of record 700


 Point group  C2v 



 ATOMIC COORDINATES

 NR  ATOM    CHARGE       X              Y              Z

   1  PD     18.00    0.000000000    0.000000000    0.000000000
   2  H       1.00    0.000000000    0.000000000    3.172850163

 Bond lengths in Bohr (Angstrom)

 1-2  3.172850163
     ( 1.679000000)

 NUCLEAR CHARGE:                   19
 NUMBER OF PRIMITIVE AOS:         312
 NUMBER OF SYMMETRY AOS:          263
 NUMBER OF CONTRACTIONS:          263   ( 116A1  +  59B1  +  59B2  +  29A2  )
 NUMBER OF CORE ORBITALS:           4   (   2A1  +   1B1  +   1B2  +   0A2  )
 NUMBER OF VALENCE ORBITALS:        7   (   4A1  +   1B1  +   1B2  +   1A2  )


 NUCLEAR REPULSION ENERGY    5.67313270

 EXTRA SYMMETRY OF AOS IN SYMMETRY 1:   1 1 1 1 1 1 1 1 1 1   1 1 1 1 1 1 1 1 1 1   1 1 1 1 1 1 1 1 1 1   1 1 1 1 1 1 1 1 1 1
                                        1 1 1 1 1 1 1 1 1 1   1 1 1 2 1 2 1 2 1 2   1 2 1 2 1 2 1 2 1 2   1 2 1 2 1 2 1 2 1 2
                                        1 2 1 2 1 2 1 2 1 2   1 2 1 2 1 3 2 1 3 2   1 3 2 1 1 1 1 1 1 1   1 1 1 2 1 2
 EXTRA SYMMETRY OF AOS IN SYMMETRY 2:   1 1 1 1 1 1 1 1 1 1   1 1 1 1 1 1 1 1 1 1   1 1 1 1 1 1 1 1 1 1   1 1 1 1 1 1 1 1 1 1
                                        1 2 1 2 1 2 1 2 1 2   1 2 1 2 1 1 1 1 1
 EXTRA SYMMETRY OF AOS IN SYMMETRY 3:   1 1 1 1 1 1 1 1 1 1   1 1 1 1 1 1 1 1 1 1   1 1 1 1 1 1 1 1 1 1   1 1 1 1 1 1 1 1 1 1
                                        1 2 1 2 1 2 1 2 1 2   1 2 1 2 1 1 1 1 1
 EXTRA SYMMETRY OF AOS IN SYMMETRY 4:   1 1 1 1 1 1 1 1 1 1   1 1 1 1 1 1 1 1 1 1   1 1 2 1 2 1 2 1 1

 Eigenvalues of metric

         1 0.947E-06 0.194E-05 0.903E-05 0.951E-05 0.282E-04 0.119E-03 0.266E-03 0.274E-03
         2 0.982E-06 0.946E-05 0.304E-03 0.471E-03 0.163E-02 0.301E-02 0.406E-02 0.938E-02
         3 0.982E-06 0.946E-05 0.304E-03 0.471E-03 0.163E-02 0.301E-02 0.406E-02 0.938E-02
         4 0.951E-05 0.307E-03 0.302E-02 0.107E-01 0.287E-01 0.530E-01 0.879E-01 0.105E+00


 Contracted 2-electron integrals neglected if value below      1.0D-13
 AO integral compression algorithm  1   Integral accuracy      1.0D-13

     586.154 MB (compressed) written to integral file ( 42.7%)

     Node minimum: 6.291 MB, node maximum: 63.701 MB


 NUMBER OF SORTED TWO-ELECTRON INTEGRALS:    6738189.     BUFFER LENGTH:  32768
 NUMBER OF SEGMENTS:   1  SEGMENT LENGTH:    6738189      RECORD LENGTH: 524288

 Memory used in sort:       7.30 MW

 SORT1 READ   171363336. AND WROTE     2847112. INTEGRALS IN      9 RECORDS. CPU TIME:     2.59 SEC, REAL TIME:     2.70 SEC
 SORT2 READ    66858833. AND WROTE   156329493. INTEGRALS IN   1357 RECORDS. CPU TIME:     4.65 SEC, REAL TIME:     4.80 SEC

 Node minimum:     6738189.  Node maximum:     6815662. integrals

 OPERATOR DM      FOR CENTER  0  COORDINATES:    0.000000    0.000000    0.000000


 **********************************************************************************************************************************
 DATASETS  * FILE   NREC   LENGTH (MB)   RECORD NAMES
              1      19       20.83       500      610      700      900      950      970     1000      129      960     1100   
                                          VAR    BASINP    GEOM    SYMINP    ZMAT    AOBASIS   BASIS     P2S    ABASIS      S 
                                         1400     1410     1420     1200     1210     1080     1600     1650     1700   
                                           T        V       ECP      H0       H01     AOSYM     SMH    MOLCAS    OPER   

 PROGRAMS   *        TOTAL       INT
 CPU TIMES  *        23.38     23.01
 REAL TIME  *        24.87 SEC
 DISK USED  *         1.44 GB      
 GA USED    *         0.00 MB       (max)       0.00 MB       (current)
 **********************************************************************************************************************************


 PROGRAM * RHF-SCF (OPEN SHELL)       Authors: W. Meyer, H.-J. Werner


 NUMBER OF ELECTRONS:      10+    9-    SPACE SYMMETRY=1    SPIN SYMMETRY: Doublet 
 CONVERGENCE THRESHOLDS:    1.00E-05 (Density)    1.00E-07 (Energy)
 MAX. NUMBER OF ITERATIONS:       60
 INTERPOLATION TYPE:            DIIS
 INTERPOLATION STEPS:              2 (START)      1 (STEP)
 LEVEL SHIFTS:                 -0.60 (CLOSED) -0.30 (OPEN) 

 Number of closed-shell orbitals:    9 (   4   2   2   1 )
 Number of open-shell orbitals:      1 (   1   0   0   0 )


 Orbital guess generated from atomic densities. Full valence occupancy:    6   2   2   1

 Molecular orbital dump at record        2100.2

 ITERATION    DDIFF          GRAD             ENERGY        2-EL.EN.            DIPOLE MOMENTS         DIIS   ORB.
    1      0.000D+00      0.000D+00      -127.33784110    216.109941    0.00000    0.00000   -0.41235    0    start
    2      0.000D+00      0.718D-02      -127.36899906    210.657760    0.00000    0.00000   -0.85227    1    diag,B
    3      0.223D-02      0.446D-02      -127.37705844    211.833196    0.00000    0.00000   -0.87199    2    diag,B
    4      0.903D-03      0.117D-02      -127.38223840    211.591008    0.00000    0.00000   -1.01490    3    diag,B
    5      0.627D-03      0.784D-03      -127.38760375    211.288667    0.00000    0.00000   -1.16948    4    diag,B
    6      0.567D-03      0.601D-03      -127.39289461    210.954833    0.00000    0.00000   -1.32429    5    diag,B
    7      0.565D-03      0.489D-03      -127.39718144    210.645478    0.00000    0.00000   -1.45220    6    fixocc
    8      0.623D-03      0.288D-03      -127.39859945    210.432605    0.00000    0.00000   -1.51353    7    diag,B
    9      0.388D-03      0.171D-03      -127.39893614    210.370558    0.00000    0.00000   -1.54299    8    diag,B
   10      0.264D-03      0.111D-03      -127.39894127    210.343165    0.00000    0.00000   -1.54442    9    orth
   11      0.142D-03      0.717D-04      -127.39896851    210.331411    0.00000    0.00000   -1.55121    9    diag,B
   12      0.620D-04      0.220D-04      -127.39897197    210.330757    0.00000    0.00000   -1.55378    9    diag,B
   13      0.270D-04      0.812D-05      -127.39897281    210.331211    0.00000    0.00000   -1.55505    9    diag,B
   14      0.198D-04      0.430D-05      -127.39897298    210.331055    0.00000    0.00000   -1.55591    9    diag,B
   15      0.740D-05      0.325D-05      -127.39897303    210.330797    0.00000    0.00000   -1.55631    9    diag,B
   16      0.418D-05      0.172D-05      -127.39897304    210.330631    0.00000    0.00000   -1.55631    0    orth

 Final alpha occupancy:   5   2   2   1
 Final beta  occupancy:   4   2   2   1

 !RHF STATE 1.1 Energy               -127.398973035801
 Nuclear energy                         5.67313270
 One-electron energy                 -238.23742104
 Two-electron energy                  105.16531530
 Virial quotient                       -2.62361629
 !RHF STATE 1.1 Dipole moment           0.00000000     0.00000000    -1.55630978
 Dipole moment /Debye                   0.00000000     0.00000000    -3.95548581

 Orbital energies:

         1.1          2.1          3.1          4.1          5.1          6.1          7.1
     -3.960535    -2.539703    -0.431203    -0.404294    -0.410000     0.000358     0.031324

         1.2          2.2          3.2          4.2
     -2.536444    -0.454264     0.023567     0.080198

         1.3          2.3          3.3          4.3
     -2.536444    -0.454264     0.023567     0.080198

         1.4          2.4          3.4
     -0.431203     0.097428     0.324766

 HOMO      5.1    -0.410000 =     -11.1567eV
 LUMO      6.1     0.000358 =       0.0097eV
 LUMO-HOMO         0.410358 =      11.1664eV


 **********************************************************************************************************************************
 DATASETS  * FILE   NREC   LENGTH (MB)   RECORD NAMES
              1      19       20.87       500      610      700      900      950      970     1000      129      960     1100   
                                          VAR    BASINP    GEOM    SYMINP    ZMAT    AOBASIS   BASIS     P2S    ABASIS      S 
                                         1400     1410     1420     1200     1210     1080     1600     1650     1700   
                                           T        V       ECP      H0       H01     AOSYM     SMH    MOLCAS    OPER   

              2       4        3.40       700     1000      520     2100   
                                         GEOM     BASIS   MCVARS     RHF  

 PROGRAMS   *        TOTAL       RHF       INT
 CPU TIMES  *        37.46     14.08     23.01
 REAL TIME  *        39.61 SEC
 DISK USED  *         2.07 GB      
 SF USED    *         0.09 MB      
 GA USED    *         0.00 MB       (max)       0.00 MB       (current)
 **********************************************************************************************************************************
 SETTING SCF(1)         =      -127.39897304  AU                              
 SETTING _CC_NORM_MAX   =         2.00000000                                  


 PROGRAM * CCSD (Restricted open-shell coupled cluster)     Authors: C. Hampel, H.-J. Werner, 1991, M. Deegan, P.J. Knowles, 1992


 Convergence thresholds:  THRVAR = 1.00D-08  THRDEN = 1.00D-06

 CCSD(T)     terms to be evaluated (factor= 1.000)


 Number of closed-shell orbitals:   9 (   4   2   2   1 )
 Number of active  orbitals:        1 (   1   0   0   0 )
 Number of external orbitals:     253 ( 111  57  57  28 )

 Memory could be reduced to 77.45 Mwords without degradation in triples

 Number of N-1 electron functions:              19
 Number of N-2 electron functions:             171
 Number of singly external CSFs:              1520
 Number of doubly external CSFs:           2149669
 Total number of CSFs:                     2151189

 Molecular orbitals read from record     2100.2  Type=RHF/CANONICAL (state 1.1)

 Integral transformation finished. Total CPU:   2.65 sec, npass=  1  Memory used:   6.84 MW

 Starting RMP2 calculation

 Wavefunction is spin-projected

 ITER.      SQ.NORM     CORR.ENERGY   TOTAL ENERGY   ENERGY CHANGE        DEN1      VAR(S)    VAR(P)  DIIS     TIME
   1      1.14779486    -0.77641228  -128.17538531    -0.77641228    -0.00137238  0.15D-04  0.56D-03  1  1     3.57
   2      1.14919688    -0.77787510  -128.17684813    -0.00146282    -0.00000887  0.83D-06  0.55D-05  2  2     4.34
   3      1.14932175    -0.77794286  -128.17691589    -0.00006776    -0.00000009  0.27D-07  0.58D-07  3  3     5.07
   4      1.14932774    -0.77794415  -128.17691718    -0.00000129    -0.00000000  0.55D-09  0.66D-09  4  4     5.96
   5      1.14932791    -0.77794416  -128.17691719    -0.00000001    -0.00000000  0.12D-10  0.91D-11  5  5     6.32

 Norm of t1 vector:      0.02958104      S-energy:    -0.00255351      T1 diagnostic:  0.00076009
 Norm of t2 vector:      0.38529582      P-energy:    -0.77539065
                                         Alpha-Beta:  -0.54133384
                                         Alpha-Alpha: -0.12784169
                                         Beta-Beta:   -0.10621512

 Spin contamination <S**2-Sz**2-Sz>     0.00000000
  Reference energy                   -127.398973035801
  RHF-RMP2 correlation energy          -0.777944158467
 !RHF-RMP2 energy                    -128.176917194268
 (NB above energy spin projected)

 Starting RCCSD calculation

 ITER.      SQ.NORM     CORR.ENERGY   TOTAL ENERGY   ENERGY CHANGE        DEN1      VAR(S)    VAR(P)  DIIS     TIME
   1      1.13153369    -0.72959202  -128.12856506    -0.72959202    -0.01961525  0.61D-02  0.33D-02  1  1     9.18
   2      1.14657110    -0.74611194  -128.14508498    -0.01651992    -0.00205976  0.87D-03  0.61D-03  2  2    11.83
   3      1.15908849    -0.74868532  -128.14765835    -0.00257338    -0.00066191  0.75D-03  0.73D-04  3  3    14.32
   4      1.17234026    -0.75079052  -128.14976356    -0.00210521    -0.00024617  0.26D-03  0.35D-04  4  4    16.80
   5      1.18847683    -0.75235414  -128.15132717    -0.00156361    -0.00006498  0.63D-04  0.12D-04  5  5    19.34
   6      1.19719755    -0.75286473  -128.15183777    -0.00051059    -0.00001634  0.17D-04  0.29D-05  6  6    22.06
   7      1.20286694    -0.75318952  -128.15216255    -0.00032479    -0.00000418  0.39D-05  0.83D-06  6  2    24.65
   8      1.20315612    -0.75316772  -128.15214076     0.00002180    -0.00000074  0.56D-06  0.18D-06  6  1    27.44
   9      1.20395241    -0.75320771  -128.15218074    -0.00003999    -0.00000013  0.10D-06  0.31D-07  6  4    30.13
  10      1.20388723    -0.75320260  -128.15217563     0.00000511    -0.00000002  0.20D-07  0.51D-08  6  3    32.92
  11      1.20391529    -0.75320356  -128.15217660    -0.00000096    -0.00000001  0.70D-08  0.12D-08  6  5    35.59

 Norm of t1 vector:      0.23210712      S-energy:    -0.00263627      T1 diagnostic:  0.03713511
                                                                       D1 diagnostic:  0.11561918
 Norm of t2 vector:      0.38735200      P-energy:    -0.75056729
                                         Alpha-Beta:  -0.54411901
                                         Alpha-Alpha: -0.11197020
                                         Beta-Beta:   -0.09447808

 Singles amplitudes (print threshold =  0.500E-01):

         I         SYM. A    A   T(IA) [Alpha-Alpha]

         5         1         2      0.06868557
         5         1         4      0.06329859
 
         I         SYM. A    A   T(IA) [Beta-Beta]

         4         1         1     -0.16347152

 Spin contamination <S**2-Sz**2-Sz>     0.00000000

 Memory could be reduced to 80.80 Mwords without degradation in triples
 

  Correlated core orbitals:             1.1       2.1       1.2       1.3
  Orbital energies:                    -3.9885   -2.6022   -2.5559   -2.5559
 
  RCCSD core-core energy               -0.119801879501
  RCCSD core-valence energy            -0.263670172674
  RCCSD valence correlation energy     -0.369731509294
 

 RESULTS
 =======

  Reference energy                   -127.398973035801
  RCCSD singles energy                 -0.002636268409
  RCCSD pair energy                    -0.750567293060
  RCCSD correlation energy             -0.753203561469
  Triples (T) contribution             -0.030272929121
  Total correlation energy             -0.783476490590
 
  RHF-RCCSD energy                   -128.152176597270
  RHF-RCCSD[T] energy                -128.184914025455
  RHF-RCCSD-T energy                 -128.182270000441
 !RHF-RCCSD(T) energy                -128.182449526392

 Program statistics:

 Available memory in ccsd:               511999000
 Min. memory needed in ccsd:               6371840
 Max. memory used in ccsd:                 8994336
 Max. memory used in cckext:               7244967 (11 integral passes)
 Max. memory used in cckint:               6842122 ( 1 integral passes)



 **********************************************************************************************************************************
 DATASETS  * FILE   NREC   LENGTH (MB)   RECORD NAMES
              1      19       20.87       500      610      700      900      950      970     1000      129      960     1100   
                                          VAR    BASINP    GEOM    SYMINP    ZMAT    AOBASIS   BASIS     P2S    ABASIS      S 
                                         1400     1410     1420     1200     1210     1080     1600     1650     1700   
                                           T        V       ECP      H0       H01     AOSYM     SMH    MOLCAS    OPER   

              2       4        3.40       700     1000      520     2100   
                                         GEOM     BASIS   MCVARS     RHF  

 PROGRAMS   *        TOTAL  RCCSD(T)       RHF       INT
 CPU TIMES  *        95.41     57.90     14.08     23.01
 REAL TIME  *       118.39 SEC
 DISK USED  *         8.21 GB      
 SF USED    *         1.24 GB      
 GA USED    *         0.00 MB       (max)       0.00 MB       (current)
 **********************************************************************************************************************************
 SETTING CCSD(1)        =      -128.18244953  AU                              

 DO I                   =         2.00000000   
 SETTING Z(2)           =         1.62900000                                  

Geometry recognized as XYZ



 Recomputing integrals since geometry changed


 PROGRAM * SEWARD (Integral evaluation for generally contracted gaussian basis sets)     Author: Roland Lindh, 1990

 Geometry written to block  1 of record 700


 Point group  C2v 



 ATOMIC COORDINATES

 NR  ATOM    CHARGE       X              Y              Z

   1  PD     18.00    0.000000000    0.000000000    0.000000000
   2  H       1.00    0.000000000    0.000000000    3.078363857

 Bond lengths in Bohr (Angstrom)

 1-2  3.078363857
     ( 1.629000000)

 NUCLEAR CHARGE:                   19
 NUMBER OF PRIMITIVE AOS:         312
 NUMBER OF SYMMETRY AOS:          263
 NUMBER OF CONTRACTIONS:          263   ( 116A1  +  59B1  +  59B2  +  29A2  )
 NUMBER OF CORE ORBITALS:           4   (   2A1  +   1B1  +   1B2  +   0A2  )
 NUMBER OF VALENCE ORBITALS:        7   (   4A1  +   1B1  +   1B2  +   1A2  )


 NUCLEAR REPULSION ENERGY    5.84726200

 EXTRA SYMMETRY OF AOS IN SYMMETRY 1:   1 1 1 1 1 1 1 1 1 1   1 1 1 1 1 1 1 1 1 1   1 1 1 1 1 1 1 1 1 1   1 1 1 1 1 1 1 1 1 1
                                        1 1 1 1 1 1 1 1 1 1   1 1 1 2 1 2 1 2 1 2   1 2 1 2 1 2 1 2 1 2   1 2 1 2 1 2 1 2 1 2
                                        1 2 1 2 1 2 1 2 1 2   1 2 1 2 1 3 2 1 3 2   1 3 2 1 1 1 1 1 1 1   1 1 1 2 1 2
 EXTRA SYMMETRY OF AOS IN SYMMETRY 2:   1 1 1 1 1 1 1 1 1 1   1 1 1 1 1 1 1 1 1 1   1 1 1 1 1 1 1 1 1 1   1 1 1 1 1 1 1 1 1 1
                                        1 2 1 2 1 2 1 2 1 2   1 2 1 2 1 1 1 1 1
 EXTRA SYMMETRY OF AOS IN SYMMETRY 3:   1 1 1 1 1 1 1 1 1 1   1 1 1 1 1 1 1 1 1 1   1 1 1 1 1 1 1 1 1 1   1 1 1 1 1 1 1 1 1 1
                                        1 2 1 2 1 2 1 2 1 2   1 2 1 2 1 1 1 1 1
 EXTRA SYMMETRY OF AOS IN SYMMETRY 4:   1 1 1 1 1 1 1 1 1 1   1 1 1 1 1 1 1 1 1 1   1 1 2 1 2 1 2 1 1

 Eigenvalues of metric

         1 0.939E-06 0.194E-05 0.901E-05 0.951E-05 0.280E-04 0.119E-03 0.225E-03 0.272E-03
         2 0.982E-06 0.946E-05 0.304E-03 0.471E-03 0.163E-02 0.301E-02 0.405E-02 0.935E-02
         3 0.982E-06 0.946E-05 0.304E-03 0.471E-03 0.163E-02 0.301E-02 0.405E-02 0.935E-02
         4 0.951E-05 0.307E-03 0.302E-02 0.107E-01 0.287E-01 0.530E-01 0.873E-01 0.105E+00


 Contracted 2-electron integrals neglected if value below      1.0D-13
 AO integral compression algorithm  1   Integral accuracy      1.0D-13

     588.513 MB (compressed) written to integral file ( 42.9%)

     Node minimum: 2.621 MB, node maximum: 63.701 MB


 NUMBER OF SORTED TWO-ELECTRON INTEGRALS:    6738189.     BUFFER LENGTH:  32768
 NUMBER OF SEGMENTS:   1  SEGMENT LENGTH:    6738189      RECORD LENGTH: 524288

 Memory used in sort:       7.30 MW

 SORT1 READ   171363336. AND WROTE     2857933. INTEGRALS IN      9 RECORDS. CPU TIME:     2.54 SEC, REAL TIME:     4.09 SEC
 SORT2 READ    67105292. AND WROTE   156329493. INTEGRALS IN   1656 RECORDS. CPU TIME:     0.37 SEC, REAL TIME:     0.64 SEC

 Node minimum:     6738189.  Node maximum:     6815662. integrals

 OPERATOR DM      FOR CENTER  0  COORDINATES:    0.000000    0.000000    0.000000


 **********************************************************************************************************************************
 DATASETS  * FILE   NREC   LENGTH (MB)   RECORD NAMES
              1      19       20.83       500      610      700      900      950      970     1000      129      960     1100   
                                          VAR    BASINP    GEOM    SYMINP    ZMAT    AOBASIS   BASIS     P2S    ABASIS      S 
                                         1400     1410     1420     1200     1210     1080     1600     1650     1700   
                                           T        V       ECP      H0       H01     AOSYM     SMH    MOLCAS    OPER   

              2       4        3.40       700     1000      520     2100   
                                         GEOM     BASIS   MCVARS     RHF  

 PROGRAMS   *        TOTAL       INT  RCCSD(T)       RHF       INT
 CPU TIMES  *       114.09     18.68     57.90     14.08     23.01
 REAL TIME  *       140.34 SEC
 DISK USED  *         8.35 GB      
 SF USED    *         1.24 GB      
 GA USED    *         0.00 MB       (max)       0.00 MB       (current)
 **********************************************************************************************************************************


 PROGRAM * RHF-SCF (OPEN SHELL)       Authors: W. Meyer, H.-J. Werner


 NUMBER OF ELECTRONS:      10+    9-    SPACE SYMMETRY=1    SPIN SYMMETRY: Doublet 
 CONVERGENCE THRESHOLDS:    1.00E-05 (Density)    1.00E-07 (Energy)
 MAX. NUMBER OF ITERATIONS:       60
 INTERPOLATION TYPE:            DIIS
 INTERPOLATION STEPS:              2 (START)      1 (STEP)
 LEVEL SHIFTS:                 -0.60 (CLOSED) -0.30 (OPEN) 

 Number of closed-shell orbitals:    9 (   4   2   2   1 )
 Number of open-shell orbitals:      1 (   1   0   0   0 )


 Molecular orbitals read from record     2100.2  Type=RHF/CANONICAL (state 1.1)

 Molecular orbital dump at record        2100.2

 ITERATION    DDIFF          GRAD             ENERGY        2-EL.EN.            DIPOLE MOMENTS         DIIS   ORB.
    1      0.000D+00      0.000D+00      -127.39905451    210.675157    0.00000    0.00000   -1.52345    0    start
    2      0.000D+00      0.200D-02      -127.39927950    210.681735    0.00000    0.00000   -1.52594    1    diag,B
    3      0.184D-03      0.134D-03      -127.39933015    210.698545    0.00000    0.00000   -1.51960    2    diag,B
    4      0.521D-04      0.806D-04      -127.39937503    210.713126    0.00000    0.00000   -1.51161    3    diag,B
    5      0.505D-04      0.533D-04      -127.39941129    210.734534    0.00000    0.00000   -1.50054    4    diag,B
    6      0.483D-04      0.352D-04      -127.39943253    210.752486    0.00000    0.00000   -1.48898    5    diag,B
    7      0.494D-04      0.152D-04      -127.39943578    210.761211    0.00000    0.00000   -1.48483    6    diag,B
    8      0.201D-04      0.671D-05      -127.39943607    210.761887    0.00000    0.00000   -1.48435    7    orth
    9      0.759D-05      0.326D-05      -127.39943613    210.762381    0.00000    0.00000   -1.48468    8    diag,B
   10      0.592D-05      0.152D-05      -127.39943614    210.762474    0.00000    0.00000   -1.48474    0    orth

 Final alpha occupancy:   5   2   2   1
 Final beta  occupancy:   4   2   2   1

 !RHF STATE 1.1 Energy               -127.399436136735
 Nuclear energy                         5.84726200
 One-electron energy                 -238.62793489
 Two-electron energy                  105.38123675
 Virial quotient                       -2.62269562
 !RHF STATE 1.1 Dipole moment           0.00000000     0.00000000    -1.48473702
 Dipole moment /Debye                   0.00000000     0.00000000    -3.77357792

 Orbital energies:

         1.1          2.1          3.1          4.1          5.1          6.1          7.1
     -3.957320    -2.537219    -0.427882    -0.415945    -0.395945     0.001845     0.030912

         1.2          2.2          3.2          4.2
     -2.533021    -0.451245     0.023721     0.080441

         1.3          2.3          3.3          4.3
     -2.533021    -0.451245     0.023721     0.080441

         1.4          2.4          3.4
     -0.427882     0.097677     0.325560

 HOMO      5.1    -0.395945 =     -10.7742eV
 LUMO      6.1     0.001845 =       0.0502eV
 LUMO-HOMO         0.397790 =      10.8244eV


 **********************************************************************************************************************************
 DATASETS  * FILE   NREC   LENGTH (MB)   RECORD NAMES
              1      19       20.87       500      610      700      900      950      970     1000      129      960     1100   
                                          VAR    BASINP    GEOM    SYMINP    ZMAT    AOBASIS   BASIS     P2S    ABASIS      S 
                                         1400     1410     1420     1200     1210     1080     1600     1650     1700   
                                           T        V       ECP      H0       H01     AOSYM     SMH    MOLCAS    OPER   

              2       4        3.40       700     1000      520     2100   
                                         GEOM     BASIS   MCVARS     RHF  

 PROGRAMS   *        TOTAL       RHF       INT  RCCSD(T)       RHF       INT
 CPU TIMES  *       114.60      0.51     18.68     57.90     14.08     23.01
 REAL TIME  *       140.97 SEC
 DISK USED  *         8.35 GB      
 SF USED    *         1.24 GB      
 GA USED    *         0.00 MB       (max)       0.00 MB       (current)
 **********************************************************************************************************************************
 SETTING SCF(2)         =      -127.39943614  AU                              
 SETTING _CC_NORM_MAX   =         2.00000000                                  


 PROGRAM * CCSD (Restricted open-shell coupled cluster)     Authors: C. Hampel, H.-J. Werner, 1991, M. Deegan, P.J. Knowles, 1992


 Convergence thresholds:  THRVAR = 1.00D-08  THRDEN = 1.00D-06

 CCSD(T)     terms to be evaluated (factor= 1.000)


 Number of closed-shell orbitals:   9 (   4   2   2   1 )
 Number of active  orbitals:        1 (   1   0   0   0 )
 Number of external orbitals:     253 ( 111  57  57  28 )

 Memory could be reduced to 80.26 Mwords without degradation in triples

 Number of N-1 electron functions:              19
 Number of N-2 electron functions:             171
 Number of singly external CSFs:              1520
 Number of doubly external CSFs:           2149669
 Total number of CSFs:                     2151189

 Molecular orbitals read from record     2100.2  Type=RHF/CANONICAL (state 1.1)

 Integral transformation finished. Total CPU:   2.23 sec, npass=  1  Memory used:   6.84 MW

 Starting RMP2 calculation

 Wavefunction is spin-projected

 ITER.      SQ.NORM     CORR.ENERGY   TOTAL ENERGY   ENERGY CHANGE        DEN1      VAR(S)    VAR(P)  DIIS     TIME
   1      1.14922277    -0.78079962  -128.18023576    -0.78079962    -0.00137056  0.16D-04  0.55D-03  1  1     3.78
   2      1.15060908    -0.78225977  -128.18169591    -0.00146015    -0.00000840  0.85D-06  0.51D-05  2  2     4.97
   3      1.15072825    -0.78232506  -128.18176120    -0.00006530    -0.00000009  0.27D-07  0.50D-07  3  3     6.33
   4      1.15073376    -0.78232624  -128.18176238    -0.00000118    -0.00000000  0.54D-09  0.56D-09  4  4     7.82
   5      1.15073392    -0.78232625  -128.18176239    -0.00000001    -0.00000000  0.11D-10  0.74D-11  5  5     9.31

 Norm of t1 vector:      0.02995148      S-energy:    -0.00249521      T1 diagnostic:  0.00077086
 Norm of t2 vector:      0.38708762      P-energy:    -0.77983105
                                         Alpha-Beta:  -0.54384142
                                         Alpha-Alpha: -0.12864191
                                         Beta-Beta:   -0.10734772

 Spin contamination <S**2-Sz**2-Sz>     0.00000000
  Reference energy                   -127.399436136735
  RHF-RMP2 correlation energy          -0.782326254495
 !RHF-RMP2 energy                    -128.181762391230
 (NB above energy spin projected)

 Starting RCCSD calculation

 ITER.      SQ.NORM     CORR.ENERGY   TOTAL ENERGY   ENERGY CHANGE        DEN1      VAR(S)    VAR(P)  DIIS     TIME
   1      1.13157152    -0.73207272  -128.13150885    -0.73207272    -0.01992613  0.60D-02  0.34D-02  1  1    12.72
   2      1.14636784    -0.74881676  -128.14825290    -0.01674404    -0.00200202  0.84D-03  0.58D-03  2  2    15.94
   3      1.15816865    -0.75125184  -128.15068798    -0.00243508    -0.00062786  0.70D-03  0.67D-04  3  3    19.30
   4      1.17064712    -0.75326975  -128.15270589    -0.00201791    -0.00022721  0.24D-03  0.31D-04  4  4    22.14
   5      1.18531168    -0.75472353  -128.15415967    -0.00145378    -0.00005926  0.58D-04  0.10D-04  5  5    24.33
   6      1.19285812    -0.75516625  -128.15460238    -0.00044272    -0.00001514  0.16D-04  0.25D-05  6  6    27.15
   7      1.19802441    -0.75546967  -128.15490580    -0.00030342    -0.00000378  0.37D-05  0.67D-06  6  2    29.68
   8      1.19835187    -0.75545087  -128.15488701     0.00001879    -0.00000066  0.50D-06  0.15D-06  6  1    32.23
   9      1.19898948    -0.75548169  -128.15491783    -0.00003082    -0.00000012  0.11D-06  0.27D-07  6  4    35.19
  10      1.19896725    -0.75547828  -128.15491441     0.00000341    -0.00000003  0.28D-07  0.54D-08  6  3    38.27
  11      1.19898745    -0.75547840  -128.15491453    -0.00000012    -0.00000001  0.11D-07  0.16D-08  6  5    41.25
  12      1.19895651    -0.75547371  -128.15490985     0.00000469    -0.00000000  0.28D-08  0.44D-09  6  1    44.18
  13      1.19895304    -0.75547287  -128.15490901     0.00000084    -0.00000000  0.79D-09  0.19D-09  6  6    46.68

 Norm of t1 vector:      0.22384806      S-energy:    -0.00254027      T1 diagnostic:  0.03581285
                                                                       D1 diagnostic:  0.10798268
 Norm of t2 vector:      0.38580447      P-energy:    -0.75293260
                                         Alpha-Beta:  -0.54543712
                                         Alpha-Alpha: -0.11240253
                                         Beta-Beta:   -0.09509295

 Singles amplitudes (print threshold =  0.500E-01):

         I         SYM. A    A   T(IA) [Alpha-Alpha]

         5         1         2      0.06874187
         5         1         4      0.06614018
 
         I         SYM. A    A   T(IA) [Beta-Beta]

         4         1         1     -0.15265775

 Spin contamination <S**2-Sz**2-Sz>     0.00000000

 Memory could be reduced to 80.80 Mwords without degradation in triples
 

  Correlated core orbitals:             1.1       2.1       1.2       1.3
  Orbital energies:                    -3.9842   -2.5970   -2.5516   -2.5516
 
  RCCSD core-core energy               -0.119642291807
  RCCSD core-valence energy            -0.263852325953
  RCCSD valence correlation energy     -0.371978254724
 

 RESULTS
 =======

  Reference energy                   -127.399436136735
  RCCSD singles energy                 -0.002540269347
  RCCSD pair energy                    -0.752932603137
  RCCSD correlation energy             -0.755472872484
  Triples (T) contribution             -0.030507968434
  Total correlation energy             -0.785980840918
 
  RHF-RCCSD energy                   -128.154909009219
  RHF-RCCSD[T] energy                -128.187778489620
  RHF-RCCSD-T energy                 -128.185235964971
 !RHF-RCCSD(T) energy                -128.185416977653

 Program statistics:

 Available memory in ccsd:               511999000
 Min. memory needed in ccsd:               6371840
 Max. memory used in ccsd:                 8994336
 Max. memory used in cckext:               7244967 (13 integral passes)
 Max. memory used in cckint:               6842122 ( 1 integral passes)



 **********************************************************************************************************************************
 DATASETS  * FILE   NREC   LENGTH (MB)   RECORD NAMES
              1      19       20.87       500      610      700      900      950      970     1000      129      960     1100   
                                          VAR    BASINP    GEOM    SYMINP    ZMAT    AOBASIS   BASIS     P2S    ABASIS      S 
                                         1400     1410     1420     1200     1210     1080     1600     1650     1700   
                                           T        V       ECP      H0       H01     AOSYM     SMH    MOLCAS    OPER   

              2       4        3.40       700     1000      520     2100   
                                         GEOM     BASIS   MCVARS     RHF  

 PROGRAMS   *        TOTAL  RCCSD(T)       RHF       INT  RCCSD(T)       RHF       INT
 CPU TIMES  *       184.46     69.82      0.51     18.68     57.90     14.08     23.01
 REAL TIME  *       241.34 SEC
 DISK USED  *         8.35 GB      
 SF USED    *         1.24 GB      
 GA USED    *         0.00 MB       (max)       0.00 MB       (current)
 **********************************************************************************************************************************
 SETTING CCSD(2)        =      -128.18541698  AU                              

 DO I                   =         3.00000000   
 SETTING Z(3)           =         1.57900000                                  

Geometry recognized as XYZ



 Recomputing integrals since geometry changed


 PROGRAM * SEWARD (Integral evaluation for generally contracted gaussian basis sets)     Author: Roland Lindh, 1990

 Geometry written to block  1 of record 700


 Point group  C2v 



 ATOMIC COORDINATES

 NR  ATOM    CHARGE       X              Y              Z

   1  PD     18.00    0.000000000    0.000000000    0.000000000
   2  H       1.00    0.000000000    0.000000000    2.983877551

 Bond lengths in Bohr (Angstrom)

 1-2  2.983877551
     ( 1.579000000)

 NUCLEAR CHARGE:                   19
 NUMBER OF PRIMITIVE AOS:         312
 NUMBER OF SYMMETRY AOS:          263
 NUMBER OF CONTRACTIONS:          263   ( 116A1  +  59B1  +  59B2  +  29A2  )
 NUMBER OF CORE ORBITALS:           4   (   2A1  +   1B1  +   1B2  +   0A2  )
 NUMBER OF VALENCE ORBITALS:        7   (   4A1  +   1B1  +   1B2  +   1A2  )


 NUCLEAR REPULSION ENERGY    6.03241912

 EXTRA SYMMETRY OF AOS IN SYMMETRY 1:   1 1 1 1 1 1 1 1 1 1   1 1 1 1 1 1 1 1 1 1   1 1 1 1 1 1 1 1 1 1   1 1 1 1 1 1 1 1 1 1
                                        1 1 1 1 1 1 1 1 1 1   1 1 1 2 1 2 1 2 1 2   1 2 1 2 1 2 1 2 1 2   1 2 1 2 1 2 1 2 1 2
                                        1 2 1 2 1 2 1 2 1 2   1 2 1 2 1 3 2 1 3 2   1 3 2 1 1 1 1 1 1 1   1 1 1 2 1 2
 EXTRA SYMMETRY OF AOS IN SYMMETRY 2:   1 1 1 1 1 1 1 1 1 1   1 1 1 1 1 1 1 1 1 1   1 1 1 1 1 1 1 1 1 1   1 1 1 1 1 1 1 1 1 1
                                        1 2 1 2 1 2 1 2 1 2   1 2 1 2 1 1 1 1 1
 EXTRA SYMMETRY OF AOS IN SYMMETRY 3:   1 1 1 1 1 1 1 1 1 1   1 1 1 1 1 1 1 1 1 1   1 1 1 1 1 1 1 1 1 1   1 1 1 1 1 1 1 1 1 1
                                        1 2 1 2 1 2 1 2 1 2   1 2 1 2 1 1 1 1 1
 EXTRA SYMMETRY OF AOS IN SYMMETRY 4:   1 1 1 1 1 1 1 1 1 1   1 1 1 1 1 1 1 1 1 1   1 1 2 1 2 1 2 1 1

 Eigenvalues of metric

         1 0.930E-06 0.193E-05 0.898E-05 0.951E-05 0.277E-04 0.119E-03 0.188E-03 0.272E-03
         2 0.982E-06 0.947E-05 0.304E-03 0.471E-03 0.163E-02 0.301E-02 0.405E-02 0.931E-02
         3 0.982E-06 0.947E-05 0.304E-03 0.471E-03 0.163E-02 0.301E-02 0.405E-02 0.931E-02
         4 0.951E-05 0.307E-03 0.302E-02 0.107E-01 0.287E-01 0.530E-01 0.866E-01 0.105E+00


 Contracted 2-electron integrals neglected if value below      1.0D-13
 AO integral compression algorithm  1   Integral accuracy      1.0D-13

     590.873 MB (compressed) written to integral file ( 43.2%)

     Node minimum: 3.932 MB, node maximum: 63.701 MB


 NUMBER OF SORTED TWO-ELECTRON INTEGRALS:    6738189.     BUFFER LENGTH:  32768
 NUMBER OF SEGMENTS:   1  SEGMENT LENGTH:    6738189      RECORD LENGTH: 524288

 Memory used in sort:       7.30 MW

 SORT1 READ   171363336. AND WROTE     2867609. INTEGRALS IN      9 RECORDS. CPU TIME:     2.59 SEC, REAL TIME:     2.71 SEC
 SORT2 READ    67333241. AND WROTE   156329493. INTEGRALS IN   3059 RECORDS. CPU TIME:     0.65 SEC, REAL TIME:     0.80 SEC

 Node minimum:     6738189.  Node maximum:     6815662. integrals

 OPERATOR DM      FOR CENTER  0  COORDINATES:    0.000000    0.000000    0.000000


 **********************************************************************************************************************************
 DATASETS  * FILE   NREC   LENGTH (MB)   RECORD NAMES
              1      19       20.83       500      610      700      900      950      970     1000      129      960     1100   
                                          VAR    BASINP    GEOM    SYMINP    ZMAT    AOBASIS   BASIS     P2S    ABASIS      S 
                                         1400     1410     1420     1200     1210     1080     1600     1650     1700   
                                           T        V       ECP      H0       H01     AOSYM     SMH    MOLCAS    OPER   

              2       4        3.40       700     1000      520     2100   
                                         GEOM     BASIS   MCVARS     RHF  

 PROGRAMS   *        TOTAL       INT  RCCSD(T)       RHF       INT  RCCSD(T)       RHF       INT
 CPU TIMES  *       203.60     19.13     69.82      0.51     18.68     57.90     14.08     23.01
 REAL TIME  *       261.19 SEC
 DISK USED  *         8.52 GB      
 SF USED    *         1.24 GB      
 GA USED    *         0.00 MB       (max)       0.00 MB       (current)
 **********************************************************************************************************************************


 PROGRAM * RHF-SCF (OPEN SHELL)       Authors: W. Meyer, H.-J. Werner


 NUMBER OF ELECTRONS:      10+    9-    SPACE SYMMETRY=1    SPIN SYMMETRY: Doublet 
 CONVERGENCE THRESHOLDS:    1.00E-05 (Density)    1.00E-07 (Energy)
 MAX. NUMBER OF ITERATIONS:       60
 INTERPOLATION TYPE:            DIIS
 INTERPOLATION STEPS:              2 (START)      1 (STEP)
 LEVEL SHIFTS:                 -0.60 (CLOSED) -0.30 (OPEN) 

 Number of closed-shell orbitals:    9 (   4   2   2   1 )
 Number of open-shell orbitals:      1 (   1   0   0   0 )


 Molecular orbitals read from record     2100.2  Type=RHF/CANONICAL (state 1.1)

 Molecular orbital dump at record        2100.2

 ITERATION    DDIFF          GRAD             ENERGY        2-EL.EN.            DIPOLE MOMENTS         DIIS   ORB.
    1      0.000D+00      0.000D+00      -127.39854524    211.115316    0.00000    0.00000   -1.45314    0    start
    2      0.000D+00      0.220D-02      -127.39881123    211.124785    0.00000    0.00000   -1.45660    1    diag,B
    3      0.225D-03      0.144D-03      -127.39887049    211.141189    0.00000    0.00000   -1.44970    2    diag,B
    4      0.524D-04      0.871D-04      -127.39892298    211.156188    0.00000    0.00000   -1.44132    3    diag,B
    5      0.542D-04      0.588D-04      -127.39896801    211.177793    0.00000    0.00000   -1.42905    4    diag,B
    6      0.569D-04      0.393D-04      -127.39899595    211.198127    0.00000    0.00000   -1.41530    5    diag,B
    7      0.623D-04      0.164D-04      -127.39899979    211.207327    0.00000    0.00000   -1.41047    6    diag,B
    8      0.229D-04      0.702D-05      -127.39900010    211.207952    0.00000    0.00000   -1.40985    7    orth
    9      0.771D-05      0.343D-05      -127.39900016    211.208528    0.00000    0.00000   -1.41017    8    diag,B
   10      0.626D-05      0.161D-05      -127.39900017    211.208598    0.00000    0.00000   -1.41023    0    orth

 Final alpha occupancy:   5   2   2   1
 Final beta  occupancy:   4   2   2   1

 !RHF STATE 1.1 Energy               -127.399000167118
 Nuclear energy                         6.03241912
 One-electron energy                 -239.03571810
 Two-electron energy                  105.60429881
 Virial quotient                       -2.62159162
 !RHF STATE 1.1 Dipole moment           0.00000000     0.00000000    -1.41022919
 Dipole moment /Debye                   0.00000000     0.00000000    -3.58421031

 Orbital energies:

         1.1          2.1          3.1          4.1          5.1          6.1          7.1
     -3.954184    -2.535046    -0.428627    -0.424595    -0.380949     0.003349     0.030477

         1.2          2.2          3.2          4.2
     -2.529640    -0.448388     0.023853     0.080605

         1.3          2.3          3.3          4.3
     -2.529640    -0.448388     0.023853     0.080605

         1.4          2.4          3.4
     -0.424595     0.097921     0.326319

 HOMO      5.1    -0.380949 =     -10.3662eV
 LUMO      6.1     0.003349 =       0.0911eV
 LUMO-HOMO         0.384299 =      10.4573eV


 **********************************************************************************************************************************
 DATASETS  * FILE   NREC   LENGTH (MB)   RECORD NAMES
              1      19       20.87       500      610      700      900      950      970     1000      129      960     1100   
                                          VAR    BASINP    GEOM    SYMINP    ZMAT    AOBASIS   BASIS     P2S    ABASIS      S 
                                         1400     1410     1420     1200     1210     1080     1600     1650     1700   
                                           T        V       ECP      H0       H01     AOSYM     SMH    MOLCAS    OPER   

              2       4        3.40       700     1000      520     2100   
                                         GEOM     BASIS   MCVARS     RHF  

 PROGRAMS   *        TOTAL       RHF       INT  RCCSD(T)       RHF       INT  RCCSD(T)       RHF       INT
 CPU TIMES  *       204.15      0.55     19.13     69.82      0.51     18.68     57.90     14.08     23.01
 REAL TIME  *       261.88 SEC
 DISK USED  *         8.52 GB      
 SF USED    *         1.24 GB      
 GA USED    *         0.00 MB       (max)       0.00 MB       (current)
 **********************************************************************************************************************************
 SETTING SCF(3)         =      -127.39900017  AU                              
 SETTING _CC_NORM_MAX   =         2.00000000                                  


 PROGRAM * CCSD (Restricted open-shell coupled cluster)     Authors: C. Hampel, H.-J. Werner, 1991, M. Deegan, P.J. Knowles, 1992


 Convergence thresholds:  THRVAR = 1.00D-08  THRDEN = 1.00D-06

 CCSD(T)     terms to be evaluated (factor= 1.000)


 Number of closed-shell orbitals:   9 (   4   2   2   1 )
 Number of active  orbitals:        1 (   1   0   0   0 )
 Number of external orbitals:     253 ( 111  57  57  28 )

 Memory could be reduced to 80.26 Mwords without degradation in triples

 Number of N-1 electron functions:              19
 Number of N-2 electron functions:             171
 Number of singly external CSFs:              1520
 Number of doubly external CSFs:           2149669
 Total number of CSFs:                     2151189

 Molecular orbitals read from record     2100.2  Type=RHF/CANONICAL (state 1.1)

 Integral transformation finished. Total CPU:   2.09 sec, npass=  1  Memory used:   6.84 MW

 Starting RMP2 calculation

 Wavefunction is spin-projected

 ITER.      SQ.NORM     CORR.ENERGY   TOTAL ENERGY   ENERGY CHANGE        DEN1      VAR(S)    VAR(P)  DIIS     TIME
   1      1.15077249    -0.78549397  -128.18449414    -0.78549397    -0.00136636  0.16D-04  0.55D-03  1  1     4.37
   2      1.15213958    -0.78694852  -128.18594869    -0.00145455    -0.00000783  0.85D-06  0.47D-05  2  2     5.26
   3      1.15225234    -0.78701089  -128.18601106    -0.00006237    -0.00000008  0.27D-07  0.43D-07  3  3     6.14
   4      1.15225731    -0.78701193  -128.18601209    -0.00000104    -0.00000000  0.52D-09  0.45D-09  4  4     7.42
   5      1.15225745    -0.78701194  -128.18601211    -0.00000002    -0.00000000  0.11D-10  0.56D-11  5  5     8.15

 Norm of t1 vector:      0.03018859      S-energy:    -0.00241610      T1 diagnostic:  0.00077090
 Norm of t2 vector:      0.38903226      P-energy:    -0.78459585
                                         Alpha-Beta:  -0.54653940
                                         Alpha-Alpha: -0.12950609
                                         Beta-Beta:   -0.10855036

 Spin contamination <S**2-Sz**2-Sz>     0.00000000
  Reference energy                   -127.399000167118
  RHF-RMP2 correlation energy          -0.787011944124
 !RHF-RMP2 energy                    -128.186012111242
 (NB above energy spin projected)

 Starting RCCSD calculation

 ITER.      SQ.NORM     CORR.ENERGY   TOTAL ENERGY   ENERGY CHANGE        DEN1      VAR(S)    VAR(P)  DIIS     TIME
   1      1.13157121    -0.73471431  -128.13371447    -0.73471431    -0.02021264  0.58D-02  0.35D-02  1  1    11.14
   2      1.14606140    -0.75167466  -128.15067482    -0.01696035    -0.00192742  0.79D-03  0.55D-03  2  2    14.08
   3      1.15698489    -0.75394270  -128.15294287    -0.00226805    -0.00058525  0.65D-03  0.62D-04  3  3    16.84
   4      1.16839926    -0.75583436  -128.15483453    -0.00189166    -0.00020629  0.22D-03  0.27D-04  4  4    19.80
   5      1.18138735    -0.75716042  -128.15616059    -0.00132606    -0.00005321  0.53D-04  0.89D-05  5  5    22.77
   6      1.18781953    -0.75753788  -128.15653805    -0.00037746    -0.00001379  0.15D-04  0.21D-05  6  6    25.38
   7      1.19239988    -0.75781190  -128.15681207    -0.00027402    -0.00000336  0.34D-05  0.54D-06  6  2    28.17
   8      1.19276770    -0.75779703  -128.15679719     0.00001488    -0.00000059  0.46D-06  0.13D-06  6  1    31.15
   9      1.19327192    -0.75781982  -128.15681999    -0.00002280    -0.00000012  0.11D-06  0.24D-07  6  4    33.25
  10      1.19328624    -0.75781799  -128.15681816     0.00000183    -0.00000003  0.34D-07  0.55D-08  6  3    36.09
  11      1.19330355    -0.75781773  -128.15681790     0.00000026    -0.00000001  0.13D-07  0.19D-08  6  5    39.50
  12      1.19328477    -0.75781354  -128.15681371     0.00000418    -0.00000000  0.27D-08  0.48D-09  6  1    42.38
  13      1.19328429    -0.75781287  -128.15681304     0.00000067    -0.00000000  0.63D-09  0.17D-09  6  6    44.89

 Norm of t1 vector:      0.21375085      S-energy:    -0.00242163      T1 diagnostic:  0.03419689
                                                                       D1 diagnostic:  0.09890992
 Norm of t2 vector:      0.38418076      P-energy:    -0.75539124
                                         Alpha-Beta:  -0.54681109
                                         Alpha-Alpha: -0.11286135
                                         Beta-Beta:   -0.09571881

 Singles amplitudes (print threshold =  0.500E-01):

         I         SYM. A    A   T(IA) [Alpha-Alpha]

         5         1         2      0.06777130
         5         1         4      0.06826881
         5         1         8      0.05114358
 
         I         SYM. A    A   T(IA) [Beta-Beta]

         3         1         1     -0.13980750

 Spin contamination <S**2-Sz**2-Sz>     0.00000000

 Memory could be reduced to 80.80 Mwords without degradation in triples
 

  Correlated core orbitals:             1.1       2.1       1.2       1.3
  Orbital energies:                    -3.9798   -2.5917   -2.5472   -2.5472
 
  RCCSD core-core energy               -0.119456075502
  RCCSD core-valence energy            -0.264028545373
  RCCSD valence correlation energy     -0.374328253030
 

 RESULTS
 =======

  Reference energy                   -127.399000167118
  RCCSD singles energy                 -0.002421631439
  RCCSD pair energy                    -0.755391242465
  RCCSD correlation energy             -0.757812873904
  Triples (T) contribution             -0.030758973588
  Total correlation energy             -0.788571847492
 
  RHF-RCCSD energy                   -128.156813041023
  RHF-RCCSD[T] energy                -128.189813419512
  RHF-RCCSD-T energy                 -128.187388528548
 !RHF-RCCSD(T) energy                -128.187572014611

 Program statistics:

 Available memory in ccsd:               511999000
 Min. memory needed in ccsd:               6371840
 Max. memory used in ccsd:                 8994336
 Max. memory used in cckext:               7244967 (13 integral passes)
 Max. memory used in cckint:               6842122 ( 1 integral passes)



 **********************************************************************************************************************************
 DATASETS  * FILE   NREC   LENGTH (MB)   RECORD NAMES
              1      19       20.87       500      610      700      900      950      970     1000      129      960     1100   
                                          VAR    BASINP    GEOM    SYMINP    ZMAT    AOBASIS   BASIS     P2S    ABASIS      S 
                                         1400     1410     1420     1200     1210     1080     1600     1650     1700   
                                           T        V       ECP      H0       H01     AOSYM     SMH    MOLCAS    OPER   

              2       4        3.40       700     1000      520     2100   
                                         GEOM     BASIS   MCVARS     RHF  

 PROGRAMS   *        TOTAL  RCCSD(T)       RHF       INT  RCCSD(T)       RHF       INT  RCCSD(T)       RHF       INT
 CPU TIMES  *       271.99     67.80      0.55     19.13     69.82      0.51     18.68     57.90     14.08     23.01
 REAL TIME  *       369.31 SEC
 DISK USED  *         8.52 GB      
 SF USED    *         1.24 GB      
 GA USED    *         0.00 MB       (max)       0.00 MB       (current)
 **********************************************************************************************************************************
 SETTING CCSD(3)        =      -128.18757201  AU                              

 DO I                   =         4.00000000   
 SETTING Z(4)           =         1.52900000                                  

Geometry recognized as XYZ



 Recomputing integrals since geometry changed


 PROGRAM * SEWARD (Integral evaluation for generally contracted gaussian basis sets)     Author: Roland Lindh, 1990

 Geometry written to block  1 of record 700


 Point group  C2v 



 ATOMIC COORDINATES

 NR  ATOM    CHARGE       X              Y              Z

   1  PD     18.00    0.000000000    0.000000000    0.000000000
   2  H       1.00    0.000000000    0.000000000    2.889391244

 Bond lengths in Bohr (Angstrom)

 1-2  2.889391244
     ( 1.529000000)

 NUCLEAR CHARGE:                   19
 NUMBER OF PRIMITIVE AOS:         312
 NUMBER OF SYMMETRY AOS:          263
 NUMBER OF CONTRACTIONS:          263   ( 116A1  +  59B1  +  59B2  +  29A2  )
 NUMBER OF CORE ORBITALS:           4   (   2A1  +   1B1  +   1B2  +   0A2  )
 NUMBER OF VALENCE ORBITALS:        7   (   4A1  +   1B1  +   1B2  +   1A2  )


 NUCLEAR REPULSION ENERGY    6.22968594

 EXTRA SYMMETRY OF AOS IN SYMMETRY 1:   1 1 1 1 1 1 1 1 1 1   1 1 1 1 1 1 1 1 1 1   1 1 1 1 1 1 1 1 1 1   1 1 1 1 1 1 1 1 1 1
                                        1 1 1 1 1 1 1 1 1 1   1 1 1 2 1 2 1 2 1 2   1 2 1 2 1 2 1 2 1 2   1 2 1 2 1 2 1 2 1 2
                                        1 2 1 2 1 2 1 2 1 2   1 2 1 2 1 3 2 1 3 2   1 3 2 1 1 1 1 1 1 1   1 1 1 2 1 2
 EXTRA SYMMETRY OF AOS IN SYMMETRY 2:   1 1 1 1 1 1 1 1 1 1   1 1 1 1 1 1 1 1 1 1   1 1 1 1 1 1 1 1 1 1   1 1 1 1 1 1 1 1 1 1
                                        1 2 1 2 1 2 1 2 1 2   1 2 1 2 1 1 1 1 1
 EXTRA SYMMETRY OF AOS IN SYMMETRY 3:   1 1 1 1 1 1 1 1 1 1   1 1 1 1 1 1 1 1 1 1   1 1 1 1 1 1 1 1 1 1   1 1 1 1 1 1 1 1 1 1
                                        1 2 1 2 1 2 1 2 1 2   1 2 1 2 1 1 1 1 1
 EXTRA SYMMETRY OF AOS IN SYMMETRY 4:   1 1 1 1 1 1 1 1 1 1   1 1 1 1 1 1 1 1 1 1   1 1 2 1 2 1 2 1 1

 Eigenvalues of metric

         1 0.922E-06 0.192E-05 0.893E-05 0.951E-05 0.273E-04 0.118E-03 0.157E-03 0.271E-03
         2 0.982E-06 0.947E-05 0.304E-03 0.471E-03 0.163E-02 0.301E-02 0.405E-02 0.926E-02
         3 0.982E-06 0.947E-05 0.304E-03 0.471E-03 0.163E-02 0.301E-02 0.405E-02 0.926E-02
         4 0.951E-05 0.307E-03 0.302E-02 0.107E-01 0.287E-01 0.529E-01 0.858E-01 0.105E+00


 Contracted 2-electron integrals neglected if value below      1.0D-13
 AO integral compression algorithm  1   Integral accuracy      1.0D-13

     594.018 MB (compressed) written to integral file ( 43.3%)

     Node minimum: 5.505 MB, node maximum: 63.701 MB


 NUMBER OF SORTED TWO-ELECTRON INTEGRALS:    6738189.     BUFFER LENGTH:  32768
 NUMBER OF SEGMENTS:   1  SEGMENT LENGTH:    6738189      RECORD LENGTH: 524288

 Memory used in sort:       7.30 MW

 SORT1 READ   171363336. AND WROTE     2877006. INTEGRALS IN      9 RECORDS. CPU TIME:     2.57 SEC, REAL TIME:     2.65 SEC
 SORT2 READ    67544471. AND WROTE   156329493. INTEGRALS IN   2254 RECORDS. CPU TIME:     0.43 SEC, REAL TIME:     0.61 SEC

 Node minimum:     6738189.  Node maximum:     6815662. integrals

 OPERATOR DM      FOR CENTER  0  COORDINATES:    0.000000    0.000000    0.000000


 **********************************************************************************************************************************
 DATASETS  * FILE   NREC   LENGTH (MB)   RECORD NAMES
              1      19       20.83       500      610      700      900      950      970     1000      129      960     1100   
                                          VAR    BASINP    GEOM    SYMINP    ZMAT    AOBASIS   BASIS     P2S    ABASIS      S 
                                         1400     1410     1420     1200     1210     1080     1600     1650     1700   
                                           T        V       ECP      H0       H01     AOSYM     SMH    MOLCAS    OPER   

              2       4        3.40       700     1000      520     2100   
                                         GEOM     BASIS   MCVARS     RHF  

 PROGRAMS   *        TOTAL       INT  RCCSD(T)       RHF       INT  RCCSD(T)       RHF       INT  RCCSD(T)       RHF       INT
 CPU TIMES  *       291.95     19.96     67.80      0.55     19.13     69.82      0.51     18.68     57.90     14.08     23.01
 REAL TIME  *       389.85 SEC
 DISK USED  *         8.54 GB      
 SF USED    *         1.24 GB      
 GA USED    *         0.00 MB       (max)       0.00 MB       (current)
 **********************************************************************************************************************************


 PROGRAM * RHF-SCF (OPEN SHELL)       Authors: W. Meyer, H.-J. Werner


 NUMBER OF ELECTRONS:      10+    9-    SPACE SYMMETRY=1    SPIN SYMMETRY: Doublet 
 CONVERGENCE THRESHOLDS:    1.00E-05 (Density)    1.00E-07 (Energy)
 MAX. NUMBER OF ITERATIONS:       60
 INTERPOLATION TYPE:            DIIS
 INTERPOLATION STEPS:              2 (START)      1 (STEP)
 LEVEL SHIFTS:                 -0.60 (CLOSED) -0.30 (OPEN) 

 Number of closed-shell orbitals:    9 (   4   2   2   1 )
 Number of open-shell orbitals:      1 (   1   0   0   0 )


 Molecular orbitals read from record     2100.2  Type=RHF/CANONICAL (state 1.1)

 Molecular orbital dump at record        2100.2

 ITERATION    DDIFF          GRAD             ENERGY        2-EL.EN.            DIPOLE MOMENTS         DIIS   ORB.
    1      0.000D+00      0.000D+00      -127.39694047    211.570046    0.00000    0.00000   -1.38000    0    start
    2      0.000D+00      0.241D-02      -127.39725592    211.582700    0.00000    0.00000   -1.38442    1    diag,B
    3      0.278D-03      0.156D-03      -127.39732536    211.598289    0.00000    0.00000   -1.37684    2    diag,B
    4      0.546D-04      0.943D-04      -127.39738645    211.613423    0.00000    0.00000   -1.36803    3    diag,B
    5      0.590D-04      0.647D-04      -127.39744130    211.634388    0.00000    0.00000   -1.35458    4    diag,B
    6      0.670D-04      0.435D-04      -127.39747713    211.656250    0.00000    0.00000   -1.33856    5    diag,B
    7      0.777D-04      0.178D-04      -127.39748170    211.665509    0.00000    0.00000   -1.33298    6    diag,B
    8      0.263D-04      0.725D-05      -127.39748202    211.666056    0.00000    0.00000   -1.33225    7    orth
    9      0.809D-05      0.355D-05      -127.39748208    211.666707    0.00000    0.00000   -1.33253    8    diag,B
   10      0.629D-05      0.169D-05      -127.39748209    211.666733    0.00000    0.00000   -1.33260    0    orth

 Final alpha occupancy:   5   2   2   1
 Final beta  occupancy:   4   2   2   1

 !RHF STATE 1.1 Energy               -127.397482088520
 Nuclear energy                         6.22968594
 One-electron energy                 -239.46053468
 Two-electron energy                  105.83336665
 Virial quotient                       -2.62026903
 !RHF STATE 1.1 Dipole moment           0.00000000     0.00000000    -1.33259800
 Dipole moment /Debye                   0.00000000     0.00000000    -3.38690443

 Orbital energies:

         1.1          2.1          3.1          4.1          5.1          6.1          7.1
     -3.951238    -2.533348    -0.442404    -0.421430    -0.365271     0.004864     0.030018

         1.2          2.2          3.2          4.2
     -2.526404    -0.445807     0.023957     0.080662

         1.3          2.3          3.3          4.3
     -2.526404    -0.445807     0.023957     0.080662

         1.4          2.4          3.4
     -0.421430     0.098157     0.327025

 HOMO      5.1    -0.365271 =      -9.9395eV
 LUMO      6.1     0.004864 =       0.1323eV
 LUMO-HOMO         0.370135 =      10.0719eV


 **********************************************************************************************************************************
 DATASETS  * FILE   NREC   LENGTH (MB)   RECORD NAMES
              1      19       20.87       500      610      700      900      950      970     1000      129      960     1100   
                                          VAR    BASINP    GEOM    SYMINP    ZMAT    AOBASIS   BASIS     P2S    ABASIS      S 
                                         1400     1410     1420     1200     1210     1080     1600     1650     1700   
                                           T        V       ECP      H0       H01     AOSYM     SMH    MOLCAS    OPER   

              2       4        3.40       700     1000      520     2100   
                                         GEOM     BASIS   MCVARS     RHF  

 PROGRAMS   *        TOTAL       RHF       INT  RCCSD(T)       RHF       INT  RCCSD(T)       RHF       INT  RCCSD(T)       RHF
 CPU TIMES  *       292.51      0.56     19.96     67.80      0.55     19.13     69.82      0.51     18.68     57.90     14.08
 REAL TIME  *       390.52 SEC
 DISK USED  *         8.54 GB      
 SF USED    *         1.24 GB      
 GA USED    *         0.00 MB       (max)       0.00 MB       (current)
 **********************************************************************************************************************************
 SETTING SCF(4)         =      -127.39748209  AU                              
 SETTING _CC_NORM_MAX   =         2.00000000                                  


 PROGRAM * CCSD (Restricted open-shell coupled cluster)     Authors: C. Hampel, H.-J. Werner, 1991, M. Deegan, P.J. Knowles, 1992


 Convergence thresholds:  THRVAR = 1.00D-08  THRDEN = 1.00D-06

 CCSD(T)     terms to be evaluated (factor= 1.000)


 Number of closed-shell orbitals:   9 (   4   2   2   1 )
 Number of active  orbitals:        1 (   1   0   0   0 )
 Number of external orbitals:     253 ( 111  57  57  28 )

 Memory could be reduced to 80.26 Mwords without degradation in triples

 Number of N-1 electron functions:              19
 Number of N-2 electron functions:             171
 Number of singly external CSFs:              1520
 Number of doubly external CSFs:           2149669
 Total number of CSFs:                     2151189

 Molecular orbitals read from record     2100.2  Type=RHF/CANONICAL (state 1.1)

 Integral transformation finished. Total CPU:   2.50 sec, npass=  1  Memory used:   6.84 MW

 Starting RMP2 calculation

 Wavefunction is spin-projected

 ITER.      SQ.NORM     CORR.ENERGY   TOTAL ENERGY   ENERGY CHANGE        DEN1      VAR(S)    VAR(P)  DIIS     TIME
   1      1.15239466    -0.79040732  -128.18788941    -0.79040732    -0.00135943  0.16D-04  0.54D-03  1  1     3.22
   2      1.15373803    -0.79185294  -128.18933503    -0.00144562    -0.00000717  0.81D-06  0.42D-05  2  2     3.86
   3      1.15384353    -0.79191188  -128.18939396    -0.00005893    -0.00000007  0.26D-07  0.35D-07  3  3     4.72
   4      1.15384790    -0.79191275  -128.18939484    -0.00000088    -0.00000000  0.48D-09  0.34D-09  4  4     5.48

 Norm of t1 vector:      0.03020856      S-energy:    -0.00231061      T1 diagnostic:  0.00075242
 Norm of t2 vector:      0.39106948      P-energy:    -0.78960215
                                         Alpha-Beta:  -0.54937617
                                         Alpha-Alpha: -0.13042790
                                         Beta-Beta:   -0.10979808

 Spin contamination <S**2-Sz**2-Sz>     0.00000000
  Reference energy                   -127.397482088520
  RHF-RMP2 correlation energy          -0.791912753916
 !RHF-RMP2 energy                    -128.189394842436
 (NB above energy spin projected)

 Starting RCCSD calculation

 ITER.      SQ.NORM     CORR.ENERGY   TOTAL ENERGY   ENERGY CHANGE        DEN1      VAR(S)    VAR(P)  DIIS     TIME
   1      1.13149430    -0.73746796  -128.13495005    -0.73746796    -0.02045232  0.55D-02  0.35D-02  1  1     8.09
   2      1.14559275    -0.75462150  -128.15210358    -0.01715354    -0.00183432  0.73D-03  0.52D-03  2  2    10.67
   3      1.15547142    -0.75669280  -128.15417488    -0.00207130    -0.00053405  0.58D-03  0.56D-04  3  3    13.29
   4      1.16554460    -0.75841853  -128.15590062    -0.00172573    -0.00018379  0.20D-03  0.23D-04  4  4    15.88
   5      1.17671384    -0.75960205  -128.15708414    -0.00118352    -0.00004687  0.48D-04  0.74D-05  5  5    18.37
   6      1.18212110    -0.75991963  -128.15740172    -0.00031758    -0.00001226  0.14D-04  0.17D-05  6  6    21.12
   7      1.18605135    -0.76015734  -128.15763943    -0.00023771    -0.00000292  0.31D-05  0.43D-06  6  2    23.77
   8      1.18644907    -0.76014657  -128.15762866     0.00001077    -0.00000052  0.43D-06  0.11D-06  6  1    26.30
   9      1.18684395    -0.76016265  -128.15764474    -0.00001608    -0.00000012  0.11D-06  0.21D-07  6  4    29.13
  10      1.18685418    -0.76015804  -128.15764013     0.00000461    -0.00000004  0.35D-07  0.60D-08  6  2    31.73
  11      1.18685744    -0.76015623  -128.15763832     0.00000181    -0.00000001  0.91D-08  0.16D-08  6  3    34.24
  12      1.18687694    -0.76015658  -128.15763867    -0.00000035    -0.00000000  0.26D-08  0.51D-09  6  5    36.98

 Norm of t1 vector:      0.20147590      S-energy:    -0.00227513      T1 diagnostic:  0.03222934
                                                                       D1 diagnostic:  0.08828466
 Norm of t2 vector:      0.38247144      P-energy:    -0.75788145
                                         Alpha-Beta:  -0.54819528
                                         Alpha-Alpha: -0.11334426
                                         Beta-Beta:   -0.09634191

 Singles amplitudes (print threshold =  0.500E-01):

         I         SYM. A    A   T(IA) [Alpha-Alpha]

         5         1         2      0.06552146
         5         1         4      0.06937858
         5         1         8      0.05197051
 
         I         SYM. A    A   T(IA) [Beta-Beta]

         3         1         1     -0.12475437

 Spin contamination <S**2-Sz**2-Sz>     0.00000000

 Memory could be reduced to 80.80 Mwords without degradation in triples
 

  Correlated core orbitals:             1.1       2.1       1.2       1.3
  Orbital energies:                    -3.9754   -2.5864   -2.5428   -2.5428
 
  RCCSD core-core energy               -0.119240822848
  RCCSD core-valence energy            -0.264192927978
  RCCSD valence correlation energy     -0.376722832654
 

 RESULTS
 =======

  Reference energy                   -127.397482088520
  RCCSD singles energy                 -0.002275130047
  RCCSD pair energy                    -0.757881453433
  RCCSD correlation energy             -0.760156583480
  Triples (T) contribution             -0.031016200632
  Total correlation energy             -0.791172784112
 
  RHF-RCCSD energy                   -128.157638672000
  RHF-RCCSD[T] energy                -128.190756353397
  RHF-RCCSD-T energy                 -128.188469110387
 !RHF-RCCSD(T) energy                -128.188654872632

 Program statistics:

 Available memory in ccsd:               511999000
 Min. memory needed in ccsd:               6371840
 Max. memory used in ccsd:                 8994336
 Max. memory used in cckext:               7244967 (12 integral passes)
 Max. memory used in cckint:               6842122 ( 1 integral passes)



 **********************************************************************************************************************************
 DATASETS  * FILE   NREC   LENGTH (MB)   RECORD NAMES
              1      19       20.87       500      610      700      900      950      970     1000      129      960     1100   
                                          VAR    BASINP    GEOM    SYMINP    ZMAT    AOBASIS   BASIS     P2S    ABASIS      S 
                                         1400     1410     1420     1200     1210     1080     1600     1650     1700   
                                           T        V       ECP      H0       H01     AOSYM     SMH    MOLCAS    OPER   

              2       4        3.40       700     1000      520     2100   
                                         GEOM     BASIS   MCVARS     RHF  

 PROGRAMS   *        TOTAL  RCCSD(T)       RHF       INT  RCCSD(T)       RHF       INT  RCCSD(T)       RHF       INT  RCCSD(T)
 CPU TIMES  *       352.35     59.75      0.56     19.96     67.80      0.55     19.13     69.82      0.51     18.68     57.90
 REAL TIME  *       472.87 SEC
 DISK USED  *         8.54 GB      
 SF USED    *         1.24 GB      
 GA USED    *         0.00 MB       (max)       0.00 MB       (current)
 **********************************************************************************************************************************
 SETTING CCSD(4)        =      -128.18865487  AU                              

 DO I                   =         5.00000000   
 SETTING Z(5)           =         1.47900000                                  

Geometry recognized as XYZ



 Recomputing integrals since geometry changed


 PROGRAM * SEWARD (Integral evaluation for generally contracted gaussian basis sets)     Author: Roland Lindh, 1990

 Geometry written to block  1 of record 700


 Point group  C2v 



 ATOMIC COORDINATES

 NR  ATOM    CHARGE       X              Y              Z

   1  PD     18.00    0.000000000    0.000000000    0.000000000
   2  H       1.00    0.000000000    0.000000000    2.794904938

 Bond lengths in Bohr (Angstrom)

 1-2  2.794904938
     ( 1.479000000)

 NUCLEAR CHARGE:                   19
 NUMBER OF PRIMITIVE AOS:         312
 NUMBER OF SYMMETRY AOS:          263
 NUMBER OF CONTRACTIONS:          263   ( 116A1  +  59B1  +  59B2  +  29A2  )
 NUMBER OF CORE ORBITALS:           4   (   2A1  +   1B1  +   1B2  +   0A2  )
 NUMBER OF VALENCE ORBITALS:        7   (   4A1  +   1B1  +   1B2  +   1A2  )


 NUCLEAR REPULSION ENERGY    6.44029060

 EXTRA SYMMETRY OF AOS IN SYMMETRY 1:   1 1 1 1 1 1 1 1 1 1   1 1 1 1 1 1 1 1 1 1   1 1 1 1 1 1 1 1 1 1   1 1 1 1 1 1 1 1 1 1
                                        1 1 1 1 1 1 1 1 1 1   1 1 1 2 1 2 1 2 1 2   1 2 1 2 1 2 1 2 1 2   1 2 1 2 1 2 1 2 1 2
                                        1 2 1 2 1 2 1 2 1 2   1 2 1 2 1 3 2 1 3 2   1 3 2 1 1 1 1 1 1 1   1 1 1 2 1 2
 EXTRA SYMMETRY OF AOS IN SYMMETRY 2:   1 1 1 1 1 1 1 1 1 1   1 1 1 1 1 1 1 1 1 1   1 1 1 1 1 1 1 1 1 1   1 1 1 1 1 1 1 1 1 1
                                        1 2 1 2 1 2 1 2 1 2   1 2 1 2 1 1 1 1 1
 EXTRA SYMMETRY OF AOS IN SYMMETRY 3:   1 1 1 1 1 1 1 1 1 1   1 1 1 1 1 1 1 1 1 1   1 1 1 1 1 1 1 1 1 1   1 1 1 1 1 1 1 1 1 1
                                        1 2 1 2 1 2 1 2 1 2   1 2 1 2 1 1 1 1 1
 EXTRA SYMMETRY OF AOS IN SYMMETRY 4:   1 1 1 1 1 1 1 1 1 1   1 1 1 1 1 1 1 1 1 1   1 1 2 1 2 1 2 1 1

 Eigenvalues of metric

         1 0.916E-06 0.191E-05 0.889E-05 0.951E-05 0.268E-04 0.117E-03 0.131E-03 0.270E-03
         2 0.982E-06 0.946E-05 0.304E-03 0.471E-03 0.163E-02 0.300E-02 0.405E-02 0.919E-02
         3 0.982E-06 0.946E-05 0.304E-03 0.471E-03 0.163E-02 0.300E-02 0.405E-02 0.919E-02
         4 0.951E-05 0.307E-03 0.302E-02 0.107E-01 0.286E-01 0.528E-01 0.849E-01 0.105E+00


 Contracted 2-electron integrals neglected if value below      1.0D-13
 AO integral compression algorithm  1   Integral accuracy      1.0D-13

     596.902 MB (compressed) written to integral file ( 43.5%)

     Node minimum: 5.243 MB, node maximum: 63.701 MB


 NUMBER OF SORTED TWO-ELECTRON INTEGRALS:    6738189.     BUFFER LENGTH:  32768
 NUMBER OF SEGMENTS:   1  SEGMENT LENGTH:    6738189      RECORD LENGTH: 524288

 Memory used in sort:       7.30 MW

 SORT1 READ   171363336. AND WROTE     2886144. INTEGRALS IN      9 RECORDS. CPU TIME:     2.52 SEC, REAL TIME:     2.63 SEC
 SORT2 READ    67747600. AND WROTE   156329493. INTEGRALS IN   1035 RECORDS. CPU TIME:     0.39 SEC, REAL TIME:     0.53 SEC

 Node minimum:     6738189.  Node maximum:     6815662. integrals

 OPERATOR DM      FOR CENTER  0  COORDINATES:    0.000000    0.000000    0.000000


 **********************************************************************************************************************************
 DATASETS  * FILE   NREC   LENGTH (MB)   RECORD NAMES
              1      19       20.83       500      610      700      900      950      970     1000      129      960     1100   
                                          VAR    BASINP    GEOM    SYMINP    ZMAT    AOBASIS   BASIS     P2S    ABASIS      S 
                                         1400     1410     1420     1200     1210     1080     1600     1650     1700   
                                           T        V       ECP      H0       H01     AOSYM     SMH    MOLCAS    OPER   

              2       4        3.40       700     1000      520     2100   
                                         GEOM     BASIS   MCVARS     RHF  

 PROGRAMS   *        TOTAL       INT  RCCSD(T)       RHF       INT  RCCSD(T)       RHF       INT  RCCSD(T)       RHF       INT
 CPU TIMES  *       371.90     19.54     59.75      0.56     19.96     67.80      0.55     19.13     69.82      0.51     18.68
 REAL TIME  *       492.97 SEC
 DISK USED  *         8.54 GB      
 SF USED    *         1.24 GB      
 GA USED    *         0.00 MB       (max)       0.00 MB       (current)
 **********************************************************************************************************************************


 PROGRAM * RHF-SCF (OPEN SHELL)       Authors: W. Meyer, H.-J. Werner


 NUMBER OF ELECTRONS:      10+    9-    SPACE SYMMETRY=1    SPIN SYMMETRY: Doublet 
 CONVERGENCE THRESHOLDS:    1.00E-05 (Density)    1.00E-07 (Energy)
 MAX. NUMBER OF ITERATIONS:       60
 INTERPOLATION TYPE:            DIIS
 INTERPOLATION STEPS:              2 (START)      1 (STEP)
 LEVEL SHIFTS:                 -0.60 (CLOSED) -0.30 (OPEN) 

 Number of closed-shell orbitals:    9 (   4   2   2   1 )
 Number of open-shell orbitals:      1 (   1   0   0   0 )


 Molecular orbitals read from record     2100.2  Type=RHF/CANONICAL (state 1.1)

 Molecular orbital dump at record        2100.2

 ITERATION    DDIFF          GRAD             ENERGY        2-EL.EN.            DIPOLE MOMENTS         DIIS   ORB.
    1      0.000D+00      0.000D+00      -127.39401216    212.037362    0.00000    0.00000   -1.30382    0    start
    2      0.000D+00      0.264D-02      -127.39438714    212.053231    0.00000    0.00000   -1.30927    1    diag,B
    3      0.346D-03      0.170D-03      -127.39446828    212.067528    0.00000    0.00000   -1.30094    2    diag,B
    4      0.593D-04      0.102D-03      -127.39453849    212.082287    0.00000    0.00000   -1.29175    3    diag,B
    5      0.651D-04      0.705D-04      -127.39460322    212.101513    0.00000    0.00000   -1.27735    4    diag,B
    6      0.783D-04      0.476D-04      -127.39464698    212.123070    0.00000    0.00000   -1.25951    5    diag,B
    7      0.942D-04      0.193D-04      -127.39465240    212.131752    0.00000    0.00000   -1.25315    6    diag,B
    8      0.305D-04      0.740D-05      -127.39465275    212.132206    0.00000    0.00000   -1.25232    7    orth
    9      0.902D-05      0.354D-05      -127.39465280    212.132877    0.00000    0.00000   -1.25256    8    diag,B
   10      0.590D-05      0.173D-05      -127.39465281    212.132815    0.00000    0.00000   -1.25263    0    orth

 Final alpha occupancy:   5   2   2   1
 Final beta  occupancy:   4   2   2   1

 !RHF STATE 1.1 Energy               -127.394652805050
 Nuclear energy                         6.44029060
 One-electron energy                 -239.90135081
 Two-electron energy                  106.06640740
 Virial quotient                       -2.61868379
 !RHF STATE 1.1 Dipole moment           0.00000000     0.00000000    -1.25262653
 Dipole moment /Debye                   0.00000000     0.00000000    -3.18365053

 Orbital energies:

         1.1          2.1          3.1          4.1          5.1          6.1          7.1
     -3.948644    -2.532344    -0.457266    -0.418520    -0.349387     0.006367     0.029534

         1.2          2.2          3.2          4.2
     -2.523460    -0.443673     0.024025     0.080585

         1.3          2.3          3.3          4.3
     -2.523460    -0.443673     0.024025     0.080585

[...]
  RCCSD singles energy                 -0.001237621571
  RCCSD pair energy                    -0.769187511458
  RCCSD correlation energy             -0.770425133029
  Triples (T) contribution             -0.031881630200
  Total correlation energy             -0.802306763229
 
  RHF-RCCSD energy                   -128.116810747857
  RHF-RCCSD[T] energy                -128.149884480612
  RHF-RCCSD-T energy                 -128.148515463484
 !RHF-RCCSD(T) energy                -128.148692378057

 Program statistics:

 Available memory in ccsd:               511999000
 Min. memory needed in ccsd:               6371840
 Max. memory used in ccsd:                 8994336
 Max. memory used in cckext:               7244967 (12 integral passes)
 Max. memory used in cckint:               6842122 ( 1 integral passes)



 **********************************************************************************************************************************
 DATASETS  * FILE   NREC   LENGTH (MB)   RECORD NAMES
              1      19       20.87       500      610      700      900      950      970     1000      129      960     1100   
                                          VAR    BASINP    GEOM    SYMINP    ZMAT    AOBASIS   BASIS     P2S    ABASIS      S 
                                         1400     1410     1420     1200     1210     1080     1600     1650     1700   
                                           T        V       ECP      H0       H01     AOSYM     SMH    MOLCAS    OPER   

              2       4        3.40       700     1000      520     2100   
                                         GEOM     BASIS   MCVARS     RHF  

 PROGRAMS   *        TOTAL  RCCSD(T)       RHF       INT  RCCSD(T)       RHF       INT  RCCSD(T)       RHF       INT  RCCSD(T)
 CPU TIMES  *       814.49     59.82      0.72     19.47     51.77      0.60     19.28     54.90      0.58     18.48     58.58
 REAL TIME  *      1147.69 SEC
 DISK USED  *         8.69 GB      
 SF USED    *         1.24 GB      
 GA USED    *         0.00 MB       (max)       0.00 MB       (current)
 **********************************************************************************************************************************
 SETTING CCSD(10)       =      -128.14869238  AU                              

 DO I                   =        11.00000000   
 SETTING Z(11)          =         1.17900000                                  

Geometry recognized as XYZ



 Recomputing integrals since geometry changed


 PROGRAM * SEWARD (Integral evaluation for generally contracted gaussian basis sets)     Author: Roland Lindh, 1990

 Geometry written to block  1 of record 700


 Point group  C2v 



 ATOMIC COORDINATES

 NR  ATOM    CHARGE       X              Y              Z

   1  PD     18.00    0.000000000    0.000000000    0.000000000
   2  H       1.00    0.000000000    0.000000000    2.227987101

 Bond lengths in Bohr (Angstrom)

 1-2  2.227987101
     ( 1.179000000)

 NUCLEAR CHARGE:                   19
 NUMBER OF PRIMITIVE AOS:         312
 NUMBER OF SYMMETRY AOS:          263
 NUMBER OF CONTRACTIONS:          263   ( 116A1  +  59B1  +  59B2  +  29A2  )
 NUMBER OF CORE ORBITALS:           4   (   2A1  +   1B1  +   1B2  +   0A2  )
 NUMBER OF VALENCE ORBITALS:        7   (   4A1  +   1B1  +   1B2  +   1A2  )


 NUCLEAR REPULSION ENERGY    8.07904139

 EXTRA SYMMETRY OF AOS IN SYMMETRY 1:   1 1 1 1 1 1 1 1 1 1   1 1 1 1 1 1 1 1 1 1   1 1 1 1 1 1 1 1 1 1   1 1 1 1 1 1 1 1 1 1
                                        1 1 1 1 1 1 1 1 1 1   1 1 1 2 1 2 1 2 1 2   1 2 1 2 1 2 1 2 1 2   1 2 1 2 1 2 1 2 1 2
                                        1 2 1 2 1 2 1 2 1 2   1 2 1 2 1 3 2 1 3 2   1 3 2 1 1 1 1 1 1 1   1 1 1 2 1 2
 EXTRA SYMMETRY OF AOS IN SYMMETRY 2:   1 1 1 1 1 1 1 1 1 1   1 1 1 1 1 1 1 1 1 1   1 1 1 1 1 1 1 1 1 1   1 1 1 1 1 1 1 1 1 1
                                        1 2 1 2 1 2 1 2 1 2   1 2 1 2 1 1 1 1 1
 EXTRA SYMMETRY OF AOS IN SYMMETRY 3:   1 1 1 1 1 1 1 1 1 1   1 1 1 1 1 1 1 1 1 1   1 1 1 1 1 1 1 1 1 1   1 1 1 1 1 1 1 1 1 1
                                        1 2 1 2 1 2 1 2 1 2   1 2 1 2 1 1 1 1 1
 EXTRA SYMMETRY OF AOS IN SYMMETRY 4:   1 1 1 1 1 1 1 1 1 1   1 1 1 1 1 1 1 1 1 1   1 1 2 1 2 1 2 1 1

 Eigenvalues of metric

         1 0.886E-06 0.182E-05 0.886E-05 0.951E-05 0.234E-04 0.397E-04 0.111E-03 0.199E-03
         2 0.982E-06 0.929E-05 0.296E-03 0.471E-03 0.163E-02 0.296E-02 0.406E-02 0.579E-02
         3 0.982E-06 0.929E-05 0.296E-03 0.471E-03 0.163E-02 0.296E-02 0.406E-02 0.579E-02
         4 0.951E-05 0.307E-03 0.302E-02 0.107E-01 0.284E-01 0.514E-01 0.758E-01 0.104E+00


 Contracted 2-electron integrals neglected if value below      1.0D-13
 AO integral compression algorithm  1   Integral accuracy      1.0D-13

     611.844 MB (compressed) written to integral file ( 44.7%)

     Node minimum: 6.029 MB, node maximum: 63.701 MB


 NUMBER OF SORTED TWO-ELECTRON INTEGRALS:    6738189.     BUFFER LENGTH:  32768
 NUMBER OF SEGMENTS:   1  SEGMENT LENGTH:    6738189      RECORD LENGTH: 524288

 Memory used in sort:       7.30 MW

 SORT1 READ   171363336. AND WROTE     2931039. INTEGRALS IN      9 RECORDS. CPU TIME:     2.61 SEC, REAL TIME:     2.70 SEC
 SORT2 READ    68795683. AND WROTE   156329493. INTEGRALS IN   1380 RECORDS. CPU TIME:     0.22 SEC, REAL TIME:     0.41 SEC

 Node minimum:     6738189.  Node maximum:     6815662. integrals

 OPERATOR DM      FOR CENTER  0  COORDINATES:    0.000000    0.000000    0.000000


 **********************************************************************************************************************************
 DATASETS  * FILE   NREC   LENGTH (MB)   RECORD NAMES
              1      19       20.83       500      610      700      900      950      970     1000      129      960     1100   
                                          VAR    BASINP    GEOM    SYMINP    ZMAT    AOBASIS   BASIS     P2S    ABASIS      S 
                                         1400     1410     1420     1200     1210     1080     1600     1650     1700   
                                           T        V       ECP      H0       H01     AOSYM     SMH    MOLCAS    OPER   

              2       4        3.40       700     1000      520     2100   
                                         GEOM     BASIS   MCVARS     RHF  

 PROGRAMS   *        TOTAL       INT  RCCSD(T)       RHF       INT  RCCSD(T)       RHF       INT  RCCSD(T)       RHF       INT
 CPU TIMES  *       833.50     18.99     59.82      0.72     19.47     51.77      0.60     19.28     54.90      0.58     18.48
 REAL TIME  *      1167.27 SEC
 DISK USED  *         8.70 GB      
 SF USED    *         1.24 GB      
 GA USED    *         0.00 MB       (max)       0.00 MB       (current)
 **********************************************************************************************************************************


 PROGRAM * RHF-SCF (OPEN SHELL)       Authors: W. Meyer, H.-J. Werner


 NUMBER OF ELECTRONS:      10+    9-    SPACE SYMMETRY=1    SPIN SYMMETRY: Doublet 
 CONVERGENCE THRESHOLDS:    1.00E-05 (Density)    1.00E-07 (Energy)
 MAX. NUMBER OF ITERATIONS:       60
 INTERPOLATION TYPE:            DIIS
 INTERPOLATION STEPS:              2 (START)      1 (STEP)
 LEVEL SHIFTS:                 -0.60 (CLOSED) -0.30 (OPEN) 

 Number of closed-shell orbitals:    9 (   4   2   2   1 )
 Number of open-shell orbitals:      1 (   1   0   0   0 )


 Molecular orbitals read from record     2100.2  Type=RHF/CANONICAL (state 1.1)

 Molecular orbital dump at record        2100.2

 ITERATION    DDIFF          GRAD             ENERGY        2-EL.EN.            DIPOLE MOMENTS         DIIS   ORB.
    1      0.000D+00      0.000D+00      -127.32325885    214.944615    0.00000    0.00000   -0.84738    0    start
    2      0.000D+00      0.518D-02      -127.32449556    214.953373    0.00000    0.00000   -0.86476    1    diag,B
    3      0.874D-03      0.309D-03      -127.32466830    214.960811    0.00000    0.00000   -0.85226    2    diag,B
    4      0.229D-03      0.153D-03      -127.32477185    214.958398    0.00000    0.00000   -0.84480    3    diag,B
    5      0.146D-03      0.870D-04      -127.32483959    214.959229    0.00000    0.00000   -0.83296    4    diag,B
    6      0.137D-03      0.521D-04      -127.32487217    214.951761    0.00000    0.00000   -0.82261    5    diag,B
    7      0.114D-03      0.220D-04      -127.32487753    214.950774    0.00000    0.00000   -0.81794    6    diag,B
    8      0.292D-04      0.106D-04      -127.32487858    214.946958    0.00000    0.00000   -0.81589    7    orth
    9      0.145D-04      0.606D-05      -127.32487896    214.945818    0.00000    0.00000   -0.81471    8    diag,B
   10      0.103D-04      0.362D-05      -127.32487918    214.944435    0.00000    0.00000   -0.81362    9    diag,B
   11      0.806D-05      0.199D-05      -127.32487926    214.943424    0.00000    0.00000   -0.81279    9    diag,B
   12      0.774D-05      0.854D-06      -127.32487926    214.943310    0.00000    0.00000   -0.81273    0    orth

 Final alpha occupancy:   5   2   2   1
 Final beta  occupancy:   4   2   2   1

 !RHF STATE 1.1 Energy               -127.324879264340
 Nuclear energy                         8.07904139
 One-electron energy                 -242.87557574
 Two-electron energy                  107.47165509
 Virial quotient                       -2.59930536
 !RHF STATE 1.1 Dipole moment           0.00000000     0.00000000    -0.81272619
 Dipole moment /Debye                   0.00000000     0.00000000    -2.06560864

 Orbital energies:

         1.1          2.1          3.1          4.1          5.1          6.1          7.1
     -3.948975    -2.553779    -0.563095    -0.412982    -0.277992     0.013661     0.026416

         1.2          2.2          3.2          4.2
     -2.519228    -0.448419     0.023383     0.076907

         1.3          2.3          3.3          4.3
     -2.519228    -0.448419     0.023383     0.076907

         1.4          2.4          3.4
     -0.412982     0.099027     0.328303

 HOMO      5.1    -0.277992 =      -7.5646eV
 LUMO      6.1     0.013661 =       0.3717eV
 LUMO-HOMO         0.291653 =       7.9363eV


 **********************************************************************************************************************************
 DATASETS  * FILE   NREC   LENGTH (MB)   RECORD NAMES
              1      19       20.87       500      610      700      900      950      970     1000      129      960     1100   
                                          VAR    BASINP    GEOM    SYMINP    ZMAT    AOBASIS   BASIS     P2S    ABASIS      S 
                                         1400     1410     1420     1200     1210     1080     1600     1650     1700   
                                           T        V       ECP      H0       H01     AOSYM     SMH    MOLCAS    OPER   

              2       4        3.40       700     1000      520     2100   
                                         GEOM     BASIS   MCVARS     RHF  

 PROGRAMS   *        TOTAL       RHF       INT  RCCSD(T)       RHF       INT  RCCSD(T)       RHF       INT  RCCSD(T)       RHF
 CPU TIMES  *       834.07      0.57     18.99     59.82      0.72     19.47     51.77      0.60     19.28     54.90      0.58
 REAL TIME  *      1168.00 SEC
 DISK USED  *         8.70 GB      
 SF USED    *         1.24 GB      
 GA USED    *         0.00 MB       (max)       0.00 MB       (current)
 **********************************************************************************************************************************
 SETTING SCF(11)        =      -127.32487926  AU                              
 SETTING _CC_NORM_MAX   =         2.00000000                                  


 PROGRAM * CCSD (Restricted open-shell coupled cluster)     Authors: C. Hampel, H.-J. Werner, 1991, M. Deegan, P.J. Knowles, 1992


 Convergence thresholds:  THRVAR = 1.00D-08  THRDEN = 1.00D-06

 CCSD(T)     terms to be evaluated (factor= 1.000)


 Number of closed-shell orbitals:   9 (   4   2   2   1 )
 Number of active  orbitals:        1 (   1   0   0   0 )
 Number of external orbitals:     253 ( 111  57  57  28 )

 Memory could be reduced to 80.26 Mwords without degradation in triples

 Number of N-1 electron functions:              19
 Number of N-2 electron functions:             171
 Number of singly external CSFs:              1520
 Number of doubly external CSFs:           2149669
 Total number of CSFs:                     2151189

 Molecular orbitals read from record     2100.2  Type=RHF/CANONICAL (state 1.1)

 Integral transformation finished. Total CPU:   2.42 sec, npass=  1  Memory used:   6.84 MW

 Starting RMP2 calculation

 Wavefunction is spin-projected

 ITER.      SQ.NORM     CORR.ENERGY   TOTAL ENERGY   ENERGY CHANGE        DEN1      VAR(S)    VAR(P)  DIIS     TIME
   1      1.15701188    -0.81436724  -128.13924650    -0.81436724    -0.00130341  0.73D-05  0.48D-03  1  1     3.43
   2      1.15814807    -0.81573967  -128.14061893    -0.00137243    -0.00000297  0.14D-06  0.18D-05  2  2     4.18
   3      1.15820455    -0.81577429  -128.14065356    -0.00003462    -0.00000001  0.39D-08  0.66D-08  3  3     5.09
   4      1.15820592    -0.81577452  -128.14065379    -0.00000023    -0.00000000  0.12D-09  0.24D-10  4  4     5.79

 Norm of t1 vector:      0.02385284      S-energy:    -0.00111585      T1 diagnostic:  0.00025117
 Norm of t2 vector:      0.39703522      P-energy:    -0.81465867
                                         Alpha-Beta:  -0.56280162
                                         Alpha-Alpha: -0.13592708
                                         Beta-Beta:   -0.11592997

 Spin contamination <S**2-Sz**2-Sz>     0.00000000
  Reference energy                   -127.324879264340
  RHF-RMP2 correlation energy          -0.815774524188
 !RHF-RMP2 energy                    -128.140653788529
 (NB above energy spin projected)

 Starting RCCSD calculation

 ITER.      SQ.NORM     CORR.ENERGY   TOTAL ENERGY   ENERGY CHANGE        DEN1      VAR(S)    VAR(P)  DIIS     TIME
   1      1.12819875    -0.75187814  -128.07675741    -0.75187814    -0.01985700  0.31D-02  0.36D-02  1  1     8.51
   2      1.13895751    -0.76884694  -128.09372621    -0.01696880    -0.00116704  0.29D-03  0.34D-03  2  2    11.16
   3      1.14269982    -0.76978247  -128.09466174    -0.00093553    -0.00021048  0.20D-03  0.27D-04  3  3    13.78
   4      1.14544842    -0.77049199  -128.09537126    -0.00070952    -0.00005409  0.59D-04  0.69D-05  4  4    16.35
   5      1.14790853    -0.77089470  -128.09577397    -0.00040271    -0.00001123  0.15D-04  0.11D-05  5  5    18.97
   6      1.14901841    -0.77097376  -128.09585302    -0.00007906    -0.00000292  0.43D-05  0.24D-06  6  6    21.67
   7      1.14970285    -0.77101567  -128.09589493    -0.00004191    -0.00000067  0.81D-06  0.77D-07  6  2    24.56
   8      1.14989374    -0.77101599  -128.09589525    -0.00000032    -0.00000010  0.88D-07  0.19D-07  6  1    27.40
   9      1.14995892    -0.77101511  -128.09589437     0.00000088    -0.00000001  0.79D-08  0.30D-08  6  4    29.89
  10      1.14997390    -0.77101736  -128.09589662    -0.00000225    -0.00000000  0.19D-08  0.35D-09  6  3    32.81
  11      1.14997413    -0.77101690  -128.09589616     0.00000046    -0.00000000  0.44D-09  0.97D-10  6  5    35.33

 Norm of t1 vector:      0.11037526      S-energy:    -0.00111462      T1 diagnostic:  0.01744463
                                                                       D1 diagnostic:  0.05694584
 Norm of t2 vector:      0.37120269      P-energy:    -0.76990228
                                         Alpha-Beta:  -0.55377257
                                         Alpha-Alpha: -0.11667147
                                         Beta-Beta:   -0.09945824

 Spin contamination <S**2-Sz**2-Sz>     0.00000000

 Memory could be reduced to 80.80 Mwords without degradation in triples
 

  Correlated core orbitals:             1.1       2.1       1.2       1.3
  Orbital energies:                    -3.9618   -2.5773   -2.5269   -2.5269
 
  RCCSD core-core energy               -0.116708098275
  RCCSD core-valence energy            -0.264592914723
  RCCSD valence correlation energy     -0.389715882983
 

 RESULTS
 =======

  Reference energy                   -127.324879264340
  RCCSD singles energy                 -0.001114615063
  RCCSD pair energy                    -0.769902280917
  RCCSD correlation energy             -0.771016895980
  Triples (T) contribution             -0.031806787480
  Total correlation energy             -0.802823683460
 
  RHF-RCCSD energy                   -128.095896160320
  RHF-RCCSD[T] energy                -128.128788828095
  RHF-RCCSD-T energy                 -128.127528328093
 !RHF-RCCSD(T) energy                -128.127702947800

 Program statistics:

 Available memory in ccsd:               511999000
 Min. memory needed in ccsd:               6371840
 Max. memory used in ccsd:                 8994336
 Max. memory used in cckext:               7244967 (11 integral passes)
 Max. memory used in cckint:               6842122 ( 1 integral passes)



 **********************************************************************************************************************************
 DATASETS  * FILE   NREC   LENGTH (MB)   RECORD NAMES
              1      19       20.87       500      610      700      900      950      970     1000      129      960     1100   
                                          VAR    BASINP    GEOM    SYMINP    ZMAT    AOBASIS   BASIS     P2S    ABASIS      S 
                                         1400     1410     1420     1200     1210     1080     1600     1650     1700   
                                           T        V       ECP      H0       H01     AOSYM     SMH    MOLCAS    OPER   

              2       4        3.40       700     1000      520     2100   
                                         GEOM     BASIS   MCVARS     RHF  

 PROGRAMS   *        TOTAL  RCCSD(T)       RHF       INT  RCCSD(T)       RHF       INT  RCCSD(T)       RHF       INT  RCCSD(T)
 CPU TIMES  *       892.60     58.46      0.57     18.99     59.82      0.72     19.47     51.77      0.60     19.28     54.90
 REAL TIME  *      1245.02 SEC
 DISK USED  *         8.70 GB      
 SF USED    *         1.24 GB      
 GA USED    *         0.00 MB       (max)       0.00 MB       (current)
 **********************************************************************************************************************************
 SETTING CCSD(11)       =      -128.12770295  AU                              
 Output type csv         
                                                                                                                                                                                                                                                                

     Z,SCF,CCSD
   1.679,   -127.3989730,   -128.1824495
   1.629,   -127.3994361,   -128.1854170
   1.579,   -127.3990002,   -128.1875720
   1.529,   -127.3974821,   -128.1886549
   1.479,   -127.3946528,   -128.1883562
   1.429,   -127.3902157,   -128.1862803
   1.379,   -127.3837780,   -128.1819462
   1.329,   -127.3748180,   -128.1747612
   1.279,   -127.3626503,   -128.1639869
   1.229,   -127.3463856,   -128.1486924
   1.179,   -127.3248793,   -128.1277029
                                                  

 RCCSD(T)/USERDEF energy=   -128.127702947800

        RCCSD(T)        RHF-SCF         RCCSD(T)        RHF-SCF         RCCSD(T)        RHF-SCF         RCCSD(T)        RHF-SCF 
   -128.12770295   -127.32487926   -128.14869238   -127.34638561   -128.16398689   -127.36265032   -128.17476122   -127.37481798
 **********************************************************************************************************************************
 Molpro calculation terminated
 Variable memory released
