
 Primary working directories    : /global/cscratch1/sd/bkincaid
 Secondary working directories  : /global/cscratch1/sd/bkincaid
 Wavefunction directory         : /global/homes/b/bkincaid/wfu/
 Main file repository           : /global/cscratch1/sd/bkincaid/

 SHA1      : 19cd028119e0e09f93f0674bd8af7968d9b3eff6
 NAME      : 2015.1.36
 ARCHNAME  : linux/x86_64
 FC        : /opt/cray/pe/craype/2.5.14/bin/ftn
 BLASLIB   : -L/opt/intel/compilers_and_libraries_2018.1.163/linux/mkl/lib/intel64 -Wl,-_start-group -lmkl_intel_ilp64 -lmkl_intel_thread -lmkl_core -Wl,-_end-group -liomp5
 id        : lbl

 Nodes     nprocs
 nid01319    23
 Number of processes for MPI-2 version of Molpro:   nprocs(total)=   24   nprocs(compute)=   23   nprocs(helper)=    1

 Using customized tuning parameters: mindgm=7; mindgv=16; mindgc=1; mindgr=1; noblas=0; minvec=7
 default implementation of scratch files=sf  

 ***,Calculation for PdH groundstate
 memory,512,m
 gthresh,twoint=1.0E-12
 gthresh,throvl=1.0E-12
                                                                                 !symmetry,nosym
 
 set,dkroll=1,dkho=10,dkhp=4
 
 basis={
 
 Including file /global/u1/b/bkincaid/molpro/pd/molecules/PdH/tz/ae/1.129/c-Pd-aug-cc-pwCVTZ.basis
 
 Including file /global/u1/b/bkincaid/molpro/pd/molecules/PdH/tz/ae/1.129/c-H-aug-cc-pVTZ.basis
 }
 
 ne = 47
 
 geometry={
 2
 PdH
 Pd 0.0 0.0 0.0
 H 0.0 0.0 1.129
 }
 
 A1=12
 B1=5
 B2=5
 A2=2
 
 {rks,pbe0
 wf,nele=ne,spin=1,sym=1
 occ,A1,B1,B2,A2
 closed,A1-1,B1,B2,A2
 }
 {rhf
 wf,nelec=ne,spin=1,sym=1
 occ,A1,B1,B2,A2
 closed,A1-1,B1,B2,A2
 }
 
 
 basis={
 
 Including file /global/u1/b/bkincaid/molpro/pd/molecules/PdH/tz/ae/1.129/Pd-aug-cc-pwCVTZ.basis
 
 Including file /global/u1/b/bkincaid/molpro/pd/molecules/PdH/tz/ae/1.129/H-aug-cc-pVTZ.basis
 }
 
 {rhf
 wf,nelec=ne,spin=1,sym=1
 occ,A1,B1,B2,A2
 closed,A1-1,B1,B2,A2
 }
 
 E_Pd = -5044.366379
 E_H = -0.49982785
 
 scf=energy
 _CC_NORM_MAX=2.0
 {rccsd(t);maxit,100;core}
 ccsd=energy
 BE = ccsd - E_Pd - E_H
 
 table,scf,ccsd,BE
 save
 type,csv

 Variables initialized (889), CPU time= 0.01 sec
 Commands  initialized (702), CPU time= 0.02 sec, 572 directives.
 Default parameters read. Elapsed time= 0.18 sec

 Checking input...
 Passed
1


                                         ***  PROGRAM SYSTEM MOLPRO  ***
                                       Copyright, TTI GmbH Stuttgart, 2015
                                    Version 2015.1 linked Dec 29 2018 15:55:43


 **********************************************************************************************************************************
 LABEL *   Calculation for PdH groundstate                                               
  64 bit mpp version                                                                     DATE: 14-Sep-20          TIME: 12:08:37  
 **********************************************************************************************************************************

 SHA1:             19cd028119e0e09f93f0674bd8af7968d9b3eff6
 **********************************************************************************************************************************

 THRESHOLDS:

 ZERO    =  1.00D-12  ONEINT  =  1.00D-12  TWOINT  =  1.00D-12  PREFAC  =  1.00D-14  LOCALI  =  1.00D-09  EORDER  =  1.00D-04
 ENERGY  =  0.00D+00  ETEST   =  0.00D+00  EDENS   =  0.00D+00  THRDEDEF=  1.00D-06  GRADIENT=  1.00D-02  STEP    =  1.00D-03
 ORBITAL =  1.00D-05  CIVEC   =  1.00D-05  COEFF   =  1.00D-04  PRINTCI =  5.00D-02  PUNCHCI =  9.90D+01  OPTGRAD =  3.00D-04
 OPTENERG=  1.00D-06  OPTSTEP =  3.00D-04  THRGRAD =  1.00D-10  COMPRESS=  1.00D-11  VARMIN  =  1.00D-07  VARMAX  =  1.00D-03
 THRDOUB =  0.00D+00  THRDIV  =  1.00D-05  THRRED  =  1.00D-07  THRPSP  =  1.00D+00  THRDC   =  1.00D-10  THRCS   =  1.00D-10
 THRNRM  =  1.00D-08  THREQ   =  0.00D+00  THRDE   =  1.00D+00  THRREF  =  1.00D-05  SPARFAC =  1.00D+00  THRDLP  =  1.00D-07
 THRDIA  =  1.00D-10  THRDLS  =  1.00D-07  THRGPS  =  0.00D+00  THRKEX  =  0.00D+00  THRDIS  =  2.00D-01  THRVAR  =  1.00D-10
 THRLOC  =  1.00D-06  THRGAP  =  1.00D-06  THRLOCT = -1.00D+00  THRGAPT = -1.00D+00  THRORB  =  1.00D-06  THRMLTP =  0.00D+00
 THRCPQCI=  1.00D-10  KEXTA   =  0.00D+00  THRCOARS=  0.00D+00  SYMTOL  =  1.00D-06  GRADTOL =  1.00D-06  THROVL  =  1.00D-08
 THRORTH =  1.00D-08  GRID    =  1.00D-06  GRIDMAX =  1.00D-03  DTMAX   =  0.00D+00  THROCCDE=  1.00D-01  THROCCDE=  1.00D-01



 THRESHOLDS:

 ZERO    =  1.00D-12  ONEINT  =  1.00D-12  TWOINT  =  1.00D-12  PREFAC  =  1.00D-14  LOCALI  =  1.00D-09  EORDER  =  1.00D-04
 ENERGY  =  0.00D+00  ETEST   =  0.00D+00  EDENS   =  0.00D+00  THRDEDEF=  1.00D-06  GRADIENT=  1.00D-02  STEP    =  1.00D-03
 ORBITAL =  1.00D-05  CIVEC   =  1.00D-05  COEFF   =  1.00D-04  PRINTCI =  5.00D-02  PUNCHCI =  9.90D+01  OPTGRAD =  3.00D-04
 OPTENERG=  1.00D-06  OPTSTEP =  3.00D-04  THRGRAD =  1.00D-10  COMPRESS=  1.00D-11  VARMIN  =  1.00D-07  VARMAX  =  1.00D-03
 THRDOUB =  0.00D+00  THRDIV  =  1.00D-05  THRRED  =  1.00D-07  THRPSP  =  1.00D+00  THRDC   =  1.00D-10  THRCS   =  1.00D-10
 THRNRM  =  1.00D-08  THREQ   =  0.00D+00  THRDE   =  1.00D+00  THRREF  =  1.00D-05  SPARFAC =  1.00D+00  THRDLP  =  1.00D-07
 THRDIA  =  1.00D-10  THRDLS  =  1.00D-07  THRGPS  =  0.00D+00  THRKEX  =  0.00D+00  THRDIS  =  2.00D-01  THRVAR  =  1.00D-10
 THRLOC  =  1.00D-06  THRGAP  =  1.00D-06  THRLOCT = -1.00D+00  THRGAPT = -1.00D+00  THRORB  =  1.00D-06  THRMLTP =  0.00D+00
 THRCPQCI=  1.00D-10  KEXTA   =  0.00D+00  THRCOARS=  0.00D+00  SYMTOL  =  1.00D-06  GRADTOL =  1.00D-06  THROVL  =  1.00D-12
 THRORTH =  1.00D-08  GRID    =  1.00D-06  GRIDMAX =  1.00D-03  DTMAX   =  0.00D+00  THROCCDE=  1.00D-01  THROCCDE=  1.00D-01


 SETTING DKROLL         =         1.00000000                                  
 SETTING DKHO           =        10.00000000                                  
 SETTING DKHP           =         4.00000000                                  

 Variable memory set to  512000000 words,  buffer space   230000 words

 SETTING BASIS          =    USERDEF
 SETTING NE             =        47.00000000                                  

Geometry recognized as XYZ

 SETTING A1             =        12.00000000                                  
 SETTING B1             =         5.00000000                                  
 SETTING B2             =         5.00000000                                  
 SETTING A2             =         2.00000000                                  


 Recomputing integrals since basis changed


 Using spherical harmonics



 PROGRAM * SEWARD (Integral evaluation for generally contracted gaussian basis sets)     Author: Roland Lindh, 1990

 Geometry written to block  1 of record 700


 Point group  C2v 



 ATOMIC COORDINATES

 NR  ATOM    CHARGE       X              Y              Z

   1  PD     46.00    0.000000000    0.000000000    0.000000000
   2  H       1.00    0.000000000    0.000000000    2.133500795

 Bond lengths in Bohr (Angstrom)

 1-2  2.133500795
     ( 1.129000000)

 NUCLEAR CHARGE:                   47
 NUMBER OF PRIMITIVE AOS:         315
 NUMBER OF SYMMETRY AOS:          266
 NUMBER OF CONTRACTIONS:          159   (  65A1  +  37B1  +  37B2  +  20A2  )
 NUMBER OF CORE ORBITALS:          18   (   9A1  +   4B1  +   4B2  +   1A2  )
 NUMBER OF VALENCE ORBITALS:        7   (   4A1  +   1B1  +   1B2  +   1A2  )


 NUCLEAR REPULSION ENERGY   21.56080753

 One-electron integrals computed with SEWARD

 10nd-order Douglas-Kroll-Hess method activated. McWeeny DKH parametrization is used.

 Computing Douglas-Kroll / X2C integrals

 AO integral compression algorithm  1   Integral accuracy      1.0D-12

     99.877 MB (compressed) written to integral file ( 54.8%)

     Node minimum: 1.835 MB, node maximum: 7.602 MB


 NUMBER OF SORTED TWO-ELECTRON INTEGRALS:     906300.     BUFFER LENGTH:  32768
 NUMBER OF SEGMENTS:   1  SEGMENT LENGTH:     906300      RECORD LENGTH: 524288

 Memory used in sort:       1.46 MW

 SORT1 READ    22613812. AND WROTE      510312. INTEGRALS IN      2 RECORDS. CPU TIME:     1.55 SEC, REAL TIME:     1.61 SEC
 SORT2 READ    11897215. AND WROTE    20925119. INTEGRALS IN    414 RECORDS. CPU TIME:     0.18 SEC, REAL TIME:     0.26 SEC

 Node minimum:      897627.  Node maximum:      932430. integrals

 OPERATOR DM      FOR CENTER  0  COORDINATES:    0.000000    0.000000    0.000000

 EXTRA SYMMETRY OF AOS IN SYMMETRY 1:   1 1 1 1 1 1 1 1 1 1   1 1 1 1 1 1 1 1 1 1   1 1 2 1 2 1 2 1 2 1   2 1 2 1 2 1 2 1 2 1
                                        2 1 2 1 2 1 3 2 1 3   2 1 3 2 1 1 1 1 1 1   1 1 2 1 2
 EXTRA SYMMETRY OF AOS IN SYMMETRY 2:   1 1 1 1 1 1 1 1 1 1   1 1 1 1 1 1 1 1 1 2   1 2 1 2 1 2 1 2 1 2   1 2 1 1 1 1 1
 EXTRA SYMMETRY OF AOS IN SYMMETRY 3:   1 1 1 1 1 1 1 1 1 1   1 1 1 1 1 1 1 1 1 2   1 2 1 2 1 2 1 2 1 2   1 2 1 1 1 1 1
 EXTRA SYMMETRY OF AOS IN SYMMETRY 4:   1 1 1 1 1 1 1 1 1 1   1 1 1 2 1 2 1 2 1 1

 Eigenvalues of metric

         1 0.225E-04 0.104E-03 0.124E-03 0.499E-03 0.615E-03 0.139E-02 0.157E-02 0.265E-02
         2 0.636E-03 0.143E-02 0.156E-02 0.529E-02 0.204E-01 0.230E-01 0.512E-01 0.777E-01
         3 0.636E-03 0.143E-02 0.156E-02 0.529E-02 0.204E-01 0.230E-01 0.512E-01 0.777E-01
         4 0.157E-02 0.216E-01 0.689E-01 0.983E-01 0.122E+00 0.148E+00 0.171E+00 0.395E+00


 **********************************************************************************************************************************
 DATASETS  * FILE   NREC   LENGTH (MB)   RECORD NAMES
              1      22       20.70       500      610      700      900      950      970     1000      129      960     1700   
                                          VAR    BASINP    GEOM    SYMINP    ZMAT    AOBASIS   BASIS     P2S    ABASIS    OPER   
                                         1101     1401     1411     1412     1650     1100     1400     1410     1200     1210   
                                          SR      EKINR    POTR     PVPR    MOLCAS      S      EKIN      POT      H0       H01  
                                         1080     1600   
                                         AOSYM     SMH  

 PROGRAMS   *        TOTAL       INT
 CPU TIMES  *         8.76      8.41
 REAL TIME  *        10.11 SEC
 DISK USED  *       269.34 MB      
 GA USED    *         0.00 MB       (max)       0.00 MB       (current)
 **********************************************************************************************************************************

 Density functional group PBE0=PBEX+PBEC
 Functional: PBEX(Automatically generated (new) PBEX)                          Gradient terms: 1
 Functional: PBEC(Automatically generated (new) PBEC)                          Gradient terms: 1
 Use grid at  1800.2
 

 Exact exchange will be calculated, factor:  0.2500

 Functional: PBEX                      Factor:  0.7500
 Functional: PBEC                      Factor:  1.0000
 
 Generated new metagrid on record  1800.2 with target accuracy 1.0D-06 and 4194 points in CPU time    0.0
 Computed new grid on record 1800.1 in CPU time    0.0
  133744 words reserved for DFT integration

 PROGRAM * RKS-SCF (Restricted open shell Kohn-Sham)     Authors: W. Meyer, H.-J. Werner, P.J. Knowles, 1993

 NUMBER OF ELECTRONS:      24+   23-    SPACE SYMMETRY=1    SPIN SYMMETRY: Doublet 
 CONVERGENCE THRESHOLDS:    1.00E-05 (Density)    1.00E-06 (Energy)
 MAX. NUMBER OF ITERATIONS:       60
 INTERPOLATION TYPE:            DIIS
 INTERPOLATION STEPS:              2 (START)      1 (STEP)
 LEVEL SHIFTS:                 -0.60 (CLOSED) -0.30 (OPEN) 

 Number of closed-shell orbitals:   23 (  11   5   5   2 )
 Number of open-shell orbitals:      1 (   1   0   0   0 )


 Use fine grid record 1800.2 for energy threshold  1.0D-06
 Orbital guess generated from atomic densities. Full valence occupancy:   13   5   5   2

 Molecular orbital dump at record        2100.2

 ITERATION    DDIFF          GRAD             ENERGY        2-EL.EN.            DIPOLE MOMENTS         DIIS   ORB.
    1      0.000D+00      0.000D+00     -5021.63230599   3522.925488    0.00000    0.00000   -3.33355    0    start
    2      0.000D+00      0.866D-01     -5035.34257884   4453.273056    0.00000    0.00000    0.79018    1    diag,B
    3      0.969D+01      0.177D+00     -5041.30666809   4316.409563    0.00000    0.00000    0.36475    2    diag,B
    4      0.316D-01      0.957D-01     -5044.40527791   4206.186984    0.00000    0.00000   -0.13043    3    diag,B
    5      0.242D-01      0.448D-01     -5045.35929422   4135.478934    0.00000    0.00000   -0.50765    4    diag,B
    6      0.159D-01      0.161D-01     -5045.55300695   4090.708556    0.00000    0.00000   -0.74347    5    diag,B
    7      0.122D-01      0.158D-02     -5045.56036410   4086.643338    0.00000    0.00000   -0.71566    6    fixocc
    8      0.528D-02      0.128D-02     -5045.56267628   4086.876321    0.00000    0.00000   -0.64958    7    diag,B
    9      0.241D-02      0.565D-03     -5045.56321058   4087.482007    0.00000    0.00000   -0.60089    8    diag,B
   10      0.119D-02      0.158D-03     -5045.56336282   4087.681797    0.00000    0.00000   -0.56462    9    orth
   11      0.451D-03      0.575D-04     -5045.56340967   4087.691592    0.00000    0.00000   -0.54306    9    diag,B
   12      0.356D-03      0.343D-04     -5045.56341837   4087.641764    0.00000    0.00000   -0.53467    9    diag,B
   13      0.214D-03      0.144D-04     -5045.56342034   4087.607611    0.00000    0.00000   -0.53014    9    diag,B
   14      0.107D-03      0.320D-05     -5045.56342043   4087.606611    0.00000    0.00000   -0.52944    9    diag,B
   15      0.531D-04      0.119D-05     -5045.56342044   4087.606883    0.00000    0.00000   -0.52929    9    diag,B
   16      0.179D-04      0.393D-06     -5045.56342044   4087.606832    0.00000    0.00000   -0.52930    9    diag,B
   17      0.115D-04      0.153D-06     -5045.56342044   4087.606800    0.00000    0.00000   -0.52930    9    diag,B
   18      0.124D-05      0.583D-07     -5045.56342044   4087.606870    0.00000    0.00000   -0.52930    0    orth

 Final alpha occupancy:  12   5   5   2
 Final beta  occupancy:  11   5   5   2

 !RKS STATE 1.1 Energy              -5045.563420443368
 Nuclear energy                        21.56080753
 One-electron energy                -7001.21244733
 Two-electron energy                 2043.80343513
 Density functional                  -109.71521577     PBEX=-143.03418640 PBEC=  -2.43957597
 Virial quotient                       -0.88615233
 !RKS STATE 1.1 Dipole moment           0.00000000     0.00000000    -0.52929858
 Dipole moment /Debye                   0.00000000     0.00000000    -1.34525468

 Orbital energies:

         1.1          2.1          3.1          4.1          5.1          6.1          7.1          8.1          9.1         10.1
   -889.923806  -130.798878  -117.267188   -23.995036   -19.520306   -12.372195   -12.356311    -3.419009    -2.154509    -0.451462

        11.1         12.1         13.1         14.1
     -0.264865    -0.209688    -0.037762     0.011018

         1.2          2.2          3.2          4.2          5.2          6.2          7.2
   -117.260265   -19.501560   -12.368083    -2.102488    -0.297618    -0.012503     0.038490

         1.3          2.3          3.3          4.3          5.3          6.3          7.3
   -117.260265   -19.501560   -12.368083    -2.102488    -0.297618    -0.012503     0.038490

         1.4          2.4          3.4          4.4
    -12.356312    -0.264865     0.068268     0.260954

 HOMO     12.1    -0.209688 =      -5.7059eV
 LUMO     13.1    -0.037762 =      -1.0276eV
 LUMO-HOMO         0.171926 =       4.6783eV


 **********************************************************************************************************************************
 DATASETS  * FILE   NREC   LENGTH (MB)   RECORD NAMES
              1      23       20.70       500      610      700      900      950      970     1000      129      960     1700   
                                          VAR    BASINP    GEOM    SYMINP    ZMAT    AOBASIS   BASIS     P2S    ABASIS    OPER   
                                         1101     1401     1411     1412     1650     1100     1400     1410     1200     1210   
                                          SR      EKINR    POTR     PVPR    MOLCAS      S      EKIN      POT      H0       H01  
                                         1080     1600     1800   
                                         AOSYM     SMH     GRID   

              2       5        3.01       700     1000      520     1800     2100   
                                         GEOM     BASIS   MCVARS    GRID      RKS  

 PROGRAMS   *        TOTAL       RKS       INT
 CPU TIMES  *        10.17      1.40      8.41
 REAL TIME  *        12.09 SEC
 DISK USED  *       841.18 MB      
 SF USED    *         0.03 MB      
 GA USED    *         0.20 MB       (max)       0.20 MB       (current)
 **********************************************************************************************************************************


 PROGRAM * RHF-SCF (OPEN SHELL)       Authors: W. Meyer, H.-J. Werner


 NUMBER OF ELECTRONS:      24+   23-    SPACE SYMMETRY=1    SPIN SYMMETRY: Doublet 
 CONVERGENCE THRESHOLDS:    1.00E-05 (Density)    1.00E-07 (Energy)
 MAX. NUMBER OF ITERATIONS:       60
 INTERPOLATION TYPE:            DIIS
 INTERPOLATION STEPS:              2 (START)      1 (STEP)
 LEVEL SHIFTS:                 -0.60 (CLOSED) -0.30 (OPEN) 

 Number of closed-shell orbitals:   23 (  11   5   5   2 )
 Number of open-shell orbitals:      1 (   1   0   0   0 )


 Molecular orbitals read from record     2100.2  Type=RKS/CANONICAL (state 1.1)

 Molecular orbital dump at record        2101.2

 ITERATION    DDIFF          GRAD             ENERGY        2-EL.EN.            DIPOLE MOMENTS         DIIS   ORB.
    1      0.000D+00      0.000D+00     -5043.27834289   3872.746594    0.00000    0.00000   -0.52930    0    start
    2      0.000D+00      0.131D-01     -5043.29324009   3873.104719    0.00000    0.00000   -0.58727    1    diag,B
    3      0.843D-02      0.117D-02     -5043.29453053   3873.658672    0.00000    0.00000   -0.62561    2    diag,B
    4      0.120D-02      0.398D-03     -5043.29498789   3873.482304    0.00000    0.00000   -0.66320    3    diag,B
    5      0.644D-03      0.196D-03     -5043.29515599   3873.711893    0.00000    0.00000   -0.68771    4    diag,B
    6      0.441D-03      0.110D-03     -5043.29520969   3873.595805    0.00000    0.00000   -0.70530    5    diag,B
    7      0.253D-03      0.472D-04     -5043.29522768   3873.598408    0.00000    0.00000   -0.71772    6    diag,B
    8      0.169D-03      0.184D-04     -5043.29523146   3873.601442    0.00000    0.00000   -0.72235    7    orth
    9      0.844D-04      0.111D-04     -5043.29523363   3873.604001    0.00000    0.00000   -0.72642    8    diag,B
   10      0.848D-04      0.604D-05     -5043.29523429   3873.609468    0.00000    0.00000   -0.72854    9    diag,B
   11      0.225D-04      0.377D-05     -5043.29523462   3873.615744    0.00000    0.00000   -0.73032    9    diag,B
   12      0.229D-04      0.196D-05     -5043.29523470   3873.618587    0.00000    0.00000   -0.73134    9    diag,B
   13      0.136D-04      0.876D-06     -5043.29523471   3873.619950    0.00000    0.00000   -0.73174    9    diag,B
   14      0.920D-05      0.336D-06     -5043.29523471   3873.619958    0.00000    0.00000   -0.73178    0    orth

 Final alpha occupancy:  12   5   5   2
 Final beta  occupancy:  11   5   5   2

 !RHF STATE 1.1 Energy              -5043.295234708264
 Nuclear energy                        21.56080753
 One-electron energy                -7001.66602124
 Two-electron energy                 1936.80997900
 Virial quotient                       -0.88552876
 !RHF STATE 1.1 Dipole moment           0.00000000     0.00000000    -0.73177741
 Dipole moment /Debye                   0.00000000     0.00000000    -1.85987083

 Orbital energies:

         1.1          2.1          3.1          4.1          5.1          6.1          7.1          8.1          9.1         10.1
   -899.536933  -134.495305  -120.389481   -25.650153   -20.896212   -13.309794   -13.303257    -3.965060    -2.550877    -0.581926

        11.1         12.1         13.1         14.1
     -0.415382    -0.270364     0.014881     0.026112

         1.2          2.2          3.2          4.2          5.2          6.2          7.2
   -120.383922   -20.877290   -13.315969    -2.507786    -0.452447     0.023157     0.076301

         1.3          2.3          3.3          4.3          5.3          6.3          7.3
   -120.383922   -20.877290   -13.315969    -2.507786    -0.452447     0.023157     0.076301

         1.4          2.4          3.4          4.4
    -13.303257    -0.415382     0.099781     0.335825

 HOMO     12.1    -0.270364 =      -7.3570eV
 LUMO     13.1     0.014881 =       0.4049eV
 LUMO-HOMO         0.285245 =       7.7619eV


 **********************************************************************************************************************************
 DATASETS  * FILE   NREC   LENGTH (MB)   RECORD NAMES
              1      23       20.70       500      610      700      900      950      970     1000      129      960     1700   
                                          VAR    BASINP    GEOM    SYMINP    ZMAT    AOBASIS   BASIS     P2S    ABASIS    OPER   
                                         1101     1401     1411     1412     1650     1100     1400     1410     1200     1210   
                                          SR      EKINR    POTR     PVPR    MOLCAS      S      EKIN      POT      H0       H01  
                                         1080     1600     1800   
                                         AOSYM     SMH     GRID   

              2       6        5.80       700     1000      520     1800     2100     2101   
                                         GEOM     BASIS   MCVARS    GRID      RKS      RHF  

 PROGRAMS   *        TOTAL       RHF       RKS       INT
 CPU TIMES  *        11.99      1.80      1.40      8.41
 REAL TIME  *        14.19 SEC
 DISK USED  *       905.43 MB      
 SF USED    *         0.03 MB      
 GA USED    *         0.20 MB       (max)       0.20 MB       (current)
 **********************************************************************************************************************************
 SETTING BASIS          =    USERDEF


 Recomputing integrals since basis changed


 Using spherical harmonics



 PROGRAM * SEWARD (Integral evaluation for generally contracted gaussian basis sets)     Author: Roland Lindh, 1990

 Geometry written to block  1 of record 700


 Point group  C2v 



 ATOMIC COORDINATES

 NR  ATOM    CHARGE       X              Y              Z

   1  PD     46.00    0.000000000    0.000000000    0.000000000
   2  H       1.00    0.000000000    0.000000000    2.133500795

 Bond lengths in Bohr (Angstrom)

 1-2  2.133500795
     ( 1.129000000)

 NUCLEAR CHARGE:                   47
 NUMBER OF PRIMITIVE AOS:         312
 NUMBER OF SYMMETRY AOS:          263
 NUMBER OF CONTRACTIONS:          263   ( 116A1  +  59B1  +  59B2  +  29A2  )
 NUMBER OF CORE ORBITALS:          18   (   9A1  +   4B1  +   4B2  +   1A2  )
 NUMBER OF VALENCE ORBITALS:        7   (   4A1  +   1B1  +   1B2  +   1A2  )


 NUCLEAR REPULSION ENERGY   21.56080753

 One-electron integrals computed with SEWARD

 10nd-order Douglas-Kroll-Hess method activated. McWeeny DKH parametrization is used.

 Computing Douglas-Kroll / X2C integrals

 AO integral compression algorithm  1   Integral accuracy      1.0D-12

     520.880 MB (compressed) written to integral file ( 38.0%)

     Node minimum: 6.291 MB, node maximum: 54.264 MB


 NUMBER OF SORTED TWO-ELECTRON INTEGRALS:    6738189.     BUFFER LENGTH:  32768
 NUMBER OF SEGMENTS:   1  SEGMENT LENGTH:    6738189      RECORD LENGTH: 524288

 Memory used in sort:       7.30 MW

 SORT1 READ   171363336. AND WROTE     2814416. INTEGRALS IN      9 RECORDS. CPU TIME:    11.08 SEC, REAL TIME:    12.56 SEC
 SORT2 READ    66329080. AND WROTE   156329493. INTEGRALS IN   1610 RECORDS. CPU TIME:     0.62 SEC, REAL TIME:     0.76 SEC

 Node minimum:     6738189.  Node maximum:     6815662. integrals

 OPERATOR DM      FOR CENTER  0  COORDINATES:    0.000000    0.000000    0.000000

 EXTRA SYMMETRY OF AOS IN SYMMETRY 1:   1 1 1 1 1 1 1 1 1 1   1 1 1 1 1 1 1 1 1 1   1 1 1 1 1 1 1 1 1 1   1 1 1 1 1 1 1 1 1 1
                                        1 1 1 1 1 1 1 1 1 1   1 1 1 2 1 2 1 2 1 2   1 2 1 2 1 2 1 2 1 2   1 2 1 2 1 2 1 2 1 2
                                        1 2 1 2 1 2 1 2 1 2   1 2 1 2 1 3 2 1 3 2   1 3 2 1 1 1 1 1 1 1   1 1 1 2 1 2
 EXTRA SYMMETRY OF AOS IN SYMMETRY 2:   1 1 1 1 1 1 1 1 1 1   1 1 1 1 1 1 1 1 1 1   1 1 1 1 1 1 1 1 1 1   1 1 1 1 1 1 1 1 1 1
                                        1 2 1 2 1 2 1 2 1 2   1 2 1 2 1 1 1 1 1
 EXTRA SYMMETRY OF AOS IN SYMMETRY 3:   1 1 1 1 1 1 1 1 1 1   1 1 1 1 1 1 1 1 1 1   1 1 1 1 1 1 1 1 1 1   1 1 1 1 1 1 1 1 1 1
                                        1 2 1 2 1 2 1 2 1 2   1 2 1 2 1 1 1 1 1
 EXTRA SYMMETRY OF AOS IN SYMMETRY 4:   1 1 1 1 1 1 1 1 1 1   1 1 1 1 1 1 1 1 1 1   1 1 2 1 2 1 2 1 1

 Eigenvalues of metric

         1 0.871E-06 0.180E-05 0.883E-05 0.951E-05 0.228E-04 0.320E-04 0.110E-03 0.175E-03
         2 0.981E-06 0.925E-05 0.293E-03 0.471E-03 0.162E-02 0.293E-02 0.405E-02 0.502E-02
         3 0.981E-06 0.925E-05 0.293E-03 0.471E-03 0.162E-02 0.293E-02 0.405E-02 0.502E-02
         4 0.951E-05 0.307E-03 0.302E-02 0.107E-01 0.283E-01 0.508E-01 0.734E-01 0.103E+00


 **********************************************************************************************************************************
 DATASETS  * FILE   NREC   LENGTH (MB)   RECORD NAMES
              1      22       21.38       500      610      700      900      950      970     1001      129      960     1700   
                                          VAR    BASINP    GEOM    SYMINP    ZMAT    AOBASIS   BASIS     P2S    ABASIS    OPER   
                                         1101     1401     1411     1412     1650     1100     1400     1410     1200     1210   
                                          SR      EKINR    POTR     PVPR    MOLCAS      S      EKIN      POT      H0       H01  
                                         1080     1600   
                                         AOSYM     SMH  

              2       7        5.94       700     1000      520     1800     2100     2101     1001   
                                         GEOM     BASIS   MCVARS    GRID      RKS      RHF     BASIS   

 PROGRAMS   *        TOTAL       INT       RHF       RKS       INT
 CPU TIMES  *        43.97     31.98      1.80      1.40      8.41
 REAL TIME  *        51.33 SEC
 DISK USED  *         2.00 GB      
 SF USED    *         0.03 MB      
 GA USED    *         0.20 MB       (max)       0.00 MB       (current)
 **********************************************************************************************************************************


 PROGRAM * RHF-SCF (OPEN SHELL)       Authors: W. Meyer, H.-J. Werner


 NUMBER OF ELECTRONS:      24+   23-    SPACE SYMMETRY=1    SPIN SYMMETRY: Doublet 
 CONVERGENCE THRESHOLDS:    1.00E-05 (Density)    1.00E-07 (Energy)
 MAX. NUMBER OF ITERATIONS:       60
 INTERPOLATION TYPE:            DIIS
 INTERPOLATION STEPS:              2 (START)      1 (STEP)
 LEVEL SHIFTS:                 -0.60 (CLOSED) -0.30 (OPEN) 

 Number of closed-shell orbitals:   23 (  11   5   5   2 )
 Number of open-shell orbitals:      1 (   1   0   0   0 )


 Molecular orbitals read from record     2101.2  Type=RHF/CANONICAL (state 1.1)
 
 Present basis size:     116  59  59  29
 Previous basis size:     65  37  37  20
 Previous occupation:     12   5   5   2
 Previous closed-shells:  11   5   5   2
 Previous core-orbitals:   9   4   4   1
 Present occupation:      12   5   5   2
 Present closed-shells:   11   5   5   2
 Present core-orbitals:    9   4   4   1
 Wavefunction symmetry:    1   Doublet 

 Orbital overlap <old|new>:  < 1.1| 1.1> = 1.000000   < 2.1| 2.1> = 1.000000   < 3.1| 3.1> = 1.000000   < 4.1| 4.1> = 1.000000
                             < 5.1| 5.1> = 1.000000   < 6.1| 6.1> = 1.000000   < 7.1| 7.1> = 1.000000   < 8.1| 8.1> = 1.000000
                             < 9.1| 9.1> = 1.000000   < 1.2| 1.2> = 1.000000   < 2.2| 2.2> = 1.000000   < 3.2| 3.2> = 1.000000
                             < 4.2| 4.2> = 1.000000   < 1.3| 1.3> = 1.000000   < 2.3| 2.3> = 1.000000   < 3.3| 3.3> = 1.000000
                             < 4.3| 4.3> = 1.000000   < 1.4| 1.4> = 1.000000   <10.1|10.1> = 1.000000   <11.1|11.1> = 1.000000
                             < 5.2| 5.2> = 1.000000   < 5.3| 5.3> = 1.000000   < 2.4| 2.4> = 1.000000   <12.1|12.1> = 1.000000

 Molecular orbital dump at record        2102.2

 ITERATION    DDIFF          GRAD             ENERGY        2-EL.EN.            DIPOLE MOMENTS         DIIS   ORB.
    1      0.000D+00      0.000D+00     -5043.29523388   3873.619957    0.00000    0.00000   -0.73178    0    start
    2      0.000D+00      0.670D-01     -5043.29579575   3873.664643    0.00000    0.00000   -0.73184    1    diag,B
    3      0.608D-02      0.106D-03     -5043.29579685   3873.655994    0.00000    0.00000   -0.73190    2    diag,B
    4      0.837D-03      0.817D-05     -5043.29579695   3873.660557    0.00000    0.00000   -0.73195    3    diag,B
    5      0.285D-03      0.257D-05     -5043.29579696   3873.658241    0.00000    0.00000   -0.73198    4    diag,B
    6      0.127D-03      0.104D-05     -5043.29579697   3873.659718    0.00000    0.00000   -0.73200    5    diag,B
    7      0.600D-04      0.335D-06     -5043.29579697   3873.659307    0.00000    0.00000   -0.73201    6    diag,B
    8      0.213D-04      0.978D-07     -5043.29579697   3873.659508    0.00000    0.00000   -0.73202    7    orth
    9      0.433D-05      0.424D-07     -5043.29579697   3873.659481    0.00000    0.00000   -0.73203    0    orth

 Final alpha occupancy:  12   5   5   2
 Final beta  occupancy:  11   5   5   2

 !RHF STATE 1.1 Energy              -5043.295796968428
 Nuclear energy                        21.56080753
 One-electron energy                -7001.68634523
 Two-electron energy                 1936.82974073
 Virial quotient                       -0.88510541
 !RHF STATE 1.1 Dipole moment           0.00000000     0.00000000    -0.73202797
 Dipole moment /Debye                   0.00000000     0.00000000    -1.86050765

 Orbital energies:

         1.1          2.1          3.1          4.1          5.1          6.1          7.1          8.1          9.1         10.1
   -899.530434  -134.494941  -120.388548   -25.650158   -20.896100   -13.309816   -13.303320    -3.965069    -2.550876    -0.581959

        11.1         12.1         13.1         14.1
     -0.415390    -0.270376     0.014866     0.025807

         1.2          2.2          3.2          4.2          5.2          6.2          7.2
   -120.383021   -20.877204   -13.316001    -2.507776    -0.452456     0.023145     0.076209

         1.3          2.3          3.3          4.3          5.3          6.3          7.3
   -120.383021   -20.877204   -13.316001    -2.507776    -0.452456     0.023145     0.076209

         1.4          2.4          3.4          4.4
    -13.303320    -0.415390     0.098974     0.327749

 HOMO     12.1    -0.270376 =      -7.3573eV
 LUMO     13.1     0.014866 =       0.4045eV
 LUMO-HOMO         0.285241 =       7.7618eV


 **********************************************************************************************************************************
 DATASETS  * FILE   NREC   LENGTH (MB)   RECORD NAMES
              1      22       21.38       500      610      700      900      950      970     1001      129      960     1700   
                                          VAR    BASINP    GEOM    SYMINP    ZMAT    AOBASIS   BASIS     P2S    ABASIS    OPER   
                                         1101     1401     1411     1412     1650     1100     1400     1410     1200     1210   
                                          SR      EKINR    POTR     PVPR    MOLCAS      S      EKIN      POT      H0       H01  
                                         1080     1600   
                                         AOSYM     SMH  

              2       8        9.03       700     1000      520     1800     2100     2101     1001     2102   
                                         GEOM     BASIS   MCVARS    GRID      RKS      RHF     BASIS     RHF  

 PROGRAMS   *        TOTAL       RHF       INT       RHF       RKS       INT
 CPU TIMES  *        45.63      1.66     31.98      1.80      1.40      8.41
 REAL TIME  *        53.17 SEC
 DISK USED  *         2.12 GB      
 SF USED    *         0.09 MB      
 GA USED    *         0.20 MB       (max)       0.00 MB       (current)
 **********************************************************************************************************************************
 SETTING E_PD           =     -5044.36637900                                  
 SETTING E_H            =        -0.49982785                                  
 SETTING SCF            =     -5043.29579697  AU                              
 SETTING _CC_NORM_MAX   =         2.00000000                                  


 PROGRAM * CCSD (Restricted open-shell coupled cluster)     Authors: C. Hampel, H.-J. Werner, 1991, M. Deegan, P.J. Knowles, 1992


 Convergence thresholds:  THRVAR = 1.00D-08  THRDEN = 1.00D-06

 CCSD(T)     terms to be evaluated (factor= 1.000)


 Number of closed-shell orbitals:  23 (  11   5   5   2 )
 Number of active  orbitals:        1 (   1   0   0   0 )
 Number of external orbitals:     239 ( 104  54  54  27 )

 Memory could be reduced to 156.26 Mwords without degradation in triples

 Number of N-1 electron functions:              47
 Number of N-2 electron functions:            1081
 Number of singly external CSFs:              3603
 Number of doubly external CSFs:          12114663
 Total number of CSFs:                    12118266

 Molecular orbitals read from record     2102.2  Type=RHF/CANONICAL (state 1.1)

 Integral transformation finished. Total CPU:   6.86 sec, npass=  1  Memory used:  16.31 MW

 Starting RMP2 calculation

 Wavefunction is spin-projected

 ITER.      SQ.NORM     CORR.ENERGY   TOTAL ENERGY   ENERGY CHANGE        DEN1      VAR(S)    VAR(P)  DIIS     TIME
   1      1.16268976    -1.62586971 -5044.92166668    -1.62586971    -0.00130345  0.66D-05  0.48D-03  1  1    15.24
   2      1.16380459    -1.62723734 -5044.92303431    -0.00136763    -0.00000288  0.11D-06  0.17D-05  2  2    24.92
   3      1.16386070    -1.62727419 -5044.92307115    -0.00003685    -0.00000001  0.29D-08  0.67D-08  3  3    32.75
   4      1.16386219    -1.62727443 -5044.92307140    -0.00000025    -0.00000000  0.10D-09  0.26D-10  4  4    39.10

 Norm of t1 vector:      0.02273268      S-energy:    -0.00095100      T1 diagnostic:  0.00012708
 Norm of t2 vector:      0.40416014      P-energy:    -1.62632343
                                         Alpha-Beta:  -1.09313602
                                         Alpha-Alpha: -0.27669054
                                         Beta-Beta:   -0.25649687

 Spin contamination <S**2-Sz**2-Sz>     0.00000000
  Reference energy                  -5043.295796968437
  RHF-RMP2 correlation energy          -1.627274431415
 !RHF-RMP2 energy                   -5044.923071399851
 (NB above energy spin projected)

 Starting RCCSD calculation

 ITER.      SQ.NORM     CORR.ENERGY   TOTAL ENERGY   ENERGY CHANGE        DEN1      VAR(S)    VAR(P)  DIIS     TIME
   1      1.12766740    -1.50811982 -5044.80391679    -1.50811982    -0.03136633  0.34D-02  0.44D-02  0  0    69.11
   2      1.14066039    -1.53737165 -5044.83316862    -0.02925183    -0.00212774  0.26D-03  0.56D-03  1  1   106.45
   3      1.14166990    -1.53391458 -5044.82971154     0.00345708    -0.00025569  0.21D-03  0.38D-04  2  2   156.49
   4      1.14427865    -1.53490057 -5044.83069754    -0.00098600    -0.00006363  0.61D-04  0.96D-05  3  3   202.89
   5      1.14659534    -1.53548095 -5044.83127792    -0.00058038    -0.00001184  0.15D-04  0.12D-05  4  4   243.77
   6      1.14758189    -1.53554242 -5044.83133939    -0.00006147    -0.00000258  0.38D-05  0.21D-06  5  5   284.25
   7      1.14805114    -1.53556769 -5044.83136465    -0.00002527    -0.00000067  0.91D-06  0.59D-07  6  6   329.66
   8      1.14821174    -1.53557074 -5044.83136771    -0.00000305    -0.00000013  0.13D-06  0.20D-07  6  1   358.93
   9      1.14829216    -1.53557601 -5044.83137298    -0.00000528    -0.00000002  0.16D-07  0.51D-08  6  5   388.73
  10      1.14830164    -1.53557712 -5044.83137409    -0.00000111    -0.00000000  0.19D-08  0.36D-09  6  2   419.25
  11      1.14829939    -1.53557612 -5044.83137309     0.00000100    -0.00000000  0.34D-09  0.82D-10  6  3   449.36
  12      1.14830106    -1.53557632 -5044.83137329    -0.00000020    -0.00000000  0.67D-10  0.12D-10  6  4   479.87

 Norm of t1 vector:      0.10427676      S-energy:    -0.00095888      T1 diagnostic:  0.01046547
                                                                       D1 diagnostic:  0.05291423
 Norm of t2 vector:      0.37071205      P-energy:    -1.53461744
                                         Alpha-Beta:  -1.05911017
                                         Alpha-Alpha: -0.24641930
                                         Beta-Beta:   -0.22908797

 Spin contamination <S**2-Sz**2-Sz>     0.00000000

 Memory could be reduced to 172.83 Mwords without degradation in triples
 

  Correlated core orbitals:             1.1       2.1       3.1       4.1       5.1       6.1       7.1       8.1       9.1       1.2
                                        2.2       3.2       4.2       1.3       2.3       3.3       4.3       1.4
  Orbital energies:                  -899.5311 -134.4969 -120.3904  -25.6522  -20.8996  -13.3168  -13.3036   -3.9761   -2.5690 -120.3843
                                      -20.8776  -13.3172   -2.5145 -120.3843  -20.8776  -13.3172   -2.5145  -13.3036
 
  RCCSD core-core energy               -0.838386446326
  RCCSD core-valence energy            -0.318168162152
  RCCSD valence correlation energy     -0.379021712284
 

 RESULTS
 =======

  Reference energy                  -5043.295796968437
  RCCSD singles energy                 -0.000958883286
  RCCSD pair energy                    -1.534617437476
  RCCSD correlation energy             -1.535576320762
  Triples (T) contribution             -0.034497757743
  Total correlation energy             -1.570074078505
 
  RHF-RCCSD energy                  -5044.831373289198
  RHF-RCCSD[T] energy               -5044.867060738455
  RHF-RCCSD-T energy                -5044.865616993977
 !RHF-RCCSD(T) energy               -5044.865871046942

 Program statistics:

 Available memory in ccsd:               511995052
 Min. memory needed in ccsd:              33536188
 Max. memory used in ccsd:                49128406
 Max. memory used in cckext:              40408815 (12 integral passes)
 Max. memory used in cckint:              16314950 ( 1 integral passes)



 **********************************************************************************************************************************
 DATASETS  * FILE   NREC   LENGTH (MB)   RECORD NAMES
              1      22       21.38       500      610      700      900      950      970     1001      129      960     1700   
                                          VAR    BASINP    GEOM    SYMINP    ZMAT    AOBASIS   BASIS     P2S    ABASIS    OPER   
                                         1101     1401     1411     1412     1650     1100     1400     1410     1200     1210   
                                          SR      EKINR    POTR     PVPR    MOLCAS      S      EKIN      POT      H0       H01  
                                         1080     1600   
                                         AOSYM     SMH  

              2       8        9.03       700     1000      520     1800     2100     2101     1001     2102   
                                         GEOM     BASIS   MCVARS    GRID      RKS      RHF     BASIS     RHF  

 PROGRAMS   *        TOTAL  RCCSD(T)       RHF       INT       RHF       RKS       INT
 CPU TIMES  *       812.55    766.85      1.66     31.98      1.80      1.40      8.41
 REAL TIME  *      1335.69 SEC
 DISK USED  *        37.50 GB      
 SF USED    *         3.36 GB      
 GA USED    *         0.20 MB       (max)       0.00 MB       (current)
 **********************************************************************************************************************************
 SETTING CCSD           =     -5044.86587105  AU                              
 SETTING BE             =         0.00033580  AU                              
 Output type csv         
                                                                                                                                                                                                                                                                

         SCF,CCSD,BE
   -5043.295797,   -5044.865871,   0.00033580
                                                  

 RCCSD(T)/USERDEF energy=  -5044.865871046942

        RCCSD(T)        RHF-SCF         RHF-SCF         RKS-SCF 
  -5044.86587105  -5043.29579697  -5043.29523471  -5045.56342044
 **********************************************************************************************************************************
 Molpro calculation terminated
 Variable memory released
