/global/cscratch1/sd/bkincaid/cutoffs/Pd/250-610/runs/scf_370

     Program PWSCF v.6.4.1 starts on 17Jan2022 at 15:42:56 

     This program is part of the open-source Quantum ESPRESSO suite
     for quantum simulation of materials; please cite
         "P. Giannozzi et al., J. Phys.:Condens. Matter 21 395502 (2009);
         "P. Giannozzi et al., J. Phys.:Condens. Matter 29 465901 (2017);
          URL http://www.quantum-espresso.org", 
     in publications or presentations arising from this work. More details at
     http://www.quantum-espresso.org/quote

     Parallel version (MPI & OpenMP), running on      32 processor cores
     Number of MPI processes:                32
     Threads/MPI process:                     1

     MPI processes distributed on     1 nodes
     R & G space division:  proc/nbgrp/npool/nimage =      32
     Reading input from scf_370.in

     Current dimensions of program PWSCF are:
     Max number of different atomic species (ntypx) = 10
     Max number of k-points (npk) =  40000
     Max angular momentum in pseudopotentials (lmaxx) =  3

     IMPORTANT: XC functional enforced from input :
     Exchange-correlation      = PBE ( 1  4  3  4 0 0)
     Any further DFT definition will be discarded
     Please, verify this is what you really want


     gamma-point specific algorithms are used

     Subspace diagonalization in iterative solution of the eigenvalue problem:
     one sub-group per band group will be used
     scalapack distributed-memory algorithm (size of sub-group:  4*  4 procs)

     Message from routine setup:
     DEPRECATED: symmetry with ibrav=0, use correct ibrav instead
 
     Parallelization info
     --------------------
     sticks:   dense  smooth     PW     G-vecs:    dense   smooth      PW
     Min        1891    1891    472               350435   350435   43784
     Max        1894    1894    474               350450   350450   43798
     Sum       60569   60569  15153             11214149 11214149 1401387
 


     bravais-lattice index     =            0
     lattice parameter (alat)  =      22.6767  a.u.
     unit-cell volume          =   11661.1222 (a.u.)^3
     number of atoms/cell      =            1
     number of atomic types    =            1
     number of electrons       =        18.00 (up:   9.00, down:   9.00)
     number of Kohn-Sham states=           12
     kinetic-energy cutoff     =     370.0000  Ry
     charge density cutoff     =    1480.0000  Ry
     convergence threshold     =      1.0E-06
     mixing beta               =       0.7000
     number of iterations used =            8  plain     mixing
     Exchange-correlation      = PBE ( 1  4  3  4 0 0)

     celldm(1)=  22.676714  celldm(2)=   0.000000  celldm(3)=   0.000000
     celldm(4)=   0.000000  celldm(5)=   0.000000  celldm(6)=   0.000000

     crystal axes: (cart. coord. in units of alat)
               a(1) = (   1.000000   0.000000   0.000000 )  
               a(2) = (   0.000000   1.000000   0.000000 )  
               a(3) = (   0.000000   0.000000   1.000000 )  

     reciprocal axes: (cart. coord. in units 2 pi/alat)
               b(1) = (  1.000000  0.000000  0.000000 )  
               b(2) = (  0.000000  1.000000  0.000000 )  
               b(3) = (  0.000000  0.000000  1.000000 )  


     PseudoPot. # 1 for Pd read from file:
     ./Pd.upf
     MD5 check sum: 2db6b29890942ac22920366b342684d2
     Pseudo is Norm-conserving, Zval = 18.0
     Generated by new atomic code, or converted to UPF format
     Using radial grid of 1174 points,  2 beta functions with: 
                l(1) =   0
                l(2) =   2

     atomic species   valence    mass     pseudopotential
        Pd            18.00   106.42000     Pd( 1.00)

     Starting magnetic structure 
     atomic species   magnetization
        Pd           0.500

     48 Sym. Ops., with inversion, found


                                    s                        frac. trans.

      isym =  1     identity                                     

 cryst.   s( 1) = (     1          0          0      )
                  (     0          1          0      )
                  (     0          0          1      )

 cart.    s( 1) = (  1.0000000  0.0000000  0.0000000 )
                  (  0.0000000  1.0000000  0.0000000 )
                  (  0.0000000  0.0000000  1.0000000 )


      isym =  2     180 deg rotation - cart. axis [0,0,1]        

 cryst.   s( 2) = (    -1          0          0      )
                  (     0         -1          0      )
                  (     0          0          1      )

 cart.    s( 2) = ( -1.0000000  0.0000000  0.0000000 )
                  (  0.0000000 -1.0000000  0.0000000 )
                  (  0.0000000  0.0000000  1.0000000 )


      isym =  3     180 deg rotation - cart. axis [0,1,0]        

 cryst.   s( 3) = (    -1          0          0      )
                  (     0          1          0      )
                  (     0          0         -1      )

 cart.    s( 3) = ( -1.0000000  0.0000000  0.0000000 )
                  (  0.0000000  1.0000000  0.0000000 )
                  (  0.0000000  0.0000000 -1.0000000 )


      isym =  4     180 deg rotation - cart. axis [1,0,0]        

 cryst.   s( 4) = (     1          0          0      )
                  (     0         -1          0      )
                  (     0          0         -1      )

 cart.    s( 4) = (  1.0000000  0.0000000  0.0000000 )
                  (  0.0000000 -1.0000000  0.0000000 )
                  (  0.0000000  0.0000000 -1.0000000 )


      isym =  5     180 deg rotation - cart. axis [1,1,0]        

 cryst.   s( 5) = (     0          1          0      )
                  (     1          0          0      )
                  (     0          0         -1      )

 cart.    s( 5) = (  0.0000000  1.0000000  0.0000000 )
                  (  1.0000000  0.0000000  0.0000000 )
                  (  0.0000000  0.0000000 -1.0000000 )


      isym =  6     180 deg rotation - cart. axis [1,-1,0]       

 cryst.   s( 6) = (     0         -1          0      )
                  (    -1          0          0      )
                  (     0          0         -1      )

 cart.    s( 6) = (  0.0000000 -1.0000000  0.0000000 )
                  ( -1.0000000  0.0000000  0.0000000 )
                  (  0.0000000  0.0000000 -1.0000000 )


      isym =  7      90 deg rotation - cart. axis [0,0,-1]       

 cryst.   s( 7) = (     0         -1          0      )
                  (     1          0          0      )
                  (     0          0          1      )

 cart.    s( 7) = (  0.0000000  1.0000000  0.0000000 )
                  ( -1.0000000  0.0000000  0.0000000 )
                  (  0.0000000  0.0000000  1.0000000 )


      isym =  8      90 deg rotation - cart. axis [0,0,1]        

 cryst.   s( 8) = (     0          1          0      )
                  (    -1          0          0      )
                  (     0          0          1      )

 cart.    s( 8) = (  0.0000000 -1.0000000  0.0000000 )
                  (  1.0000000  0.0000000  0.0000000 )
                  (  0.0000000  0.0000000  1.0000000 )


      isym =  9     180 deg rotation - cart. axis [1,0,1]        

 cryst.   s( 9) = (     0          0          1      )
                  (     0         -1          0      )
                  (     1          0          0      )

 cart.    s( 9) = (  0.0000000  0.0000000  1.0000000 )
                  (  0.0000000 -1.0000000  0.0000000 )
                  (  1.0000000  0.0000000  0.0000000 )


      isym = 10     180 deg rotation - cart. axis [-1,0,1]       

 cryst.   s(10) = (     0          0         -1      )
                  (     0         -1          0      )
                  (    -1          0          0      )

 cart.    s(10) = (  0.0000000  0.0000000 -1.0000000 )
                  (  0.0000000 -1.0000000  0.0000000 )
                  ( -1.0000000  0.0000000  0.0000000 )


      isym = 11      90 deg rotation - cart. axis [0,1,0]        

 cryst.   s(11) = (     0          0         -1      )
                  (     0          1          0      )
                  (     1          0          0      )

 cart.    s(11) = (  0.0000000  0.0000000  1.0000000 )
                  (  0.0000000  1.0000000  0.0000000 )
                  ( -1.0000000  0.0000000  0.0000000 )


      isym = 12      90 deg rotation - cart. axis [0,-1,0]       

 cryst.   s(12) = (     0          0          1      )
                  (     0          1          0      )
                  (    -1          0          0      )

 cart.    s(12) = (  0.0000000  0.0000000 -1.0000000 )
                  (  0.0000000  1.0000000  0.0000000 )
                  (  1.0000000  0.0000000  0.0000000 )


      isym = 13     180 deg rotation - cart. axis [0,1,1]        

 cryst.   s(13) = (    -1          0          0      )
                  (     0          0          1      )
                  (     0          1          0      )

 cart.    s(13) = ( -1.0000000  0.0000000  0.0000000 )
                  (  0.0000000  0.0000000  1.0000000 )
                  (  0.0000000  1.0000000  0.0000000 )


      isym = 14     180 deg rotation - cart. axis [0,1,-1]       

 cryst.   s(14) = (    -1          0          0      )
                  (     0          0         -1      )
                  (     0         -1          0      )

 cart.    s(14) = ( -1.0000000  0.0000000  0.0000000 )
                  (  0.0000000  0.0000000 -1.0000000 )
                  (  0.0000000 -1.0000000  0.0000000 )


      isym = 15      90 deg rotation - cart. axis [-1,0,0]       

 cryst.   s(15) = (     1          0          0      )
                  (     0          0         -1      )
                  (     0          1          0      )

 cart.    s(15) = (  1.0000000  0.0000000  0.0000000 )
                  (  0.0000000  0.0000000  1.0000000 )
                  (  0.0000000 -1.0000000  0.0000000 )


      isym = 16      90 deg rotation - cart. axis [1,0,0]        

 cryst.   s(16) = (     1          0          0      )
                  (     0          0          1      )
                  (     0         -1          0      )

 cart.    s(16) = (  1.0000000  0.0000000  0.0000000 )
                  (  0.0000000  0.0000000 -1.0000000 )
                  (  0.0000000  1.0000000  0.0000000 )


      isym = 17     120 deg rotation - cart. axis [-1,-1,-1]     

 cryst.   s(17) = (     0          0          1      )
                  (     1          0          0      )
                  (     0          1          0      )

 cart.    s(17) = (  0.0000000  1.0000000  0.0000000 )
                  (  0.0000000  0.0000000  1.0000000 )
                  (  1.0000000  0.0000000  0.0000000 )


      isym = 18     120 deg rotation - cart. axis [-1,1,1]       

 cryst.   s(18) = (     0          0         -1      )
                  (    -1          0          0      )
                  (     0          1          0      )

 cart.    s(18) = (  0.0000000 -1.0000000  0.0000000 )
                  (  0.0000000  0.0000000  1.0000000 )
                  ( -1.0000000  0.0000000  0.0000000 )


      isym = 19     120 deg rotation - cart. axis [1,1,-1]       

 cryst.   s(19) = (     0          0         -1      )
                  (     1          0          0      )
                  (     0         -1          0      )

 cart.    s(19) = (  0.0000000  1.0000000  0.0000000 )
                  (  0.0000000  0.0000000 -1.0000000 )
                  ( -1.0000000  0.0000000  0.0000000 )


      isym = 20     120 deg rotation - cart. axis [1,-1,1]       

 cryst.   s(20) = (     0          0          1      )
                  (    -1          0          0      )
                  (     0         -1          0      )

 cart.    s(20) = (  0.0000000 -1.0000000  0.0000000 )
                  (  0.0000000  0.0000000 -1.0000000 )
                  (  1.0000000  0.0000000  0.0000000 )


      isym = 21     120 deg rotation - cart. axis [1,1,1]        

 cryst.   s(21) = (     0          1          0      )
                  (     0          0          1      )
                  (     1          0          0      )

 cart.    s(21) = (  0.0000000  0.0000000  1.0000000 )
                  (  1.0000000  0.0000000  0.0000000 )
                  (  0.0000000  1.0000000  0.0000000 )


      isym = 22     120 deg rotation - cart. axis [-1,1,-1]      

 cryst.   s(22) = (     0         -1          0      )
                  (     0          0         -1      )
                  (     1          0          0      )

 cart.    s(22) = (  0.0000000  0.0000000  1.0000000 )
                  ( -1.0000000  0.0000000  0.0000000 )
                  (  0.0000000 -1.0000000  0.0000000 )


      isym = 23     120 deg rotation - cart. axis [1,-1,-1]      

 cryst.   s(23) = (     0         -1          0      )
                  (     0          0          1      )
                  (    -1          0          0      )

 cart.    s(23) = (  0.0000000  0.0000000 -1.0000000 )
                  ( -1.0000000  0.0000000  0.0000000 )
                  (  0.0000000  1.0000000  0.0000000 )


      isym = 24     120 deg rotation - cart. axis [-1,-1,1]      

 cryst.   s(24) = (     0          1          0      )
                  (     0          0         -1      )
                  (    -1          0          0      )

 cart.    s(24) = (  0.0000000  0.0000000 -1.0000000 )
                  (  1.0000000  0.0000000  0.0000000 )
                  (  0.0000000 -1.0000000  0.0000000 )


      isym = 25     inversion                                    

 cryst.   s(25) = (    -1          0          0      )
                  (     0         -1          0      )
                  (     0          0         -1      )

 cart.    s(25) = ( -1.0000000  0.0000000  0.0000000 )
                  (  0.0000000 -1.0000000  0.0000000 )
                  (  0.0000000  0.0000000 -1.0000000 )


      isym = 26     inv. 180 deg rotation - cart. axis [0,0,1]   

 cryst.   s(26) = (     1          0          0      )
                  (     0          1          0      )
                  (     0          0         -1      )

 cart.    s(26) = (  1.0000000  0.0000000  0.0000000 )
                  (  0.0000000  1.0000000  0.0000000 )
                  (  0.0000000  0.0000000 -1.0000000 )


      isym = 27     inv. 180 deg rotation - cart. axis [0,1,0]   

 cryst.   s(27) = (     1          0          0      )
                  (     0         -1          0      )
                  (     0          0          1      )

 cart.    s(27) = (  1.0000000  0.0000000  0.0000000 )
                  (  0.0000000 -1.0000000  0.0000000 )
                  (  0.0000000  0.0000000  1.0000000 )


      isym = 28     inv. 180 deg rotation - cart. axis [1,0,0]   

 cryst.   s(28) = (    -1          0          0      )
                  (     0          1          0      )
                  (     0          0          1      )

 cart.    s(28) = ( -1.0000000  0.0000000  0.0000000 )
                  (  0.0000000  1.0000000  0.0000000 )
                  (  0.0000000  0.0000000  1.0000000 )


      isym = 29     inv. 180 deg rotation - cart. axis [1,1,0]   

 cryst.   s(29) = (     0         -1          0      )
                  (    -1          0          0      )
                  (     0          0          1      )

 cart.    s(29) = (  0.0000000 -1.0000000  0.0000000 )
                  ( -1.0000000  0.0000000  0.0000000 )
                  (  0.0000000  0.0000000  1.0000000 )


      isym = 30     inv. 180 deg rotation - cart. axis [1,-1,0]  

 cryst.   s(30) = (     0          1          0      )
                  (     1          0          0      )
                  (     0          0          1      )

 cart.    s(30) = (  0.0000000  1.0000000  0.0000000 )
                  (  1.0000000  0.0000000  0.0000000 )
                  (  0.0000000  0.0000000  1.0000000 )


      isym = 31     inv.  90 deg rotation - cart. axis [0,0,-1]  

 cryst.   s(31) = (     0          1          0      )
                  (    -1          0          0      )
                  (     0          0         -1      )

 cart.    s(31) = (  0.0000000 -1.0000000  0.0000000 )
                  (  1.0000000  0.0000000  0.0000000 )
                  (  0.0000000  0.0000000 -1.0000000 )


      isym = 32     inv.  90 deg rotation - cart. axis [0,0,1]   

 cryst.   s(32) = (     0         -1          0      )
                  (     1          0          0      )
                  (     0          0         -1      )

 cart.    s(32) = (  0.0000000  1.0000000  0.0000000 )
                  ( -1.0000000  0.0000000  0.0000000 )
                  (  0.0000000  0.0000000 -1.0000000 )


      isym = 33     inv. 180 deg rotation - cart. axis [1,0,1]   

 cryst.   s(33) = (     0          0         -1      )
                  (     0          1          0      )
                  (    -1          0          0      )

 cart.    s(33) = (  0.0000000  0.0000000 -1.0000000 )
                  (  0.0000000  1.0000000  0.0000000 )
                  ( -1.0000000  0.0000000  0.0000000 )


      isym = 34     inv. 180 deg rotation - cart. axis [-1,0,1]  

 cryst.   s(34) = (     0          0          1      )
                  (     0          1          0      )
                  (     1          0          0      )

 cart.    s(34) = (  0.0000000  0.0000000  1.0000000 )
                  (  0.0000000  1.0000000  0.0000000 )
                  (  1.0000000  0.0000000  0.0000000 )


      isym = 35     inv.  90 deg rotation - cart. axis [0,1,0]   

 cryst.   s(35) = (     0          0          1      )
                  (     0         -1          0      )
                  (    -1          0          0      )

 cart.    s(35) = (  0.0000000  0.0000000 -1.0000000 )
                  (  0.0000000 -1.0000000  0.0000000 )
                  (  1.0000000  0.0000000  0.0000000 )


      isym = 36     inv.  90 deg rotation - cart. axis [0,-1,0]  

 cryst.   s(36) = (     0          0         -1      )
                  (     0         -1          0      )
                  (     1          0          0      )

 cart.    s(36) = (  0.0000000  0.0000000  1.0000000 )
                  (  0.0000000 -1.0000000  0.0000000 )
                  ( -1.0000000  0.0000000  0.0000000 )


      isym = 37     inv. 180 deg rotation - cart. axis [0,1,1]   

 cryst.   s(37) = (     1          0          0      )
                  (     0          0         -1      )
                  (     0         -1          0      )

 cart.    s(37) = (  1.0000000  0.0000000  0.0000000 )
                  (  0.0000000  0.0000000 -1.0000000 )
                  (  0.0000000 -1.0000000  0.0000000 )


      isym = 38     inv. 180 deg rotation - cart. axis [0,1,-1]  

 cryst.   s(38) = (     1          0          0      )
                  (     0          0          1      )
                  (     0          1          0      )

 cart.    s(38) = (  1.0000000  0.0000000  0.0000000 )
                  (  0.0000000  0.0000000  1.0000000 )
                  (  0.0000000  1.0000000  0.0000000 )


      isym = 39     inv.  90 deg rotation - cart. axis [-1,0,0]  

 cryst.   s(39) = (    -1          0          0      )
                  (     0          0          1      )
                  (     0         -1          0      )

 cart.    s(39) = ( -1.0000000  0.0000000  0.0000000 )
                  (  0.0000000  0.0000000 -1.0000000 )
                  (  0.0000000  1.0000000  0.0000000 )


      isym = 40     inv.  90 deg rotation - cart. axis [1,0,0]   

 cryst.   s(40) = (    -1          0          0      )
                  (     0          0         -1      )
                  (     0          1          0      )

 cart.    s(40) = ( -1.0000000  0.0000000  0.0000000 )
                  (  0.0000000  0.0000000  1.0000000 )
                  (  0.0000000 -1.0000000  0.0000000 )


      isym = 41     inv. 120 deg rotation - cart. axis [-1,-1,-1]

 cryst.   s(41) = (     0          0         -1      )
                  (    -1          0          0      )
                  (     0         -1          0      )

 cart.    s(41) = (  0.0000000 -1.0000000  0.0000000 )
                  (  0.0000000  0.0000000 -1.0000000 )
                  ( -1.0000000  0.0000000  0.0000000 )


      isym = 42     inv. 120 deg rotation - cart. axis [-1,1,1]  

 cryst.   s(42) = (     0          0          1      )
                  (     1          0          0      )
                  (     0         -1          0      )

 cart.    s(42) = (  0.0000000  1.0000000  0.0000000 )
                  (  0.0000000  0.0000000 -1.0000000 )
                  (  1.0000000  0.0000000  0.0000000 )


      isym = 43     inv. 120 deg rotation - cart. axis [1,1,-1]  

 cryst.   s(43) = (     0          0          1      )
                  (    -1          0          0      )
                  (     0          1          0      )

 cart.    s(43) = (  0.0000000 -1.0000000  0.0000000 )
                  (  0.0000000  0.0000000  1.0000000 )
                  (  1.0000000  0.0000000  0.0000000 )


      isym = 44     inv. 120 deg rotation - cart. axis [1,-1,1]  

 cryst.   s(44) = (     0          0         -1      )
                  (     1          0          0      )
                  (     0          1          0      )

 cart.    s(44) = (  0.0000000  1.0000000  0.0000000 )
                  (  0.0000000  0.0000000  1.0000000 )
                  ( -1.0000000  0.0000000  0.0000000 )


      isym = 45     inv. 120 deg rotation - cart. axis [1,1,1]   

 cryst.   s(45) = (     0         -1          0      )
                  (     0          0         -1      )
                  (    -1          0          0      )

 cart.    s(45) = (  0.0000000  0.0000000 -1.0000000 )
                  ( -1.0000000  0.0000000  0.0000000 )
                  (  0.0000000 -1.0000000  0.0000000 )


      isym = 46     inv. 120 deg rotation - cart. axis [-1,1,-1] 

 cryst.   s(46) = (     0          1          0      )
                  (     0          0          1      )
                  (    -1          0          0      )

 cart.    s(46) = (  0.0000000  0.0000000 -1.0000000 )
                  (  1.0000000  0.0000000  0.0000000 )
                  (  0.0000000  1.0000000  0.0000000 )


      isym = 47     inv. 120 deg rotation - cart. axis [1,-1,-1] 

 cryst.   s(47) = (     0          1          0      )
                  (     0          0         -1      )
                  (     1          0          0      )

 cart.    s(47) = (  0.0000000  0.0000000  1.0000000 )
                  (  1.0000000  0.0000000  0.0000000 )
                  (  0.0000000 -1.0000000  0.0000000 )


      isym = 48     inv. 120 deg rotation - cart. axis [-1,-1,1] 

 cryst.   s(48) = (     0         -1          0      )
                  (     0          0          1      )
                  (     1          0          0      )

 cart.    s(48) = (  0.0000000  0.0000000  1.0000000 )
                  ( -1.0000000  0.0000000  0.0000000 )
                  (  0.0000000  1.0000000  0.0000000 )


   Cartesian axes

     site n.     atom                  positions (alat units)
         1           Pd  tau(   1) = (   0.5000000   0.5000000   0.5000000  )

   Crystallographic axes

     site n.     atom                  positions (cryst. coord.)
         1           Pd  tau(   1) = (  0.5000000  0.5000000  0.5000000  )

     number of k points=     1
                       cart. coord. in units 2pi/alat
        k(    1) = (   0.0000000   0.0000000   0.0000000), wk =   1.0000000

                       cryst. coord.
        k(    1) = (   0.0000000   0.0000000   0.0000000), wk =   1.0000000

     Dense  grid:  5607075 G-vectors     FFT dimensions: ( 288, 288, 288)

     Dynamical RAM for                 wfc:       4.01 MB

     Dynamical RAM for     wfc (w. buffer):      12.03 MB

     Dynamical RAM for           str. fact:       2.67 MB

     Dynamical RAM for           local pot:       0.00 MB

     Dynamical RAM for          nlocal pot:       2.00 MB

     Dynamical RAM for                qrad:       1.59 MB

     Dynamical RAM for          rho,v,vnew:      50.21 MB

     Dynamical RAM for               rhoin:      16.74 MB

     Dynamical RAM for            rho*nmix:      85.56 MB

     Dynamical RAM for           G-vectors:      11.36 MB

     Dynamical RAM for          h,s,v(r/c):       0.00 MB

     Dynamical RAM for          <psi|beta>:       0.00 MB

     Dynamical RAM for                 psi:      16.04 MB

     Dynamical RAM for                hpsi:      16.04 MB

     Dynamical RAM for      wfcinit/wfcrot:       8.02 MB

     Estimated static dynamical RAM per process >     221.69 MB

     Estimated max dynamical RAM per process >     253.77 MB

     Estimated total dynamical RAM >       7.93 GB
     Generating pointlists ...
     new r_m :   0.4125 (alat units)  9.3541 (a.u.) for type    1

     Initial potential from superposition of free atoms

     starting charge   16.00000, renormalised to   18.00000

     negative rho (up, down):  4.035E-05 0.000E+00
     Starting wfcs are    9 randomized atomic wfcs +    3 random wfcs

     total cpu time spent up to now is        7.0 secs

     Self-consistent Calculation

     iteration #  1     ecut=   370.00 Ry     beta= 0.70
     Davidson diagonalization with overlap
     ethr =  1.00E-02,  avg # of iterations =  9.0

     total cpu time spent up to now is       18.7 secs

     total energy              =    -215.44106258 Ry
     Harris-Foulkes estimate   =    -260.34313584 Ry
     estimated scf accuracy    <      55.03467027 Ry

     total magnetization       =     0.00 Bohr mag/cell
     absolute magnetization    =     1.66 Bohr mag/cell

     iteration #  2     ecut=   370.00 Ry     beta= 0.70
     Davidson diagonalization with overlap
     ethr =  1.00E-02,  avg # of iterations =  6.5

     total cpu time spent up to now is       28.3 secs

     total energy              =    -257.53782599 Ry
     Harris-Foulkes estimate   =    -277.38841702 Ry
     estimated scf accuracy    <      33.47342143 Ry

     total magnetization       =    -0.00 Bohr mag/cell
     absolute magnetization    =     1.19 Bohr mag/cell

     iteration #  3     ecut=   370.00 Ry     beta= 0.70
     Davidson diagonalization with overlap
     ethr =  1.00E-02,  avg # of iterations =  3.0

     total cpu time spent up to now is       35.4 secs

     total energy              =    -256.20069982 Ry
     Harris-Foulkes estimate   =    -259.30425708 Ry
     estimated scf accuracy    <       7.27827746 Ry

     total magnetization       =     0.00 Bohr mag/cell
     absolute magnetization    =     1.25 Bohr mag/cell

     iteration #  4     ecut=   370.00 Ry     beta= 0.70
     Davidson diagonalization with overlap
     ethr =  1.00E-02,  avg # of iterations =  2.0

     total cpu time spent up to now is       41.3 secs

     total energy              =    -253.83800563 Ry
     Harris-Foulkes estimate   =    -256.32755744 Ry
     estimated scf accuracy    <       3.05336558 Ry

     total magnetization       =     0.00 Bohr mag/cell
     absolute magnetization    =     1.28 Bohr mag/cell

     iteration #  5     ecut=   370.00 Ry     beta= 0.70
     Davidson diagonalization with overlap
     ethr =  1.00E-02,  avg # of iterations =  2.0

     total cpu time spent up to now is       47.9 secs

     total energy              =    -254.33859107 Ry
     Harris-Foulkes estimate   =    -254.38244653 Ry
     estimated scf accuracy    <       0.07287682 Ry

     total magnetization       =     0.00 Bohr mag/cell
     absolute magnetization    =     1.36 Bohr mag/cell

     iteration #  6     ecut=   370.00 Ry     beta= 0.70
     Davidson diagonalization with overlap
     ethr =  4.05E-04,  avg # of iterations =  7.0

     total cpu time spent up to now is       57.1 secs

     total energy              =    -254.73880175 Ry
     Harris-Foulkes estimate   =    -255.33296431 Ry
     estimated scf accuracy    <       1.94345645 Ry

     total magnetization       =     0.00 Bohr mag/cell
     absolute magnetization    =     0.14 Bohr mag/cell

     iteration #  7     ecut=   370.00 Ry     beta= 0.70
     Davidson diagonalization with overlap
     ethr =  4.05E-04,  avg # of iterations =  2.5

     total cpu time spent up to now is       64.2 secs

     total energy              =    -254.72024418 Ry
     Harris-Foulkes estimate   =    -254.82220959 Ry
     estimated scf accuracy    <       0.58614213 Ry

     total magnetization       =     0.00 Bohr mag/cell
     absolute magnetization    =     0.16 Bohr mag/cell

     iteration #  8     ecut=   370.00 Ry     beta= 0.70
     Davidson diagonalization with overlap
     ethr =  4.05E-04,  avg # of iterations =  2.0

     total cpu time spent up to now is       70.6 secs

     total energy              =    -254.56220538 Ry
     Harris-Foulkes estimate   =    -254.72726827 Ry
     estimated scf accuracy    <       0.44232461 Ry

     total magnetization       =    -0.00 Bohr mag/cell
     absolute magnetization    =     0.23 Bohr mag/cell

     iteration #  9     ecut=   370.00 Ry     beta= 0.70
     Davidson diagonalization with overlap
     ethr =  4.05E-04,  avg # of iterations =  4.0

     total cpu time spent up to now is       78.9 secs

     total energy              =    -254.88198183 Ry
     Harris-Foulkes estimate   =    -254.76322210 Ry
     estimated scf accuracy    <       1.38675029 Ry

     total magnetization       =     0.00 Bohr mag/cell
     absolute magnetization    =     1.28 Bohr mag/cell

     iteration # 10     ecut=   370.00 Ry     beta= 0.70
     Davidson diagonalization with overlap
     ethr =  4.05E-04,  avg # of iterations =  2.0

     total cpu time spent up to now is       85.4 secs

     total energy              =    -254.93903744 Ry
     Harris-Foulkes estimate   =    -254.89637876 Ry
     estimated scf accuracy    <       2.06265567 Ry

     total magnetization       =    -0.00 Bohr mag/cell
     absolute magnetization    =     1.30 Bohr mag/cell

     iteration # 11     ecut=   370.00 Ry     beta= 0.70
     Davidson diagonalization with overlap
     ethr =  4.05E-04,  avg # of iterations =  1.0

     negative rho (up, down):  3.670E-05 1.403E-03

     total cpu time spent up to now is       91.4 secs

     total energy              =    -255.24640803 Ry
     Harris-Foulkes estimate   =    -254.94154952 Ry
     estimated scf accuracy    <       2.25210849 Ry

     total magnetization       =    -0.00 Bohr mag/cell
     absolute magnetization    =     0.89 Bohr mag/cell

     iteration # 12     ecut=   370.00 Ry     beta= 0.70
     Davidson diagonalization with overlap
     ethr =  4.05E-04,  avg # of iterations = 13.0

     negative rho (up, down):  1.133E-01 6.710E-02

     total cpu time spent up to now is      101.8 secs

     total energy              =    -256.30248447 Ry
     Harris-Foulkes estimate   =    -255.45502148 Ry
     estimated scf accuracy    <      14.66981433 Ry

     total magnetization       =    -0.00 Bohr mag/cell
     absolute magnetization    =     2.19 Bohr mag/cell

     iteration # 13     ecut=   370.00 Ry     beta= 0.70
     Davidson diagonalization with overlap
     ethr =  4.05E-04,  avg # of iterations = 14.5

     negative rho (up, down):  0.000E+00 1.390E-02

     total cpu time spent up to now is      114.3 secs

     total energy              =    -253.70132174 Ry
     Harris-Foulkes estimate   =    -256.92235193 Ry
     estimated scf accuracy    <      45.97361960 Ry

     total magnetization       =     0.00 Bohr mag/cell
     absolute magnetization    =     1.11 Bohr mag/cell

     iteration # 14     ecut=   370.00 Ry     beta= 0.70
     Davidson diagonalization with overlap
     ethr =  4.05E-04,  avg # of iterations = 14.0

     negative rho (up, down):  6.465E-05 3.677E-02

     total cpu time spent up to now is      126.7 secs

     total energy              =    -253.74386404 Ry
     Harris-Foulkes estimate   =    -254.57467686 Ry
     estimated scf accuracy    <       9.94077717 Ry

     total magnetization       =    -0.00 Bohr mag/cell
     absolute magnetization    =     2.62 Bohr mag/cell

     iteration # 15     ecut=   370.00 Ry     beta= 0.70
     Davidson diagonalization with overlap
     ethr =  4.05E-04,  avg # of iterations =  9.0

     negative rho (up, down):  1.626E-02 3.389E-01

     total cpu time spent up to now is      135.2 secs

     total energy              =    -253.97864208 Ry
     Harris-Foulkes estimate   =    -254.32578221 Ry
     estimated scf accuracy    <       2.35951639 Ry

     total magnetization       =    -0.00 Bohr mag/cell
     absolute magnetization    =     2.56 Bohr mag/cell

     iteration # 16     ecut=   370.00 Ry     beta= 0.70
     Davidson diagonalization with overlap
     ethr =  4.05E-04,  avg # of iterations =  7.0

     negative rho (up, down):  9.336E-02 5.377E-01

     total cpu time spent up to now is      142.8 secs

     total energy              =    -254.45519596 Ry
     Harris-Foulkes estimate   =    -254.42196837 Ry
     estimated scf accuracy    <       0.41790959 Ry

     total magnetization       =     0.00 Bohr mag/cell
     absolute magnetization    =     1.00 Bohr mag/cell

     iteration # 17     ecut=   370.00 Ry     beta= 0.70
     Davidson diagonalization with overlap
     ethr =  4.05E-04,  avg # of iterations =  2.0

     negative rho (up, down):  2.913E-02 3.470E-01

     total cpu time spent up to now is      148.9 secs

     total energy              =    -254.15056967 Ry
     Harris-Foulkes estimate   =    -254.45933356 Ry
     estimated scf accuracy    <       0.58479633 Ry

     total magnetization       =     0.00 Bohr mag/cell
     absolute magnetization    =     1.00 Bohr mag/cell

     iteration # 18     ecut=   370.00 Ry     beta= 0.70
     Davidson diagonalization with overlap
     ethr =  4.05E-04,  avg # of iterations =  8.5

     negative rho (up, down):  1.527E-02 3.716E-01

     total cpu time spent up to now is      159.0 secs

     total energy              =    -254.59873277 Ry
     Harris-Foulkes estimate   =    -255.34602544 Ry
     estimated scf accuracy    <       1.83326862 Ry

     total magnetization       =    -0.00 Bohr mag/cell
     absolute magnetization    =     0.19 Bohr mag/cell

     iteration # 19     ecut=   370.00 Ry     beta= 0.70
     Davidson diagonalization with overlap
     ethr =  4.05E-04,  avg # of iterations =  4.0

     negative rho (up, down):  1.039E-02 3.318E-01

     total cpu time spent up to now is      166.9 secs

     total energy              =    -254.70370225 Ry
     Harris-Foulkes estimate   =    -254.73848104 Ry
     estimated scf accuracy    <       0.20896457 Ry

     total magnetization       =     0.00 Bohr mag/cell
     absolute magnetization    =     0.08 Bohr mag/cell

     iteration # 20     ecut=   370.00 Ry     beta= 0.70
     Davidson diagonalization with overlap
     ethr =  4.05E-04,  avg # of iterations =  1.0

     negative rho (up, down):  8.694E-04 5.148E-02

     total cpu time spent up to now is      172.9 secs

     total energy              =    -254.66765702 Ry
     Harris-Foulkes estimate   =    -254.70636338 Ry
     estimated scf accuracy    <       0.11321792 Ry

     total magnetization       =    -0.00 Bohr mag/cell
     absolute magnetization    =     0.08 Bohr mag/cell

     iteration # 21     ecut=   370.00 Ry     beta= 0.70
     Davidson diagonalization with overlap
     ethr =  4.05E-04,  avg # of iterations =  2.0

     negative rho (up, down):  0.000E+00 2.966E-03

     total cpu time spent up to now is      179.5 secs

     total energy              =    -254.67984902 Ry
     Harris-Foulkes estimate   =    -254.67843470 Ry
     estimated scf accuracy    <       0.01251312 Ry

     total magnetization       =    -0.00 Bohr mag/cell
     absolute magnetization    =     0.06 Bohr mag/cell

     iteration # 22     ecut=   370.00 Ry     beta= 0.70
     Davidson diagonalization with overlap
     ethr =  6.95E-05,  avg # of iterations =  4.5

     total cpu time spent up to now is      186.2 secs

     total energy              =    -254.67858436 Ry
     Harris-Foulkes estimate   =    -254.68004543 Ry
     estimated scf accuracy    <       0.01481241 Ry

     total magnetization       =    -0.00 Bohr mag/cell
     absolute magnetization    =     0.05 Bohr mag/cell

     iteration # 23     ecut=   370.00 Ry     beta= 0.70
     Davidson diagonalization with overlap
     ethr =  6.95E-05,  avg # of iterations =  2.0

     total cpu time spent up to now is      192.4 secs

     total energy              =    -254.67838430 Ry
     Harris-Foulkes estimate   =    -254.67867242 Ry
     estimated scf accuracy    <       0.01138920 Ry

     total magnetization       =     0.00 Bohr mag/cell
     absolute magnetization    =     0.05 Bohr mag/cell

     iteration # 24     ecut=   370.00 Ry     beta= 0.70
     Davidson diagonalization with overlap
     ethr =  6.33E-05,  avg # of iterations =  1.5

     negative rho (up, down):  1.083E-03 4.848E-01

     total cpu time spent up to now is      198.3 secs

     total energy              =    -254.67280181 Ry
     Harris-Foulkes estimate   =    -254.67842435 Ry
     estimated scf accuracy    <       0.01080449 Ry

     total magnetization       =    -0.00 Bohr mag/cell
     absolute magnetization    =     0.05 Bohr mag/cell

     iteration # 25     ecut=   370.00 Ry     beta= 0.70
     Davidson diagonalization with overlap
     ethr =  6.00E-05,  avg # of iterations =  2.5

     negative rho (up, down):  2.122E-03 5.265E-01

     total cpu time spent up to now is      205.0 secs

     total energy              =    -254.67576625 Ry
     Harris-Foulkes estimate   =    -254.67575324 Ry
     estimated scf accuracy    <       0.00112984 Ry

     total magnetization       =    -0.00 Bohr mag/cell
     absolute magnetization    =     0.06 Bohr mag/cell

     iteration # 26     ecut=   370.00 Ry     beta= 0.70
     Davidson diagonalization with overlap
     ethr =  6.28E-06,  avg # of iterations =  4.0

     negative rho (up, down):  1.180E-04 6.203E-01

     total cpu time spent up to now is      211.4 secs

     total energy              =    -254.67545675 Ry
     Harris-Foulkes estimate   =    -254.67581493 Ry
     estimated scf accuracy    <       0.00069028 Ry

     total magnetization       =     0.00 Bohr mag/cell
     absolute magnetization    =     0.08 Bohr mag/cell

     iteration # 27     ecut=   370.00 Ry     beta= 0.70
     Davidson diagonalization with overlap
     ethr =  3.83E-06,  avg # of iterations =  4.5

     negative rho (up, down):  0.000E+00 1.956E-02

     total cpu time spent up to now is      218.5 secs

     total energy              =    -254.67565428 Ry
     Harris-Foulkes estimate   =    -254.67569878 Ry
     estimated scf accuracy    <       0.00010733 Ry

     total magnetization       =    -0.00 Bohr mag/cell
     absolute magnetization    =     0.07 Bohr mag/cell

     iteration # 28     ecut=   370.00 Ry     beta= 0.70
     Davidson diagonalization with overlap
     ethr =  5.96E-07,  avg # of iterations =  4.0
 
     Magnetic moment per site:
     atom:    1    charge:   17.9998    magn:    0.0000    constr:    0.0000

     total cpu time spent up to now is      224.8 secs

     End of self-consistent calculation

 ------ SPIN UP ------------


          k = 0.0000 0.0000 0.0000 (700694 PWs)   bands (ev):

   -85.4600 -51.0460 -51.0388 -51.0370  -3.8560  -3.8549  -3.8446  -3.8433
    -3.8402  -3.1632  -0.0789  -0.0701

     occupation numbers 
     1.0000   1.0000   1.0000   1.0000   1.0000   1.0000   1.0000   1.0000
     1.0000   0.0000   0.0000   0.0000

 ------ SPIN DOWN ----------


          k = 0.0000 0.0000 0.0000 (700694 PWs)   bands (ev):

   -85.4595 -51.0424 -51.0421 -51.0357  -3.8567  -3.8521  -3.8505  -3.8395
    -3.8384  -3.1638  -0.0770  -0.0631

     occupation numbers 
     1.0000   1.0000   1.0000   1.0000   1.0000   1.0000   1.0000   1.0000
     1.0000   0.0000   0.0000   0.0000

     highest occupied, lowest unoccupied level (ev):    -3.8384   -3.1638

!    total energy              =    -254.67567709 Ry
     Harris-Foulkes estimate   =    -254.67567454 Ry
     estimated scf accuracy    <       0.00000098 Ry

     The total energy is the sum of the following terms:

     one-electron contribution =    -372.51338634 Ry
     hartree contribution      =     183.95574737 Ry
     xc contribution           =     -25.57934278 Ry
     ewald contribution        =     -40.53869533 Ry

     total magnetization       =     0.00 Bohr mag/cell
     absolute magnetization    =     0.08 Bohr mag/cell

     convergence has been achieved in  28 iterations

     Writing output data file pwscf.save/
 
     init_run     :      6.46s CPU      6.81s WALL (       1 calls)
     electrons    :    215.15s CPU    218.65s WALL (       1 calls)

     Called by init_run:
     wfcinit      :      1.12s CPU      1.20s WALL (       1 calls)
     wfcinit:atom :      0.01s CPU      0.02s WALL (       2 calls)
     wfcinit:wfcr :      1.08s CPU      1.16s WALL (       2 calls)
     potinit      :      1.67s CPU      1.79s WALL (       1 calls)
     hinit0       :      0.17s CPU      0.25s WALL (       1 calls)

     Called by electrons:
     c_bands      :    118.51s CPU    119.89s WALL (      28 calls)
     sum_band     :     29.50s CPU     29.56s WALL (      28 calls)
     v_of_rho     :     49.86s CPU     51.25s WALL (      29 calls)
     v_h          :      3.50s CPU      3.54s WALL (      29 calls)
     v_xc         :     46.36s CPU     47.71s WALL (      29 calls)
     mix_rho      :     16.86s CPU     17.03s WALL (      28 calls)

     Called by c_bands:
     init_us_2    :      0.54s CPU      0.54s WALL (     114 calls)
     regterg      :    117.67s CPU    119.02s WALL (      56 calls)

     Called by sum_band:

     Called by *egterg:
     h_psi        :    106.62s CPU    107.01s WALL (     336 calls)
     g_psi        :      0.39s CPU      0.39s WALL (     278 calls)
     rdiaghg      :      0.36s CPU      0.37s WALL (     334 calls)
     regterg:over :      2.95s CPU      2.95s WALL (     278 calls)
     regterg:upda :      5.29s CPU      5.32s WALL (     278 calls)
     regterg:last :      1.58s CPU      1.59s WALL (      74 calls)
     rdiaghg:chol :      0.06s CPU      0.06s WALL (     334 calls)
     rdiaghg:inve :      0.01s CPU      0.01s WALL (     334 calls)
     rdiaghg:para :      0.04s CPU      0.04s WALL (     668 calls)

     Called by h_psi:
     h_psi:pot    :    105.92s CPU    106.30s WALL (     336 calls)
     h_psi:calbec :      0.55s CPU      0.57s WALL (     336 calls)
     vloc_psi     :    104.81s CPU    105.18s WALL (     336 calls)
     add_vuspsi   :      0.55s CPU      0.55s WALL (     336 calls)

     General routines
     calbec       :      0.55s CPU      0.57s WALL (     336 calls)
     fft          :     37.83s CPU     38.09s WALL (     431 calls)
     ffts         :      4.36s CPU      4.38s WALL (      56 calls)
     fftw         :     97.27s CPU     97.61s WALL (    2800 calls)
 
     Parallel routines
     fft_scatt_xy :     25.72s CPU     25.78s WALL (    3287 calls)
     fft_scatt_yz :     45.74s CPU     46.10s WALL (    3287 calls)
 
     PWSCF        :   3m41.97s CPU   3m46.90s WALL

 
   This run was terminated on:  15:46:43  17Jan2022            

=------------------------------------------------------------------------------=
   JOB DONE.
=------------------------------------------------------------------------------=
