<?xml version="1.0"?>
<molpro xmlns="http://www.molpro.net/schema/molpro-output"
  xmlns:xsd="http://www.w3.org/1999/XMLSchema"
  xmlns:cml="http://www.xml-cml.org/schema"
  xmlns:stm="http://www.xml-cml.org/schema"
  xmlns:xhtml="http://www.w3.org/1999/xhtml">
 <!--

 Nodes     nprocs
 nid00878    23
 Number of processes for MPI-2 version of Molpro:   nprocs(total)=   24   nprocs(compute)=   23   nprocs(helper)=    1

 Using customized tuning parameters: mindgm=7; mindgv=16; mindgc=1; mindgr=1; noblas=0; minvec=7
 default implementation of scratch files=sf

 --><job>
  <!--

 Variables initialized (889), CPU time= 0.02 sec
 Commands  initialized (702), CPU time= 0.01 sec, 572 directives.
 Default parameters read. Elapsed time= 0.17 sec

 Checking input...
 Passed
1


                                         ***  PROGRAM SYSTEM MOLPRO  ***
                                       Copyright, TTI GmbH Stuttgart, 2015
                                    Version 2015.1 linked Dec 29 2018 15:55:43


 **********************************************************************************************************************************
 LABEL *   Calculation for PdO groundstate
  64 bit mpp version                                                                     DATE: 29-Mar-21          TIME: 14:46:39
 **********************************************************************************************************************************

 SHA1:             19cd028119e0e09f93f0674bd8af7968d9b3eff6
 **********************************************************************************************************************************
  -->
  <!--

 THRESHOLDS:

 ZERO    =  1.00D-12  ONEINT  =  1.00D-12  TWOINT  =  1.00D-12  PREFAC  =  1.00D-14  LOCALI  =  1.00D-09  EORDER  =  1.00D-04
 ENERGY  =  0.00D+00  ETEST   =  0.00D+00  EDENS   =  0.00D+00  THRDEDEF=  1.00D-06  GRADIENT=  1.00D-02  STEP    =  1.00D-03
 ORBITAL =  1.00D-05  CIVEC   =  1.00D-05  COEFF   =  1.00D-04  PRINTCI =  5.00D-02  PUNCHCI =  9.90D+01  OPTGRAD =  3.00D-04
 OPTENERG=  1.00D-06  OPTSTEP =  3.00D-04  THRGRAD =  1.00D-10  COMPRESS=  1.00D-11  VARMIN  =  1.00D-07  VARMAX  =  1.00D-03
 THRDOUB =  0.00D+00  THRDIV  =  1.00D-05  THRRED  =  1.00D-07  THRPSP  =  1.00D+00  THRDC   =  1.00D-10  THRCS   =  1.00D-10
 THRNRM  =  1.00D-08  THREQ   =  0.00D+00  THRDE   =  1.00D+00  THRREF  =  1.00D-05  SPARFAC =  1.00D+00  THRDLP  =  1.00D-07
 THRDIA  =  1.00D-10  THRDLS  =  1.00D-07  THRGPS  =  0.00D+00  THRKEX  =  0.00D+00  THRDIS  =  2.00D-01  THRVAR  =  1.00D-10
 THRLOC  =  1.00D-06  THRGAP  =  1.00D-06  THRLOCT = -1.00D+00  THRGAPT = -1.00D+00  THRORB  =  1.00D-06  THRMLTP =  0.00D+00
 THRCPQCI=  1.00D-10  KEXTA   =  0.00D+00  THRCOARS=  0.00D+00  SYMTOL  =  1.00D-06  GRADTOL =  1.00D-06  THROVL  =  1.00D-08
 THRORTH =  1.00D-08  GRID    =  1.00D-06  GRIDMAX =  1.00D-03  DTMAX   =  0.00D+00  THROCCDE=  1.00D-01  THROCCDE=  1.00D-01



 THRESHOLDS:

 ZERO    =  1.00D-12  ONEINT  =  1.00D-12  TWOINT  =  1.00D-12  PREFAC  =  1.00D-14  LOCALI  =  1.00D-09  EORDER  =  1.00D-04
 ENERGY  =  0.00D+00  ETEST   =  0.00D+00  EDENS   =  0.00D+00  THRDEDEF=  1.00D-06  GRADIENT=  1.00D-02  STEP    =  1.00D-03
 ORBITAL =  1.00D-05  CIVEC   =  1.00D-05  COEFF   =  1.00D-04  PRINTCI =  5.00D-02  PUNCHCI =  9.90D+01  OPTGRAD =  3.00D-04
 OPTENERG=  1.00D-06  OPTSTEP =  3.00D-04  THRGRAD =  1.00D-10  COMPRESS=  1.00D-11  VARMIN  =  1.00D-07  VARMAX  =  1.00D-03
 THRDOUB =  0.00D+00  THRDIV  =  1.00D-05  THRRED  =  1.00D-07  THRPSP  =  1.00D+00  THRDC   =  1.00D-10  THRCS   =  1.00D-10
 THRNRM  =  1.00D-08  THREQ   =  0.00D+00  THRDE   =  1.00D+00  THRREF  =  1.00D-05  SPARFAC =  1.00D+00  THRDLP  =  1.00D-07
 THRDIA  =  1.00D-10  THRDLS  =  1.00D-07  THRGPS  =  0.00D+00  THRKEX  =  0.00D+00  THRDIS  =  2.00D-01  THRVAR  =  1.00D-10
 THRLOC  =  1.00D-06  THRGAP  =  1.00D-06  THRLOCT = -1.00D+00  THRGAPT = -1.00D+00  THRORB  =  1.00D-06  THRMLTP =  0.00D+00
 THRCPQCI=  1.00D-10  KEXTA   =  0.00D+00  THRCOARS=  0.00D+00  SYMTOL  =  1.00D-06  GRADTOL =  1.00D-06  THROVL  =  1.00D-12
 THRORTH =  1.00D-08  GRID    =  1.00D-06  GRIDMAX =  1.00D-03  DTMAX   =  0.00D+00  THROCCDE=  1.00D-01  THROCCDE=  1.00D-01


 SETTING DKROLL         =         1.00000000
 SETTING DKHO           =        10.00000000
 SETTING DKHP           =         4.00000000

 Variable memory set to  512000000 words,  buffer space   230000 words

 SETTING BASIS          =    USERDEF
 SETTING OE             =       -75.09181489
 SETTING PDE            =     -5044.36637900
 SETTING NE             =        54.00000000

Geometry recognized as XYZ

 SETTING A1             =        14.00000000
 SETTING B1             =         6.00000000
 SETTING B2             =         6.00000000
 SETTING A2             =         2.00000000
  --><jobstep command="RKS-SCF" commandset="SCFPRO">
   <!--


 Recomputing integrals since basis changed


 Using spherical harmonics



 PROGRAM * SEWARD (Integral evaluation for generally contracted gaussian basis sets)     Author: Roland Lindh, 1990

 Geometry written to block  1 of record 700


 Point group  C2v


   --><cml:molecule>
    <cml:symmetry pointGroup="C2v"/>
    <cml:atomArray>
     <cml:atom id="a1" elementType="Pd" x3="0.0" y3="0.0" z3="0.0"/>
     <cml:atom id="a2" elementType="O" x3="0.0" y3="0.0" z3="1.535"/>
    </cml:atomArray>
    <cml:bondArray>
     <cml:bond atomRefs2="a1 a2"/>
    </cml:bondArray>
   </cml:molecule><!--

 ATOMIC COORDINATES

 NR  ATOM    CHARGE       X              Y              Z

   1  PD     46.00    0.000000000    0.000000000    0.000000000
   2  O       8.00    0.000000000    0.000000000    2.900729601

 Bond lengths in Bohr (Angstrom)

 1-2  2.900729601
     ( 1.535000000)

 NUCLEAR CHARGE:                   54
 NUMBER OF PRIMITIVE AOS:         355
 NUMBER OF SYMMETRY AOS:          299
 NUMBER OF CONTRACTIONS:          182   (  73A1  +  43B1  +  43B2  +  23A2  )
 NUMBER OF CORE ORBITALS:          19   (  10A1  +   4B1  +   4B2  +   1A2  )
 NUMBER OF VALENCE ORBITALS:       10   (   5A1  +   2B1  +   2B2  +   1A2  )


 NUCLEAR REPULSION ENERGY  126.86463428

 One-electron integrals computed with SEWARD

 10nd-order Douglas-Kroll-Hess method activated. McWeeny DKH parametrization is used.

 Computing Douglas-Kroll / X2C integrals

 AO integral compression algorithm  1   Integral accuracy      1.0D-12

     168.034 MB (compressed) written to integral file ( 50.5%)

     Node minimum: 2.359 MB, node maximum: 11.010 MB


 NUMBER OF SORTED TWO-ELECTRON INTEGRALS:    1549775.     BUFFER LENGTH:  32768
 NUMBER OF SEGMENTS:   1  SEGMENT LENGTH:    1549775      RECORD LENGTH: 524288

 Memory used in sort:       2.11 MW

 SORT1 READ    41520926. AND WROTE     1014277. INTEGRALS IN      3 RECORDS. CPU TIME:     0.73 SEC, REAL TIME:     0.79 SEC
 SORT2 READ    23514789. AND WROTE    35715180. INTEGRALS IN    506 RECORDS. CPU TIME:     0.24 SEC, REAL TIME:     0.30 SEC

 Node minimum:     1548720.  Node maximum:     1570662. integrals

 OPERATOR DM      FOR CENTER  0  COORDINATES:    0.000000    0.000000    0.000000

 EXTRA SYMMETRY OF AOS IN SYMMETRY 1:   1 1 1 1 1 1 1 1 1 1   1 1 1 1 1 1 1 1 1 1   1 1 2 1 2 1 2 1 2 1   2 1 2 1 2 1 2 1 2 1
                                        2 1 2 1 2 1 3 2 1 3   2 1 3 2 1 1 1 1 1 1   1 1 1 1 2 1 2 1 2 1   2 1 2
 EXTRA SYMMETRY OF AOS IN SYMMETRY 2:   1 1 1 1 1 1 1 1 1 1   1 1 1 1 1 1 1 1 1 2   1 2 1 2 1 2 1 2 1 2   1 2 1 1 1 1 1 1 1 1
                                        2 1 2
 EXTRA SYMMETRY OF AOS IN SYMMETRY 3:   1 1 1 1 1 1 1 1 1 1   1 1 1 1 1 1 1 1 1 2   1 2 1 2 1 2 1 2 1 2   1 2 1 1 1 1 1 1 1 1
                                        2 1 2
 EXTRA SYMMETRY OF AOS IN SYMMETRY 4:   1 1 1 1 1 1 1 1 1 1   1 1 1 2 1 2 1 2 1 1   1 1 1

 Eigenvalues of metric

         1 0.750E-04 0.125E-03 0.208E-03 0.555E-03 0.151E-02 0.157E-02 0.305E-02 0.410E-02
         2 0.611E-03 0.140E-02 0.158E-02 0.534E-02 0.178E-01 0.273E-01 0.380E-01 0.487E-01
         3 0.611E-03 0.140E-02 0.158E-02 0.534E-02 0.178E-01 0.273E-01 0.380E-01 0.487E-01
         4 0.157E-02 0.223E-01 0.796E-01 0.876E-01 0.114E+00 0.148E+00 0.168E+00 0.282E+00


 **********************************************************************************************************************************
 DATASETS  * FILE   NREC   LENGTH (MB)   RECORD NAMES
              1      22       20.91       500      610      700      900      950      970     1000      129      960     1700
                                          VAR    BASINP    GEOM    SYMINP    ZMAT    AOBASIS   BASIS     P2S    ABASIS    OPER
                                         1101     1401     1411     1412     1650     1100     1400     1410     1200     1210
                                          SR      EKINR    POTR     PVPR    MOLCAS      S      EKIN      POT      H0       H01
                                         1080     1600
                                         AOSYM     SMH

 PROGRAMS   *        TOTAL       INT
 CPU TIMES  *         9.12      8.84
 REAL TIME  *        10.68 SEC
 DISK USED  *       433.93 MB
 GA USED    *         0.00 MB       (max)       0.00 MB       (current)
 **********************************************************************************************************************************

 Density functional group PBE0=PBEX+PBEC
 Functional: PBEX(Automatically generated (new) PBEX)                          Gradient terms: 1
 Functional: PBEC(Automatically generated (new) PBEC)                          Gradient terms: 1
 Use grid at  1800.2


 Exact exchange will be calculated, factor:  0.2500

 Functional: PBEX                      Factor:  0.7500
 Functional: PBEC                      Factor:  1.0000

 Generated new metagrid on record  1800.2 with target accuracy 1.0D-06 and 5150 points in CPU time    0.1
 Computed new grid on record 1800.1 in CPU time    0.1
  152282 words reserved for DFT integration

 PROGRAM * RKS-SCF (Restricted open shell Kohn-Sham)     Authors: W. Meyer, H.-J. Werner, P.J. Knowles, 1993

 NUMBER OF ELECTRONS:      28+   26-    SPACE SYMMETRY=2    SPIN SYMMETRY: Triplet
 CONVERGENCE THRESHOLDS:    1.00E-05 (Density)    1.08E-06 (Energy)
 MAX. NUMBER OF ITERATIONS:       60
 INTERPOLATION TYPE:            DIIS
 INTERPOLATION STEPS:              2 (START)      1 (STEP)
 LEVEL SHIFTS:                 -0.60 (CLOSED) -0.30 (OPEN)

 Number of closed-shell orbitals:   26 (  13   5   6   2 )
 Number of open-shell orbitals:      2 (   1   1   0   0 )


 Use fine grid record 1800.2 for energy threshold  1.0D-06
 Orbital guess generated from atomic densities. Full valence occupancy:   15   6   6   2

 Molecular orbital dump at record        2100.2

 ITERATION    DDIFF          GRAD             ENERGY        2-EL.EN.            DIPOLE MOMENTS         DIIS   ORB.
    1      0.000D+00      0.000D+00     -5101.16943063   3832.061616    0.00000    0.00000   -8.08750    0    start
    2      0.000D+00      0.810D-01     -5100.45182923   4809.142485    0.00000    0.00000   10.91054    1    diag,B
    3      0.926D+00      0.184D+00     -5115.21065302   4609.903328    0.00000    0.00000    2.35474    2    diag,B
    4      0.447D-01      0.885D-01     -5118.09725266   4512.130347    0.00000    0.00000    1.90385    3    diag,B
    5      0.169D-01      0.507D-01     -5119.77497259   4430.201461    0.00000    0.00000   -1.29345    4    diag,B
    6      0.208D-01      0.206D-01     -5120.11668653   4381.516729    0.00000    0.00000   -1.27287    5    diag,B
    7      0.138D-01      0.481D-02     -5120.15856594   4363.565928    0.00000    0.00000   -1.47990    6    fixocc
    8      0.562D-02      0.121D-02     -5120.16421594   4361.068588    0.00000    0.00000   -1.45976    7    diag,B
    9      0.246D-02      0.792D-03     -5120.16648013   4360.920747    0.00000    0.00000   -1.36613    8    diag,B
   10      0.132D-02      0.420D-03     -5120.16748209   4360.995079    0.00000    0.00000   -1.28713    9    orth
   11      0.833D-03      0.176D-03     -5120.16782658   4360.885295    0.00000    0.00000   -1.25571    9    diag,B
   12      0.526D-03      0.758D-04     -5120.16796677   4360.677256    0.00000    0.00000   -1.22808    9    diag,B
   13      0.485D-03      0.282D-04     -5120.16798620   4360.616465    0.00000    0.00000   -1.21991    9    diag,B
   14      0.152D-03      0.166D-04     -5120.16799135   4360.595964    0.00000    0.00000   -1.21565    9    diag,B
   15      0.844D-04      0.727D-05     -5120.16799224   4360.593628    0.00000    0.00000   -1.21467    9    diag,B
   16      0.359D-04      0.304D-05     -5120.16799240   4360.588816    0.00000    0.00000   -1.21375    9    diag,B
   17      0.229D-04      0.118D-05     -5120.16799242   4360.589458    0.00000    0.00000   -1.21376    9    diag,B
   18      0.684D-05      0.442D-06     -5120.16799242   4360.589418    0.00000    0.00000   -1.21372    0    orth

 Final alpha occupancy:  14   6   6   2
 Final beta  occupancy:  13   5   6   2

 !RKS STATE 1.2 Energy              -5120.167992417955
   --><property name="Energy" method="RKS" principal="true" stateSymmetry="2" stateNumber="1"
     value="-5120.16799241796"/><!--
 Nuclear energy                       126.86463428
 One-electron energy                -7311.51544502
 Two-electron energy                 2180.29470878
 Density functional                  -115.81189046     PBEX=-150.83855110 PBEC=  -2.68297714
 Virial quotient                       -0.88761484
 !RKS STATE 1.2 Dipole moment           0.00000000     0.00000000    -1.21371620
 Dipole moment /Debye                   0.00000000     0.00000000    -3.08475683
   --><property name="Dipole moment" method="RKS" principal="true" stateSymmetry="2"
     stateNumber="1" value="0.0 0.0 -1.21371620300319"/><!--

 Orbital energies:

         1.1          2.1          3.1          4.1          5.1          6.1          7.1          8.1          9.1         10.1
   -890.005717  -130.885962  -117.354889   -24.081569   -19.608113   -19.245855   -12.459777   -12.441886    -3.500297    -2.236012

        11.1         12.1         13.1         14.1         15.1         16.1
     -0.971513    -0.461498    -0.331292    -0.239769    -0.073700     0.015616

         1.2          2.2          3.2          4.2          5.2          6.2          7.2          8.2
   -117.348369   -19.592200   -12.457800    -2.186126    -0.450219    -0.275318    -0.007186     0.039906

         1.3          2.3          3.3          4.3          5.3          6.3          7.3          8.3
   -117.344442   -19.582860   -12.452023    -2.174365    -0.453585    -0.233210    -0.003296     0.041977

         1.4          2.4          3.4          4.4
    -12.442547    -0.331336     0.067385     0.248442

 HOMO      6.3    -0.233210 =      -6.3460eV
 LUMO     15.1    -0.073700 =      -2.0055eV
 LUMO-HOMO         0.159510 =       4.3405eV


 **********************************************************************************************************************************
 DATASETS  * FILE   NREC   LENGTH (MB)   RECORD NAMES
              1      23       20.91       500      610      700      900      950      970     1000      129      960     1700
                                          VAR    BASINP    GEOM    SYMINP    ZMAT    AOBASIS   BASIS     P2S    ABASIS    OPER
                                         1101     1401     1411     1412     1650     1100     1400     1410     1200     1210
                                          SR      EKINR    POTR     PVPR    MOLCAS      S      EKIN      POT      H0       H01
                                         1080     1600     1800
                                         AOSYM     SMH     GRID

              2       5        3.08       700     1000      520     1800     2100
                                         GEOM     BASIS   MCVARS    GRID      RKS

 PROGRAMS   *        TOTAL       RKS       INT
 CPU TIMES  *         9.87      0.75      8.84
 REAL TIME  *        11.62 SEC
 DISK USED  *         1.02 GB
 SF USED    *         0.04 MB
 GA USED    *         0.23 MB       (max)       0.23 MB       (current)
 **********************************************************************************************************************************
   -->
   <time start="14:46:39" end="14:46:50" cpu="9.87" system="1.01" real="11.62"/>
   <storage units="megabyte" memory="4097.84" sf="0.04" df="585.66" eaf="433.93" ga="0.23"/>
  </jobstep><!--
  --><jobstep command="RHF-SCF" commandset="SCFPRO">
   <!--


 PROGRAM * RHF-SCF (OPEN SHELL)       Authors: W. Meyer, H.-J. Werner


 NUMBER OF ELECTRONS:      28+   26-    SPACE SYMMETRY=2    SPIN SYMMETRY: Triplet
 CONVERGENCE THRESHOLDS:    1.00E-05 (Density)    1.08E-07 (Energy)
 MAX. NUMBER OF ITERATIONS:       60
 INTERPOLATION TYPE:            DIIS
 INTERPOLATION STEPS:              2 (START)      1 (STEP)
 LEVEL SHIFTS:                 -0.60 (CLOSED) -0.30 (OPEN)

 Number of closed-shell orbitals:   26 (  13   5   6   2 )
 Number of open-shell orbitals:      2 (   1   1   0   0 )


 Molecular orbitals read from record     2100.2  Type=RKS/CANONICAL (state 1.2)

 Molecular orbital dump at record        2101.2

 ITERATION    DDIFF          GRAD             ENERGY        2-EL.EN.            DIPOLE MOMENTS         DIIS   ORB.
    1      0.000D+00      0.000D+00     -5117.59000582   4134.121610    0.00000    0.00000   -1.21372    0    start
    2      0.000D+00      0.118D-01     -5117.61037247   4133.605162    0.00000    0.00000   -1.39605    1    diag,B
    3      0.772D-02      0.121D-02     -5117.61291234   4135.077949    0.00000    0.00000   -1.45004    2    diag,B
    4      0.116D-02      0.546D-03     -5117.61408245   4134.696259    0.00000    0.00000   -1.49579    3    diag,B
    5      0.578D-03      0.351D-03     -5117.61492785   4135.370784    0.00000    0.00000   -1.50131    4    diag,B
    6      0.500D-03      0.300D-03     -5117.61582786   4135.567772    0.00000    0.00000   -1.50805    5    diag,B
    7      0.567D-03      0.263D-03     -5117.61729636   4135.925264    0.00000    0.00000   -1.49513    6    diag,B
    8      0.943D-03      0.237D-03     -5117.61955283   4136.498383    0.00000    0.00000   -1.45294    7    orth
    9      0.171D-02      0.162D-03     -5117.62031072   4136.837494    0.00000    0.00000   -1.41671    8    diag,B
   10      0.906D-03      0.105D-03     -5117.62055358   4136.963795    0.00000    0.00000   -1.39605    9    diag,B
   11      0.795D-03      0.501D-04     -5117.62054377   4136.999119    0.00000    0.00000   -1.39523    9    diag,B
   12      0.277D-03      0.473D-04     -5117.62056109   4136.970109    0.00000    0.00000   -1.39328    9    diag,B
   13      0.298D-03      0.273D-04     -5117.62056578   4136.979876    0.00000    0.00000   -1.39286    9    diag,B
   14      0.102D-03      0.102D-04     -5117.62056729   4136.967710    0.00000    0.00000   -1.39198    9    diag,B
   15      0.316D-04      0.736D-05     -5117.62056820   4136.955884    0.00000    0.00000   -1.39077    9    diag,B
   16      0.499D-04      0.554D-05     -5117.62056862   4136.953917    0.00000    0.00000   -1.39002    9    diag,B
   17      0.295D-04      0.275D-05     -5117.62056877   4136.951085    0.00000    0.00000   -1.38946    9    diag,B
   18      0.137D-04      0.113D-05     -5117.62056881   4136.949721    0.00000    0.00000   -1.38917    9    orth
   19      0.712D-05      0.623D-06     -5117.62056881   4136.949343    0.00000    0.00000   -1.38912    0    orth

 Final alpha occupancy:  14   6   6   2
 Final beta  occupancy:  13   5   6   2

 !RHF STATE 1.2 Energy              -5117.620568812463
   --><property name="Energy" method="RHF" principal="true" stateSymmetry="2" stateNumber="1"
     value="-5117.62056881246"/><!--
 Nuclear energy                       126.86463428
 One-electron energy                -7312.95987441
 Two-electron energy                 2068.47467131
 Virial quotient                       -0.88691056
 !RHF STATE 1.2 Dipole moment           0.00000000     0.00000000    -1.38912246
 Dipole moment /Debye                   0.00000000     0.00000000    -3.53056587
   --><property name="Dipole moment" method="RHF" principal="true" stateSymmetry="2"
     stateNumber="1" value="0.0 0.0 -1.38912246174711"/><!--

 Orbital energies:

         1.1          2.1          3.1          4.1          5.1          6.1          7.1          8.1          9.1         10.1
   -899.596109  -134.559419  -120.452987   -25.714786   -20.961908   -20.581048   -13.371147   -13.366399    -4.025335    -2.606807

        11.1         12.1         13.1         14.1         15.1         16.1
     -1.247127    -0.586556    -0.467622    -0.312904     0.007032     0.033377

         1.2          2.2          3.2          4.2          5.2          6.2          7.2          8.2
   -120.448226   -20.943435   -13.379791    -2.566107    -0.561986    -0.480922     0.023896     0.079690

         1.3          2.3          3.3          4.3          5.3          6.3          7.3          8.3
   -120.447041   -20.939442   -13.380858    -2.564714    -0.629086    -0.374491     0.025108     0.082607

         1.4          2.4          3.4          4.4
    -13.368067    -0.467762     0.097694     0.325366

 HOMO     14.1    -0.312904 =      -8.5146eV
 LUMO     15.1     0.007032 =       0.1914eV
 LUMO-HOMO         0.319936 =       8.7059eV


 **********************************************************************************************************************************
 DATASETS  * FILE   NREC   LENGTH (MB)   RECORD NAMES
              1      23       20.91       500      610      700      900      950      970     1000      129      960     1700
                                          VAR    BASINP    GEOM    SYMINP    ZMAT    AOBASIS   BASIS     P2S    ABASIS    OPER
                                         1101     1401     1411     1412     1650     1100     1400     1410     1200     1210
                                          SR      EKINR    POTR     PVPR    MOLCAS      S      EKIN      POT      H0       H01
                                         1080     1600     1800
                                         AOSYM     SMH     GRID

              2       6        5.96       700     1000      520     1800     2100     2101
                                         GEOM     BASIS   MCVARS    GRID      RKS      RHF

 PROGRAMS   *        TOTAL       RHF       RKS       INT
 CPU TIMES  *        10.29      0.41      0.75      8.84
 REAL TIME  *        12.14 SEC
 DISK USED  *         1.09 GB
 SF USED    *         0.04 MB
 GA USED    *         0.23 MB       (max)       0.23 MB       (current)
 **********************************************************************************************************************************
   -->
   <time start="14:46:50" end="14:46:51" cpu="0.42" system="0.08" real="0.52"/>
   <storage units="megabyte" memory="4097.84" sf="0.04" df="651.96" eaf="433.93" ga="0.23"/>
  </jobstep><!--
 SETTING BASIS          =    USERDEF
  --><jobstep command="RHF-SCF" commandset="SCFPRO">
   <!--


 Recomputing integrals since basis changed


 Using spherical harmonics



 PROGRAM * SEWARD (Integral evaluation for generally contracted gaussian basis sets)     Author: Roland Lindh, 1990

 Geometry written to block  1 of record 700


 Point group  C2v



 ATOMIC COORDINATES

 NR  ATOM    CHARGE       X              Y              Z

   1  PD     46.00    0.000000000    0.000000000    0.000000000
   2  O       8.00    0.000000000    0.000000000    2.900729601

 Bond lengths in Bohr (Angstrom)

 1-2  2.900729601
     ( 1.535000000)

 NUCLEAR CHARGE:                   54
 NUMBER OF PRIMITIVE AOS:         642
 NUMBER OF SYMMETRY AOS:          471
 NUMBER OF CONTRACTIONS:          471   ( 186A1  + 112B1  + 112B2  +  61A2  )
 NUMBER OF CORE ORBITALS:          19   (  10A1  +   4B1  +   4B2  +   1A2  )
 NUMBER OF VALENCE ORBITALS:       10   (   5A1  +   2B1  +   2B2  +   1A2  )


 NUCLEAR REPULSION ENERGY  126.86463428

 One-electron integrals computed with SEWARD

 10nd-order Douglas-Kroll-Hess method activated. McWeeny DKH parametrization is used.

 Computing Douglas-Kroll / X2C integrals

 AO integral compression algorithm  1   Integral accuracy      1.0D-12

     3852.730 MB (compressed) written to integral file ( 27.4%)

     Node minimum: 122.421 MB, node maximum: 233.832 MB


 NUMBER OF SORTED TWO-ELECTRON INTEGRALS:   68264235.     BUFFER LENGTH:  32768
 NUMBER OF SEGMENTS:   3  SEGMENT LENGTH:   31977807      RECORD LENGTH: 524288

 Memory used in sort:      32.53 MW

 SORT1 READ  1760380706. AND WROTE    30150794. INTEGRALS IN     88 RECORDS. CPU TIME:    37.14 SEC, REAL TIME:    46.73 SEC
 SORT2 READ   689661591. AND WROTE  1570932477. INTEGRALS IN  13041 RECORDS. CPU TIME:     3.08 SEC, REAL TIME:     4.57 SEC

 Node minimum:    68250355.  Node maximum:    68491598. integrals

 OPERATOR DM      FOR CENTER  0  COORDINATES:    0.000000    0.000000    0.000000

 EXTRA SYMMETRY OF AOS IN SYMMETRY 1:   1 1 1 1 1 1 1 1 1 1   1 1 1 1 1 1 1 1 1 1   1 1 1 1 1 1 1 1 1 1   1 1 1 1 1 1 1 1 1 1
                                        1 1 1 1 1 1 1 1 1 1   1 1 1 2 1 2 1 2 1 2   1 2 1 2 1 2 1 2 1 2   1 2 1 2 1 2 1 2 1 2
                                        1 2 1 2 1 2 1 2 1 2   1 2 1 2 1 2 1 3 2 1   3 2 1 3 2 1 3 2 2 3   1 2 3 1 2 3 1 4 3 2
                                        1 4 3 2 1 1 1 1 1 1   1 1 1 1 1 1 1 1 1 1   1 1 1 1 1 1 1 1 1 1   1 1 1 1 2 1 2 1 2 1
                                        2 1 2 1 2 1 2 1 2 1   2 1 3 2 1 3 2 1 3 2   2 3 1 2 3 1
 EXTRA SYMMETRY OF AOS IN SYMMETRY 2:   1 1 1 1 1 1 1 1 1 1   1 1 1 1 1 1 1 1 1 1   1 1 1 1 1 1 1 1 1 1   1 1 1 1 1 1 1 1 1 1
                                        1 2 1 2 1 2 1 2 1 2   1 2 1 2 1 2 1 2 1 2   3 1 2 3 1 2 3 3 2 1   3 2 1 1 1 1 1 1 1 1
                                        1 1 1 1 1 1 1 1 1 1   1 1 1 2 1 2 1 2 1 2   1 2 1 2 1 2 1 2 3 1   2 3
 EXTRA SYMMETRY OF AOS IN SYMMETRY 3:   1 1 1 1 1 1 1 1 1 1   1 1 1 1 1 1 1 1 1 1   1 1 1 1 1 1 1 1 1 1   1 1 1 1 1 1 1 1 1 1
                                        1 2 1 2 1 2 1 2 1 2   1 2 1 2 1 2 1 2 1 2   3 1 2 3 1 2 3 3 2 1   3 2 1 1 1 1 1 1 1 1
                                        1 1 1 1 1 1 1 1 1 1   1 1 1 2 1 2 1 2 1 2   1 2 1 2 1 2 1 2 3 1   2 3
 EXTRA SYMMETRY OF AOS IN SYMMETRY 4:   1 1 1 1 1 1 1 1 1 1   1 1 1 1 1 1 1 1 1 1   1 1 1 2 1 2 1 2 1 2   2 1 2 1 2 1 1 3 2 1
                                        3 2 1 1 1 1 1 1 1 1   1 1 2 1 2 1 2 2 1 2   1

 Eigenvalues of metric

         1 0.241E-07 0.793E-07 0.505E-06 0.769E-06 0.779E-06 0.147E-05 0.441E-05 0.645E-05
         2 0.281E-07 0.725E-06 0.942E-06 0.848E-05 0.156E-04 0.538E-04 0.167E-03 0.270E-03
         3 0.281E-07 0.725E-06 0.942E-06 0.848E-05 0.156E-04 0.538E-04 0.167E-03 0.270E-03
         4 0.942E-05 0.300E-03 0.289E-02 0.348E-02 0.104E-01 0.199E-01 0.222E-01 0.305E-01


 **********************************************************************************************************************************
 DATASETS  * FILE   NREC   LENGTH (MB)   RECORD NAMES
              1      22       24.20       500      610      700      900      950      970     1001      129      960     1700
                                          VAR    BASINP    GEOM    SYMINP    ZMAT    AOBASIS   BASIS     P2S    ABASIS    OPER
                                         1101     1401     1411     1412     1650     1100     1400     1410     1200     1210
                                          SR      EKINR    POTR     PVPR    MOLCAS      S      EKIN      POT      H0       H01
                                         1080     1600
                                         AOSYM     SMH

              2       7        6.16       700     1000      520     1800     2100     2101     1001
                                         GEOM     BASIS   MCVARS    GRID      RKS      RHF     BASIS

 PROGRAMS   *        TOTAL       INT       RHF       RKS       INT
 CPU TIMES  *       110.54    100.23      0.41      0.75      8.84
 REAL TIME  *       124.08 SEC
 DISK USED  *        12.78 GB
 SF USED    *         0.04 MB
 GA USED    *         0.23 MB       (max)       0.00 MB       (current)
 **********************************************************************************************************************************


 PROGRAM * RHF-SCF (OPEN SHELL)       Authors: W. Meyer, H.-J. Werner


 NUMBER OF ELECTRONS:      28+   26-    SPACE SYMMETRY=2    SPIN SYMMETRY: Triplet
 CONVERGENCE THRESHOLDS:    1.00E-05 (Density)    1.08E-07 (Energy)
 MAX. NUMBER OF ITERATIONS:       60
 INTERPOLATION TYPE:            DIIS
 INTERPOLATION STEPS:              2 (START)      1 (STEP)
 LEVEL SHIFTS:                 -0.60 (CLOSED) -0.30 (OPEN)

 Number of closed-shell orbitals:   26 (  13   5   6   2 )
 Number of open-shell orbitals:      2 (   1   1   0   0 )


 Molecular orbitals read from record     2101.2  Type=RHF/CANONICAL (state 1.2)

 Present basis size:     186 112 112  61
 Previous basis size:     73  43  43  23
 Previous occupation:     14   6   6   2
 Previous closed-shells:  13   5   6   2
 Previous core-orbitals:  10   4   4   1
 Present occupation:      14   6   6   2
 Present closed-shells:   13   5   6   2
 Present core-orbitals:   10   4   4   1
 Wavefunction symmetry:    2   Triplet

 Orbital overlap <old|new>:  < 1.1| 1.1> = 1.000000   < 2.1| 2.1> = 1.000000   < 3.1| 3.1> = 1.000000   < 4.1| 4.1> = 1.000000
                             < 5.1| 5.1> = 1.000000   < 6.1| 6.1> = 0.999165   < 7.1| 7.1> = 1.000000   < 8.1| 8.1> = 1.000000
                             < 9.1| 9.1> = 1.000000   <10.1|10.1> = 1.000000   < 1.2| 1.2> = 1.000000   < 2.2| 2.2> = 1.000000
                             < 3.2| 3.2> = 1.000000   < 4.2| 4.2> = 1.000000   < 1.3| 1.3> = 1.000000   < 2.3| 2.3> = 1.000000
                             < 3.3| 3.3> = 1.000000   < 4.3| 4.3> = 1.000000   < 1.4| 1.4> = 1.000000   <11.1|11.1> = 0.999957
                             <12.1|12.1> = 0.999995   <13.1|13.1> = 1.000000   < 5.2| 5.2> = 0.999998   < 5.3| 5.3> = 0.999997
                             < 6.3| 6.3> = 0.999998   < 2.4| 2.4> = 1.000000   <14.1|14.1> = 1.000000   < 6.2| 6.2> = 0.999996

 Molecular orbital dump at record        2102.2

 ITERATION    DDIFF          GRAD             ENERGY        2-EL.EN.            DIPOLE MOMENTS         DIIS   ORB.
    1      0.000D+00      0.000D+00     -5115.57473927   4136.887628    0.00000    0.00000   -1.38911    0    start
    2      0.000D+00      0.551D-01     -5115.66392611   4136.371423    0.00000    0.00000   -1.39036    1    diag,B
    3      0.125D+02      0.890D-03     -5115.66456378   4136.196149    0.00000    0.00000   -1.42947    2    diag,B
    4      0.516D+00      0.185D-03     -5115.66466005   4136.519770    0.00000    0.00000   -1.42029    3    diag,B
    5      0.343D-01      0.800D-04     -5115.66468272   4136.305664    0.00000    0.00000   -1.43009    4    diag,B
    6      0.477D-02      0.412D-04     -5115.66469103   4136.389860    0.00000    0.00000   -1.43236    5    diag,B
    7      0.360D-02      0.134D-04     -5115.66469276   4136.392076    0.00000    0.00000   -1.43357    6    diag,B
    8      0.187D-02      0.602D-05     -5115.66469367   4136.399914    0.00000    0.00000   -1.43530    7    orth
    9      0.145D-02      0.347D-05     -5115.66469411   4136.406351    0.00000    0.00000   -1.43647    8    diag,B
   10      0.521D-03      0.214D-05     -5115.66469440   4136.414243    0.00000    0.00000   -1.43742    9    diag,B
   11      0.213D-03      0.153D-05     -5115.66469456   4136.419870    0.00000    0.00000   -1.43812    9    diag,B
   12      0.211D-03      0.972D-06     -5115.66469468   4136.427137    0.00000    0.00000   -1.43875    9    diag,B
   13      0.180D-03      0.550D-06     -5115.66469470   4136.430108    0.00000    0.00000   -1.43909    9    diag,B
   14      0.252D-03      0.281D-06     -5115.66469471   4136.431422    0.00000    0.00000   -1.43921    9    diag,B
   15      0.783D-04      0.164D-06     -5115.66469470   4136.431963    0.00000    0.00000   -1.43928    9    diag,B
   16      0.107D-03      0.101D-06     -5115.66469469   4136.432114    0.00000    0.00000   -1.43931    9    diag,B
   17      0.124D-03      0.713D-07     -5115.66469471   4136.432270    0.00000    0.00000   -1.43935    9    diag,B
   18      0.190D-03      0.599D-07     -5115.66469470   4136.432264    0.00000    0.00000   -1.43936    9    orth
   19      0.134D-03      0.403D-07     -5115.66469470   4136.432306    0.00000    0.00000   -1.43938    9    diag,B
   20      0.910D-04      0.358D-07     -5115.66469469   4136.432328    0.00000    0.00000   -1.43938    9    diag,B
   21      0.417D-04      0.222D-07     -5115.66469471   4136.432328    0.00000    0.00000   -1.43939    9    diag,B
   22      0.551D-04      0.236D-07     -5115.66469470   4136.432333    0.00000    0.00000   -1.43939    9    diag,B
   23      0.784D-04      0.169D-07     -5115.66469470   4136.432332    0.00000    0.00000   -1.43939    9    diag,B
   24      0.465D-04      0.118D-07     -5115.66469469   4136.432335    0.00000    0.00000   -1.43939    9    diag,B
   25      0.220D-04      0.123D-07     -5115.66469470   4136.432334    0.00000    0.00000   -1.43939    9    diag,B
   26      0.191D-04      0.125D-07     -5115.66469471   4136.432330    0.00000    0.00000   -1.43939    9    diag,B
   27      0.219D-04      0.144D-07     -5115.66469469   4136.432329    0.00000    0.00000   -1.43939    9    diag,B
   28      0.978D-05      0.621D-08     -5115.66469471   4136.432327    0.00000    0.00000   -1.43939    0    orth

 Final alpha occupancy:  14   6   6   2
 Final beta  occupancy:  13   5   6   2

 !RHF STATE 1.2 Energy              -5115.664694706076
   --><property name="Energy" method="RHF" principal="true" stateSymmetry="2" stateNumber="1"
     value="-5115.66469470608"/><!--
 Nuclear energy                       126.86463428
 One-electron energy                -7310.74549252
 Two-electron energy                 2068.21616353
 Virial quotient                       -0.88720892
 !RHF STATE 1.2 Dipole moment           0.00000000     0.00000000    -1.43939345
 Dipole moment /Debye                   0.00000000     0.00000000    -3.65833361
   --><property name="Dipole moment" method="RHF" principal="true" stateSymmetry="2"
     stateNumber="1" value="0.0 0.0 -1.43939345199116"/><!--

 Orbital energies:

         1.1          2.1          3.1          4.1          5.1          6.1          7.1          8.1          9.1         10.1
   -899.590982  -134.560407  -120.453331   -25.716138   -20.962999   -19.749997   -13.372462   -13.367815    -4.026526    -2.607293

        11.1         12.1         13.1         14.1         15.1         16.1
     -1.199615    -0.589095    -0.468815    -0.315476     0.006272     0.030918

         1.2          2.2          3.2          4.2          5.2          6.2          7.2          8.2
   -120.448690   -20.944753   -13.381024    -2.567309    -0.563753    -0.484980     0.023381     0.078863

         1.3          2.3          3.3          4.3          5.3          6.3          7.3          8.3
   -120.447527   -20.940779   -13.382165    -2.565968    -0.632418    -0.377925     0.024515     0.081548

         1.4          2.4          3.4          4.4
    -13.369609    -0.468958     0.096673     0.316779

 HOMO     14.1    -0.315476 =      -8.5845eV
 LUMO     15.1     0.006272 =       0.1707eV
 LUMO-HOMO         0.321747 =       8.7552eV


 **********************************************************************************************************************************
 DATASETS  * FILE   NREC   LENGTH (MB)   RECORD NAMES
              1      22       24.20       500      610      700      900      950      970     1001      129      960     1700
                                          VAR    BASINP    GEOM    SYMINP    ZMAT    AOBASIS   BASIS     P2S    ABASIS    OPER
                                         1101     1401     1411     1412     1650     1100     1400     1410     1200     1210
                                          SR      EKINR    POTR     PVPR    MOLCAS      S      EKIN      POT      H0       H01
                                         1080     1600
                                         AOSYM     SMH

              2       8       10.45       700     1000      520     1800     2100     2101     1001     2102
                                         GEOM     BASIS   MCVARS    GRID      RKS      RHF     BASIS     RHF

 PROGRAMS   *        TOTAL       RHF       INT       RHF       RKS       INT
 CPU TIMES  *       121.88     11.34    100.23      0.41      0.75      8.84
 REAL TIME  *       136.32 SEC
 DISK USED  *        13.14 GB
 SF USED    *         0.26 MB
 GA USED    *         0.23 MB       (max)       0.00 MB       (current)
 **********************************************************************************************************************************
   -->
   <time start="14:46:51" end="14:48:55" cpu="111.59" system="11.12" real="124.18"/>
   <storage units="megabyte" memory="4097.84" sf="0.26" df="1011.05" eaf="12130.43"
     ga="0.0"/>
  </jobstep><!--
 SETTING SCF            =     -5115.66469471  AU
 SETTING _CC_NORM_MAX   =         2.00000000
  --><jobstep command="RCCSD(T)" commandset="CCSD">
   <!--


 PROGRAM * CCSD (Restricted open-shell coupled cluster)     Authors: C. Hampel, H.-J. Werner, 1991, M. Deegan, P.J. Knowles, 1992


 Convergence thresholds:  THRVAR = 1.00D-08  THRDEN = 1.08D-06

 CCSD(T)     terms to be evaluated (factor= 1.000)


 Number of closed-shell orbitals:  26 (  13   5   6   2 )
 Number of active  orbitals:        2 (   1   1   0   0 )
 Number of external orbitals:     443 ( 172 106 106  59 )

 For full I/O caching in triples, increase memory by 456.44 Mwords to 968.72 Mwords.

 Number of N-1 electron functions:              54
 Number of N-2 electron functions:            1431
 Number of singly external CSFs:              7356
 Number of doubly external CSFs:          54592887
 Total number of CSFs:                    54600243

 Molecular orbitals read from record     2102.2  Type=RHF/CANONICAL (state 1.2)

 Integral transformation finished. Total CPU:  77.71 sec, npass=  1  Memory used: 103.89 MW

 Starting RMP2 calculation

 Wavefunction is spin-projected

 ITER.      SQ.NORM     CORR.ENERGY   TOTAL ENERGY   ENERGY CHANGE        DEN1      VAR(S)    VAR(P)  DIIS     TIME
   1      1.22926492    -2.09677183 -5117.76146653    -2.09677183    -0.00194620  0.41D-04  0.72D-03  1  1    98.02
   2      1.23112010    -2.09883595 -5117.76353066    -0.00206413    -0.00000947  0.13D-05  0.49D-05  2  2   116.06
   3      1.23124979    -2.09891245 -5117.76360715    -0.00007650    -0.00000009  0.38D-07  0.39D-07  3  3   134.36
   4      1.23125591    -2.09891407 -5117.76360877    -0.00000161    -0.00000000  0.70D-09  0.50D-09  4  4   152.69
   5      1.23125601    -2.09891399 -5117.76360869     0.00000008    -0.00000000  0.13D-10  0.61D-11  5  5   183.08

 Norm of t1 vector:      0.04997162      S-energy:    -0.00533529      T1 diagnostic:  0.00068185
 Norm of t2 vector:      0.47828741      P-energy:    -2.09357870
                                         Alpha-Beta:  -1.42681657
                                         Alpha-Alpha: -0.34943964
                                         Beta-Beta:   -0.31732250

 Spin contamination <S**2-Sz**2-Sz>     0.00000000
  Reference energy                  -5115.664694703371
   --><property name="energy" method="Reference" stateSymmetry="1" stateNumber="1"
     value="-5115.66469470337"/><!--
  RHF-RMP2 correlation energy          -2.098913989503
   --><property name="energy" method="RHF-RMP2 correlation" stateSymmetry="1" stateNumber="1"
     value="-2.09891398950321"/><!--
 !RHF-RMP2 energy                   -5117.763608692873
   --><property name="energy" method="RHF-RMP2" principal="true" stateSymmetry="2"
     stateNumber="1" value="-5117.76360869287"/><!--
 (NB above energy spin projected)

 Starting RCCSD calculation

 ITER.      SQ.NORM     CORR.ENERGY   TOTAL ENERGY   ENERGY CHANGE        DEN1      VAR(S)    VAR(P)  DIIS     TIME
   1      1.18529097    -1.94490420 -5117.60959891    -1.94490420    -0.05201297  0.14D-01  0.74D-02  0  0   399.25
   2      1.21436201    -1.99314662 -5117.65784132    -0.04824242    -0.01386148  0.59D-03  0.24D-02  0  0   611.63
   3      1.23897904    -1.98487662 -5117.64957133     0.00827000    -0.49686302  0.19D-02  0.13D-01  0  0   828.36
   4      2.56312909    -1.99848350 -5117.66317820    -0.01360687   -42.74621194  0.42D-03  0.12D+01  0  0  1051.78
   5    120.54792071    -2.01174719 -5117.67644189    -0.01326369 -4274.10017982  0.41D-02  0.11D+03  0  0  1266.63

 UNREASONABLE NORM:120.547921 CALCULATION WILL BE STOPPED

 The threshold can be changed using option CC_NORM_MAX (see manual). The current value is CC_NORM_MAX=2.00

 Norm of t1 vector:      0.22434489      S-energy:    -0.00521800      T1 diagnostic:  0.02103369
                                                                       D1 diagnostic:  0.10738187
 Norm of t2 vector:     10.93149533      P-energy:    -2.00652918
                                         Alpha-Beta:  -1.40752205
                                         Alpha-Alpha: -0.31097462
                                         Beta-Beta:   -0.28803252

 Singles amplitudes (print threshold =  0.500E-01):

         I         SYM. A    A   T(IA) [Beta-Beta]

        12         1         1     -0.07377218
        19         2         1     -0.15183817

 Doubles amplitudes (print threshold =  0.500E-01):

         I         J         SYM. A    SYM. B    A         B      T(IJ, AB) [Alpha-Alpha]

        19        12         1         2        90        62     -0.05212228
        19        12         1         2       112        62      0.05632124
        19        12         1         2       112        78      0.05536825
        19        12         2         1        62        90      0.05212228
        19        12         2         1        62       112     -0.05632124
        19        12         2         1        78       112     -0.05536825
        20        11         1         2       125        78      0.05056919
        20        11         2         1        78       125     -0.05056919
        20        12         1         2        37        39     -0.05472939
        20        12         1         2        37        54     -0.05467812
        20        12         1         2        37        62      0.05184370
        20        12         1         2        50        22     -0.06544087
        20        12         1         2        50        32      0.06628618
        20        12         1         2        50        39      0.09083420
        20        12         1         2        50        54      0.08974607
        20        12         1         2        50        62     -0.09189963
        20        12         1         2        50        78     -0.07533332
        20        12         1         2        57        32      0.05199271
        20        12         1         2        57        39      0.07213403
        20        12         1         2        57        54      0.07955857
        20        12         1         2        57        62     -0.08423440
        20        12         1         2        57        78     -0.07307450
        20        12         1         2        60        22     -0.06258883
        20        12         1         2        60        32      0.06955116
        20        12         1         2        60        39      0.09086292
        20        12         1         2        60        54      0.09701084
        20        12         1         2        60        62     -0.10060926
        20        12         1         2        60        78     -0.08594415
        20        12         1         2        60        85      0.05716952
        20        12         1         2        79        22      0.06343676
        20        12         1         2        79        32     -0.07510256
        20        12         1         2        79        39     -0.11160636
        20        12         1         2        79        54     -0.12469289
        20        12         1         2        79        62      0.13974240
        20        12         1         2        79        78      0.12451259
        20        12         1         2        79        85     -0.08737661
        20        12         1         2        80        54     -0.05676761
        20        12         1         2        80        62      0.06408399
        20        12         1         2        80        78      0.05773153
        20        12         1         2        81        54     -0.05265400
        20        12         1         2        81        62      0.05695693
        20        12         1         2        90        22      0.05239370
        20        12         1         2        90        32     -0.06735438
        20        12         1         2        90        39     -0.10241701
        20        12         1         2        90        54     -0.12293479
        20        12         1         2        90        62      0.14310488
        20        12         1         2        90        78      0.13445119
        20        12         1         2        90        85     -0.09782652
        20        12         1         2        91        32     -0.05717754
        20        12         1         2        91        39     -0.08605421
        20        12         1         2        91        54     -0.10298959
        20        12         1         2        91        62      0.11986612
        20        12         1         2        91        78      0.11276655
        20        12         1         2        91        85     -0.08213542
        20        12         1         2       112        32      0.06269031
        20        12         1         2       112        39      0.09930226
        20        12         1         2       112        54      0.12318811
        20        12         1         2       112        62     -0.15127251
        20        12         1         2       112        78     -0.14848507
        20        12         1         2       112        85      0.11377032
        20        12         1         2       112        87      0.06081096
        20        12         1         2       123        39     -0.07164640
        20        12         1         2       123        54     -0.09265605
        20        12         1         2       123        62      0.11803167
        20        12         1         2       123        78      0.12173930
        20        12         1         2       123        85     -0.09765552
        20        12         1         2       123        87     -0.05532143
        20        12         1         2       127        62      0.06099675
        20        12         1         2       127        78      0.06571229
        20        12         1         2       127        85     -0.05587892
        20        12         2         1        22        50      0.06544087
        20        12         2         1        22        60      0.06258883
        20        12         2         1        22        79     -0.06343676
        20        12         2         1        22        90     -0.05239370
        20        12         2         1        32        50     -0.06628618
        20        12         2         1        32        57     -0.05199271
        20        12         2         1        32        60     -0.06955116
        20        12         2         1        32        79      0.07510256
        20        12         2         1        32        90      0.06735438
        20        12         2         1        32        91      0.05717754
        20        12         2         1        32       112     -0.06269031
        20        12         2         1        39        37      0.05472939
        20        12         2         1        39        50     -0.09083420
        20        12         2         1        39        57     -0.07213403
        20        12         2         1        39        60     -0.09086292
        20        12         2         1        39        79      0.11160636
        20        12         2         1        39        90      0.10241701
        20        12         2         1        39        91      0.08605421
        20        12         2         1        39       112     -0.09930226
        20        12         2         1        39       123      0.07164640
        20        12         2         1        54        37      0.05467812
        20        12         2         1        54        50     -0.08974607
        20        12         2         1        54        57     -0.07955857
        20        12         2         1        54        60     -0.09701084
        20        12         2         1        54        79      0.12469289
        20        12         2         1        54        80      0.05676761
        20        12         2         1        54        81      0.05265400
        20        12         2         1        54        90      0.12293479
        20        12         2         1        54        91      0.10298959
        20        12         2         1        54       112     -0.12318811
        20        12         2         1        54       123      0.09265605
        20        12         2         1        62        37     -0.05184370
        20        12         2         1        62        50      0.09189963
        20        12         2         1        62        57      0.08423440
        20        12         2         1        62        60      0.10060926
        20        12         2         1        62        79     -0.13974240
        20        12         2         1        62        80     -0.06408399
        20        12         2         1        62        81     -0.05695693
        20        12         2         1        62        90     -0.14310488
        20        12         2         1        62        91     -0.11986612
        20        12         2         1        62       112      0.15127251
        20        12         2         1        62       123     -0.11803167
        20        12         2         1        62       127     -0.06099675
        20        12         2         1        78        50      0.07533332
        20        12         2         1        78        57      0.07307450
        20        12         2         1        78        60      0.08594415
        20        12         2         1        78        79     -0.12451259
        20        12         2         1        78        80     -0.05773153
        20        12         2         1        78        90     -0.13445119
        20        12         2         1        78        91     -0.11276655
        20        12         2         1        78       112      0.14848507
        20        12         2         1        78       123     -0.12173930
        20        12         2         1        78       127     -0.06571229
        20        12         2         1        85        60     -0.05716952
        20        12         2         1        85        79      0.08737661
        20        12         2         1        85        90      0.09782652
        20        12         2         1        85        91      0.08213542
        20        12         2         1        85       112     -0.11377032
        20        12         2         1        85       123      0.09765552
        20        12         2         1        85       127      0.05587892
        20        12         2         1        87       112     -0.06081096
        20        12         2         1        87       123      0.05532143
        20        14         1         2        79        54     -0.05290134
        20        14         1         2        79        62      0.05953804
        20        14         1         2        79        78      0.05303566
        20        14         1         2        90        54     -0.05090295
        20        14         1         2        90        62      0.05947898
        20        14         1         2        90        78      0.05575062
        20        14         1         2       112        54      0.05011925
        20        14         1         2       112        62     -0.06159681
        20        14         1         2       112        78     -0.06029480
        20        14         2         1        54        79      0.05290134
        20        14         2         1        54        90      0.05090295
        20        14         2         1        54       112     -0.05011925
        20        14         2         1        62        79     -0.05953804
        20        14         2         1        62        90     -0.05947898
        20        14         2         1        62       112      0.06159681
        20        14         2         1        78        79     -0.05303566
        20        14         2         1        78        90     -0.05575062
        20        14         2         1        78       112      0.06029480
        25        12         1         3        50        38      0.06334075
        25        12         1         3        50        53      0.06267954
        25        12         1         3        50        61      0.06382720
        25        12         1         3        50        77      0.05195567
        25        12         1         3        57        38      0.05145904
        25        12         1         3        57        53      0.05676238
        25        12         1         3        57        61      0.05987488
        25        12         1         3        57        77      0.05167536
        25        12         1         3        60        38      0.06362520
        25        12         1         3        60        53      0.06804267
        25        12         1         3        60        61      0.07056827
        25        12         1         3        60        77      0.06008162
        25        12         1         3        79        31      0.05134455
        25        12         1         3        79        38     -0.07699043
        25        12         1         3        79        53     -0.08580667
        25        12         1         3        79        61     -0.09591017
        25        12         1         3        79        77     -0.08507956
        25        12         1         3        79        84      0.06074169
        25        12         1         3        90        38     -0.07153305
        25        12         1         3        90        53     -0.08586195
        25        12         1         3        90        61     -0.09975021
        25        12         1         3        90        77     -0.09339259
        25        12         1         3        90        84      0.06918065
        25        12         1         3        91        38     -0.06135613
        25        12         1         3        91        53     -0.07357364
        25        12         1         3        91        61     -0.08571231
        25        12         1         3        91        77     -0.08048910
        25        12         1         3        91        84      0.05973159
        25        12         1         3       112        38      0.07000930
        25        12         1         3       112        53      0.08688149
        25        12         1         3       112        61      0.10668476
        25        12         1         3       112        77      0.10442754
        25        12         1         3       112        84     -0.08150221
        25        12         1         3       123        38     -0.05055128
        25        12         1         3       123        53     -0.06546530
        25        12         1         3       123        61     -0.08341870
        25        12         1         3       123        77     -0.08583781
        25        12         1         3       123        84      0.07015626
        25        12         3         1        31        79     -0.05134455
        25        12         3         1        38        50     -0.06334075
        25        12         3         1        38        57     -0.05145904
        25        12         3         1        38        60     -0.06362520
        25        12         3         1        38        79      0.07699043
        25        12         3         1        38        90      0.07153305
        25        12         3         1        38        91      0.06135613
        25        12         3         1        38       112     -0.07000930
        25        12         3         1        38       123      0.05055128
        25        12         3         1        53        50     -0.06267954
        25        12         3         1        53        57     -0.05676238
        25        12         3         1        53        60     -0.06804267
        25        12         3         1        53        79      0.08580667
        25        12         3         1        53        90      0.08586195
        25        12         3         1        53        91      0.07357364
        25        12         3         1        53       112     -0.08688149
        25        12         3         1        53       123      0.06546530
        25        12         3         1        61        50     -0.06382720
        25        12         3         1        61        57     -0.05987488
        25        12         3         1        61        60     -0.07056827
        25        12         3         1        61        79      0.09591017
        25        12         3         1        61        90      0.09975021
        25        12         3         1        61        91      0.08571231
        25        12         3         1        61       112     -0.10668476
        25        12         3         1        61       123      0.08341870
        25        12         3         1        77        50     -0.05195567
        25        12         3         1        77        57     -0.05167536
        25        12         3         1        77        60     -0.06008162
        25        12         3         1        77        79      0.08507956
        25        12         3         1        77        90      0.09339259
        25        12         3         1        77        91      0.08048910
        25        12         3         1        77       112     -0.10442754
        25        12         3         1        77       123      0.08583781
        25        12         3         1        84        79     -0.06074169
        25        12         3         1        84        90     -0.06918065
        25        12         3         1        84        91     -0.05973159
        25        12         3         1        84       112      0.08150221
        25        12         3         1        84       123     -0.07015626
        25        14         1         3        79        61     -0.05257760
        25        14         1         3        90        61     -0.05265487
        25        14         1         3       112        61      0.05455920
        25        14         1         3       112        77      0.05324142
        25        14         3         1        61        79      0.05257760
        25        14         3         1        61        90      0.05265487
        25        14         3         1        61       112     -0.05455920
        25        14         3         1        77       112     -0.05324142
        26        12         1         3        50        21     -0.05102991
        26        12         1         3        50        31      0.05041805
        26        12         1         3        50        38     -0.07019273
        26        12         1         3        50        53     -0.06904801
        26        12         1         3        50        61     -0.07072571
        26        12         1         3        50        77     -0.05771560
        26        12         1         3        57        38     -0.05546669
        26        12         1         3        57        53     -0.06083589
        26        12         1         3        57        61     -0.06446587
        26        12         1         3        57        77     -0.05562736
        26        12         1         3        60        31      0.05292275
        26        12         1         3        60        38     -0.07037016
        26        12         1         3        60        53     -0.07469962
        26        12         1         3        60        61     -0.07759065
        26        12         1         3        60        77     -0.06592644
        26        12         1         3        79        31     -0.05710353
        26        12         1         3        79        38      0.08618717
        26        12         1         3        79        53      0.09598288
        26        12         1         3        79        61      0.10764709
        26        12         1         3        79        77      0.09545476
        26        12         1         3        79        84     -0.06755258
        26        12         1         3        90        31     -0.05098527
        26        12         1         3        90        38      0.07886480
        26        12         1         3        90        53      0.09427082
        26        12         1         3        90        61      0.10990373
        26        12         1         3        90        77      0.10274221
        26        12         1         3        90        84     -0.07539686
        26        12         1         3        91        38      0.06612199
        26        12         1         3        91        53      0.07878589
        26        12         1         3        91        61      0.09179531
        26        12         1         3        91        77      0.08590274
        26        12         1         3        91        84     -0.06311649
        26        12         1         3       112        38     -0.07628159
        26        12         1         3       112        53     -0.09428531
        26        12         1         3       112        61     -0.11590971
        26        12         1         3       112        77     -0.11322907
        26        12         1         3       112        84      0.08750768
        26        12         1         3       123        38      0.05502207
        26        12         1         3       123        53      0.07089052
        26        12         1         3       123        61      0.09043246
        26        12         1         3       123        77      0.09281995
        26        12         1         3       123        84     -0.07511373
        26        12         1         3       127        77      0.05001903
        26        12         3         1        21        50      0.05102991
        26        12         3         1        31        50     -0.05041805
        26        12         3         1        31        60     -0.05292275
        26        12         3         1        31        79      0.05710353
        26        12         3         1        31        90      0.05098527
        26        12         3         1        38        50      0.07019273
        26        12         3         1        38        57      0.05546669
        26        12         3         1        38        60      0.07037016
        26        12         3         1        38        79     -0.08618717
        26        12         3         1        38        90     -0.07886480
        26        12         3         1        38        91     -0.06612199
        26        12         3         1        38       112      0.07628159
        26        12         3         1        38       123     -0.05502207
        26        12         3         1        53        50      0.06904801
        26        12         3         1        53        57      0.06083589
        26        12         3         1        53        60      0.07469962
        26        12         3         1        53        79     -0.09598288
        26        12         3         1        53        90     -0.09427082
        26        12         3         1        53        91     -0.07878589
        26        12         3         1        53       112      0.09428531
        26        12         3         1        53       123     -0.07089052
        26        12         3         1        61        50      0.07072571
        26        12         3         1        61        57      0.06446587
        26        12         3         1        61        60      0.07759065
        26        12         3         1        61        79     -0.10764709
        26        12         3         1        61        90     -0.10990373
        26        12         3         1        61        91     -0.09179531
        26        12         3         1        61       112      0.11590971
        26        12         3         1        61       123     -0.09043246
        26        12         3         1        77        50      0.05771560
        26        12         3         1        77        57      0.05562736
        26        12         3         1        77        60      0.06592644
        26        12         3         1        77        79     -0.09545476
        26        12         3         1        77        90     -0.10274221
        26        12         3         1        77        91     -0.08590274
        26        12         3         1        77       112      0.11322907
        26        12         3         1        77       123     -0.09281995
        26        12         3         1        77       127     -0.05001903
        26        12         3         1        84        79      0.06755258
        26        12         3         1        84        90      0.07539686
        26        12         3         1        84        91      0.06311649
        26        12         3         1        84       112     -0.08750768
        26        12         3         1        84       123      0.07511373

         I         J         SYM. A    SYM. B    A         B      T(IJ, AB) [Beta-Beta]

        19        12         1         2         1         1     -0.06039720
        19        12         1         2        90        62     -0.05212228
        19        12         1         2       112        62      0.05632124
        19        12         1         2       112        78      0.05536825
        19        12         2         1         1         1      0.06039720
        19        12         2         1        62        90      0.05212228
        19        12         2         1        62       112     -0.05632124
        19        12         2         1        78       112     -0.05536825
        25        12         1         3        50        38      0.06334075
        25        12         1         3        50        53      0.06267954
        25        12         1         3        50        61      0.06382720
        25        12         1         3        50        77      0.05195567
        25        12         1         3        57        38      0.05145904
        25        12         1         3        57        53      0.05676238
        25        12         1         3        57        61      0.05987488
        25        12         1         3        57        77      0.05167536
        25        12         1         3        60        38      0.06362520
        25        12         1         3        60        53      0.06804267
        25        12         1         3        60        61      0.07056827
        25        12         1         3        60        77      0.06008162
        25        12         1         3        79        31      0.05134455
        25        12         1         3        79        38     -0.07699043
        25        12         1         3        79        53     -0.08580667
        25        12         1         3        79        61     -0.09591017
        25        12         1         3        79        77     -0.08507956
        25        12         1         3        79        84      0.06074169
        25        12         1         3        90        38     -0.07153305
        25        12         1         3        90        53     -0.08586195
        25        12         1         3        90        61     -0.09975021
        25        12         1         3        90        77     -0.09339259
        25        12         1         3        90        84      0.06918065
        25        12         1         3        91        38     -0.06135613
        25        12         1         3        91        53     -0.07357364
        25        12         1         3        91        61     -0.08571231
        25        12         1         3        91        77     -0.08048910
        25        12         1         3        91        84      0.05973159
        25        12         1         3       112        38      0.07000930
        25        12         1         3       112        53      0.08688149
        25        12         1         3       112        61      0.10668476
        25        12         1         3       112        77      0.10442754
        25        12         1         3       112        84     -0.08150221
        25        12         1         3       123        38     -0.05055128
        25        12         1         3       123        53     -0.06546530
        25        12         1         3       123        61     -0.08341870
        25        12         1         3       123        77     -0.08583781
        25        12         1         3       123        84      0.07015626
        25        12         3         1        31        79     -0.05134455
        25        12         3         1        38        50     -0.06334075
        25        12         3         1        38        57     -0.05145904
        25        12         3         1        38        60     -0.06362520
        25        12         3         1        38        79      0.07699043
        25        12         3         1        38        90      0.07153305
        25        12         3         1        38        91      0.06135613
        25        12         3         1        38       112     -0.07000930
        25        12         3         1        38       123      0.05055128
        25        12         3         1        53        50     -0.06267954
        25        12         3         1        53        57     -0.05676238
        25        12         3         1        53        60     -0.06804267
        25        12         3         1        53        79      0.08580667
        25        12         3         1        53        90      0.08586195
        25        12         3         1        53        91      0.07357364
        25        12         3         1        53       112     -0.08688149
        25        12         3         1        53       123      0.06546530
        25        12         3         1        61        50     -0.06382720
        25        12         3         1        61        57     -0.05987488
        25        12         3         1        61        60     -0.07056827
        25        12         3         1        61        79      0.09591017
        25        12         3         1        61        90      0.09975021
        25        12         3         1        61        91      0.08571231
        25        12         3         1        61       112     -0.10668476
        25        12         3         1        61       123      0.08341870
        25        12         3         1        77        50     -0.05195567
        25        12         3         1        77        57     -0.05167536
        25        12         3         1        77        60     -0.06008162
        25        12         3         1        77        79      0.08507956
        25        12         3         1        77        90      0.09339259
        25        12         3         1        77        91      0.08048910
        25        12         3         1        77       112     -0.10442754
        25        12         3         1        77       123      0.08583781
        25        12         3         1        84        79     -0.06074169
        25        12         3         1        84        90     -0.06918065
        25        12         3         1        84        91     -0.05973159
        25        12         3         1        84       112      0.08150221
        25        12         3         1        84       123     -0.07015626
        26        12         1         3        50        21     -0.05102991
        26        12         1         3        50        31      0.05041805
        26        12         1         3        50        38     -0.07019273
        26        12         1         3        50        53     -0.06904801
        26        12         1         3        50        61     -0.07072571
        26        12         1         3        50        77     -0.05771560
        26        12         1         3        57        38     -0.05546669
        26        12         1         3        57        53     -0.06083589
        26        12         1         3        57        61     -0.06446587
        26        12         1         3        57        77     -0.05562736
        26        12         1         3        60        31      0.05292275
        26        12         1         3        60        38     -0.07037016
        26        12         1         3        60        53     -0.07469962
        26        12         1         3        60        61     -0.07759065
        26        12         1         3        60        77     -0.06592644
        26        12         1         3        79        31     -0.05710353
        26        12         1         3        79        38      0.08618717
        26        12         1         3        79        53      0.09598288
        26        12         1         3        79        61      0.10764709
        26        12         1         3        79        77      0.09545476
        26        12         1         3        79        84     -0.06755258
        26        12         1         3        90        31     -0.05098527
        26        12         1         3        90        38      0.07886480
        26        12         1         3        90        53      0.09427082
        26        12         1         3        90        61      0.10990373
        26        12         1         3        90        77      0.10274221
        26        12         1         3        90        84     -0.07539686
        26        12         1         3        91        38      0.06612199
        26        12         1         3        91        53      0.07878589
        26        12         1         3        91        61      0.09179531
        26        12         1         3        91        77      0.08590274
        26        12         1         3        91        84     -0.06311649
        26        12         1         3       112        38     -0.07628159
        26        12         1         3       112        53     -0.09428531
        26        12         1         3       112        61     -0.11590971
        26        12         1         3       112        77     -0.11322907
        26        12         1         3       112        84      0.08750768
        26        12         1         3       123        38      0.05502207
        26        12         1         3       123        53      0.07089052
        26        12         1         3       123        61      0.09043246
        26        12         1         3       123        77      0.09281995
        26        12         1         3       123        84     -0.07511373
        26        12         1         3       127        77      0.05001903
        26        12         3         1        21        50      0.05102991
        26        12         3         1        31        50     -0.05041805
        26        12         3         1        31        60     -0.05292275
        26        12         3         1        31        79      0.05710353
        26        12         3         1        31        90      0.05098527
        26        12         3         1        38        50      0.07019273
        26        12         3         1        38        57      0.05546669
        26        12         3         1        38        60      0.07037016
        26        12         3         1        38        79     -0.08618717
        26        12         3         1        38        90     -0.07886480
        26        12         3         1        38        91     -0.06612199
        26        12         3         1        38       112      0.07628159
        26        12         3         1        38       123     -0.05502207
        26        12         3         1        53        50      0.06904801
        26        12         3         1        53        57      0.06083589
        26        12         3         1        53        60      0.07469962
        26        12         3         1        53        79     -0.09598288
        26        12         3         1        53        90     -0.09427082
        26        12         3         1        53        91     -0.07878589
        26        12         3         1        53       112      0.09428531
        26        12         3         1        53       123     -0.07089052
        26        12         3         1        61        50      0.07072571
        26        12         3         1        61        57      0.06446587
        26        12         3         1        61        60      0.07759065
        26        12         3         1        61        79     -0.10764709
        26        12         3         1        61        90     -0.10990373
        26        12         3         1        61        91     -0.09179531
        26        12         3         1        61       112      0.11590971
        26        12         3         1        61       123     -0.09043246
        26        12         3         1        77        50      0.05771560
        26        12         3         1        77        57      0.05562736
        26        12         3         1        77        60      0.06592644
        26        12         3         1        77        79     -0.09545476
        26        12         3         1        77        90     -0.10274221
        26        12         3         1        77        91     -0.08590274
        26        12         3         1        77       112      0.11322907
        26        12         3         1        77       123     -0.09281995
        26        12         3         1        77       127     -0.05001903
        26        12         3         1        84        79      0.06755258
        26        12         3         1        84        90      0.07539686
        26        12         3         1        84        91      0.06311649
        26        12         3         1        84       112     -0.08750768
        26        12         3         1        84       123      0.07511373

         I         J         SYM. A    SYM. B    A         B      T(IJ, AB) [Alpha-Beta]

         6         6         1         1        79       112     -0.05477071
         6         6         1         1        79       123      0.05457680
         6         6         1         1        90        90      0.05528509
[...]
        13        13         1         1       123        93      0.05303269
        13        13         1         1       123        94     -0.09839166
        13        13         1         1       123       106     -0.05426917
        13        13         1         1       123       112      0.12311903
        13        13         1         1       123       119      0.08438486
        13        13         1         1       123       123     -0.10805231
        13        13         1         1       123       127     -0.06282086
        13        13         1         1       126       112      0.05431054
        13        13         1         1       127        57      0.05597891
        13        13         1         1       127        79     -0.06147002
        13        13         1         1       127        90     -0.07058333
        13        13         1         1       127        94     -0.05352621
        13        13         1         1       127       112      0.06780962
        13        13         1         1       127       123     -0.06282086
        13        13         2         2        22        72      0.07069746
        13        13         2         2        22        86     -0.07327657
        13        13         2         2        32        72     -0.08118070
        13        13         2         2        32        86      0.08685373
        13        13         2         2        39        51      0.05910096
        13        13         2         2        39        72     -0.10469968
        13        13         2         2        39        73      0.05303793
        13        13         2         2        39        86      0.11726388
        13        13         2         2        39        89      0.06839267
        13        13         2         2        51        39      0.05910096
        13        13         2         2        51        54      0.05420474
        13        13         2         2        54        51      0.05420474
        13        13         2         2        54        72     -0.10333022
        13        13         2         2        54        73      0.05276661
        13        13         2         2        54        86      0.12257480
        13        13         2         2        54        89      0.07425795
        13        13         2         2        62        72      0.10018908
        13        13         2         2        62        73     -0.05178610
        13        13         2         2        62        86     -0.12749904
        13        13         2         2        62        89     -0.08112107
        13        13         2         2        72        22      0.07069746
        13        13         2         2        72        32     -0.08118070
        13        13         2         2        72        39     -0.10469968
        13        13         2         2        72        54     -0.10333022
        13        13         2         2        72        62      0.10018908
        13        13         2         2        72        78      0.08429828
        13        13         2         2        72        85     -0.05846663
        13        13         2         2        73        39      0.05303793
        13        13         2         2        73        54      0.05276661
        13        13         2         2        73        62     -0.05178610
        13        13         2         2        78        72      0.08429828
        13        13         2         2        78        86     -0.11590758
        13        13         2         2        78        89     -0.07817899
        13        13         2         2        85        72     -0.05846663
        13        13         2         2        85        86      0.08739250
        13        13         2         2        85        89      0.06316662
        13        13         2         2        86        22     -0.07327657
        13        13         2         2        86        32      0.08685373
        13        13         2         2        86        39      0.11726388
        13        13         2         2        86        54      0.12257480
        13        13         2         2        86        62     -0.12749904
        13        13         2         2        86        78     -0.11590758
        13        13         2         2        86        85      0.08739250
        13        13         2         2        89        39      0.06839267
        13        13         2         2        89        54      0.07425795
        13        13         2         2        89        62     -0.08112107
        13        13         2         2        89        78     -0.07817899
        13        13         2         2        89        85      0.06316662
        13        13         3         3        21        71      0.07109569
        13        13         3         3        21        85      0.07369435
        13        13         3         3        31        71     -0.07965832
        13        13         3         3        31        85     -0.08522195
        13        13         3         3        38        50      0.05844259
        13        13         3         3        38        71      0.10441227
        13        13         3         3        38        72     -0.05256082
        13        13         3         3        38        85      0.11696093
        13        13         3         3        38        88      0.06824647
        13        13         3         3        50        38      0.05844259
        13        13         3         3        50        53      0.05349507
        13        13         3         3        53        50      0.05349507
        13        13         3         3        53        71      0.10288180
        13        13         3         3        53        72     -0.05219700
        13        13         3         3        53        85      0.12205547
        13        13         3         3        53        88      0.07397635
        13        13         3         3        61        71      0.09990983
        13        13         3         3        61        72     -0.05131320
        13        13         3         3        61        85      0.12716689
        13        13         3         3        61        88      0.08094812
        13        13         3         3        71        21      0.07109569
        13        13         3         3        71        31     -0.07965832
        13        13         3         3        71        38      0.10441227
        13        13         3         3        71        53      0.10288180
        13        13         3         3        71        61      0.09990983
        13        13         3         3        71        77      0.08376069
        13        13         3         3        71        84     -0.05876625
        13        13         3         3        72        38     -0.05256082
        13        13         3         3        72        53     -0.05219700
        13        13         3         3        72        61     -0.05131320
        13        13         3         3        77        71      0.08376069
        13        13         3         3        77        85      0.11518100
        13        13         3         3        77        88      0.07772193
        13        13         3         3        84        71     -0.05876625
        13        13         3         3        84        85     -0.08781857
        13        13         3         3        84        88     -0.06350139
        13        13         3         3        85        21      0.07369435
        13        13         3         3        85        31     -0.08522195
        13        13         3         3        85        38      0.11696093
        13        13         3         3        85        53      0.12205547
        13        13         3         3        85        61      0.12716689
        13        13         3         3        85        77      0.11518100
        13        13         3         3        85        84     -0.08781857
        13        13         3         3        88        38      0.06824647
        13        13         3         3        88        53      0.07397635
        13        13         3         3        88        61      0.08094812
        13        13         3         3        88        77      0.07772193
        13        13         3         3        88        84     -0.06350139
        14         9         1         1        79       125     -0.05262500
        14         9         1         1        90       125     -0.05785889
        14         9         1         1       112       125      0.06416236
        14         9         1         1       123       125     -0.05644310
        14         9         1         1       125        79     -0.05263798
        14         9         1         1       125        90     -0.05786851
        14         9         1         1       125       112      0.06418359
        14         9         1         1       125       123     -0.05646060
        14        11         1         1        50       125      0.05957806
        14        11         1         1        57       125      0.05763953
        14        11         1         1        60       125      0.05706864
        14        11         1         1        79       106      0.05311001
        14        11         1         1        79       125     -0.08952384
        14        11         1         1        79       131      0.05483394
        14        11         1         1        90       106      0.05426867
        14        11         1         1        90       125     -0.09480535
        14        11         1         1        90       131      0.06021334
        14        11         1         1        91       125     -0.07616913
        14        11         1         1       106        79      0.05304009
        14        11         1         1       106        90      0.05430199
        14        11         1         1       112       125      0.10434695
        14        11         1         1       112       131     -0.06980833
        14        11         1         1       123       125     -0.08924634
        14        11         1         1       123       131      0.06334173
        14        11         1         1       125        50      0.05961270
        14        11         1         1       125        57      0.05768473
        14        11         1         1       125        60      0.05718229
        14        11         1         1       125        79     -0.08968313
        14        11         1         1       125        90     -0.09502359
        14        11         1         1       125        91     -0.07642200
        14        11         1         1       125       112      0.10467604
        14        11         1         1       125       123     -0.08955738
        14        11         1         1       125       127     -0.05194596
        14        11         1         1       127       125     -0.05177666
        14        11         1         1       131        79      0.05493038
        14        11         1         1       131        90      0.06035952
        14        11         1         1       131       112     -0.07002337
        14        11         1         1       131       123      0.06355277
        14        11         2         2        39        72     -0.05531557
        14        11         2         2        39        86      0.06099876
        14        11         2         2        54        72     -0.05887290
        14        11         2         2        54        86      0.06766562
        14        11         2         2        62        72      0.06231884
        14        11         2         2        62        86     -0.07537100
        14        11         2         2        72        39     -0.05545701
        14        11         2         2        72        54     -0.05906762
        14        11         2         2        72        62      0.06258242
        14        11         2         2        72        78      0.05401918
        14        11         2         2        78        72      0.05376505
        14        11         2         2        78        86     -0.06909603
        14        11         2         2        85        86      0.05126655
        14        11         2         2        86        39      0.06114152
        14        11         2         2        86        54      0.06788333
        14        11         2         2        86        62     -0.07567883
        14        11         2         2        86        78     -0.06943126
        14        11         2         2        86        85      0.05155211
        14        11         3         3        38        71      0.05515317
        14        11         3         3        38        85      0.06086240
        14        11         3         3        53        71      0.05857490
        14        11         3         3        53        85      0.06737948
        14        11         3         3        61        71      0.06209873
        14        11         3         3        61        85      0.07518524
        14        11         3         3        71        38      0.05531512
        14        11         3         3        71        53      0.05878498
        14        11         3         3        71        61      0.06237469
        14        11         3         3        71        77      0.05362142
        14        11         3         3        77        71      0.05336145
        14        11         3         3        77        85      0.06865640
        14        11         3         3        84        85     -0.05144477
        14        11         3         3        85        38      0.06102048
        14        11         3         3        85        53      0.06761001
        14        11         3         3        85        61      0.07550541
        14        11         3         3        85        77      0.06899859
        14        11         3         3        85        84     -0.05173580
        14        12         1         1        90        90      0.05336705
        14        12         1         1        90       112     -0.06324791
        14        12         1         1        90       123      0.05064727
        14        12         1         1        91       112     -0.05637524
        14        12         1         1       112        90     -0.06310235
        14        12         1         1       112        91     -0.05648625
        14        12         1         1       112       112      0.07804006
        14        12         1         1       112       123     -0.06575322
        14        12         1         1       123        90      0.05058806
        14        12         1         1       123       112     -0.06579150
        14        12         1         1       123       123      0.05768403
        14        12         2         2        39        39     -0.06528176
        14        12         2         2        39        54     -0.06746899
        14        12         2         2        39        62      0.07115840
        14        12         2         2        39        78      0.06032881
        14        12         2         2        54        39     -0.06741184
        14        12         2         2        54        54     -0.07376349
        14        12         2         2        54        62      0.08150258
        14        12         2         2        54        78      0.07238825
        14        12         2         2        54        85     -0.05119396
        14        12         2         2        62        39      0.07105430
        14        12         2         2        62        54      0.08144115
        14        12         2         2        62        62     -0.09467183
        14        12         2         2        62        78     -0.08806965
        14        12         2         2        62        85      0.06502999
        14        12         2         2        78        39      0.06019031
        14        12         2         2        78        54      0.07227686
        14        12         2         2        78        62     -0.08799784
        14        12         2         2        78        78     -0.08614644
        14        12         2         2        78        85      0.06670185
        14        12         2         2        85        54     -0.05108338
        14        12         2         2        85        62      0.06493705
        14        12         2         2        85        78      0.06665745
        14        12         2         2        85        85     -0.05435964
        14        12         3         3        38        38     -0.06509365
        14        12         3         3        38        53     -0.06709130
        14        12         3         3        38        61     -0.07093658
        14        12         3         3        38        77     -0.05992034
        14        12         3         3        53        38     -0.06704315
        14        12         3         3        53        53     -0.07319397
        14        12         3         3        53        61     -0.08104825
        14        12         3         3        53        77     -0.07172290
        14        12         3         3        53        84      0.05111506
        14        12         3         3        61        38     -0.07084276
        14        12         3         3        61        53     -0.08098928
        14        12         3         3        61        61     -0.09434899
        14        12         3         3        61        77     -0.08742758
        14        12         3         3        61        84      0.06505127
        14        12         3         3        77        38     -0.05979257
        14        12         3         3        77        53     -0.07161808
        14        12         3         3        77        61     -0.08736051
        14        12         3         3        77        77     -0.08518193
        14        12         3         3        77        84      0.06645175
        14        12         3         3        84        53      0.05100860
        14        12         3         3        84        61      0.06496145
        14        12         3         3        84        77      0.06640792
        14        12         3         3        84        84     -0.05457120
        18        18         1         1        50        57     -0.05890595
        18        18         1         1        50        79      0.06560259
        18        18         1         1        50        90      0.06443315
        18        18         1         1        50       112     -0.05619406
        18        18         1         1        57        50     -0.05890595
        18        18         1         1        57        57     -0.07061016
        18        18         1         1        57        79      0.08840297
        18        18         1         1        57        90      0.09037575
        18        18         1         1        57        91      0.05873086
        18        18         1         1        57       112     -0.08260855
        18        18         1         1        57       123      0.06542590
        18        18         1         1        61        79      0.05653202
        18        18         1         1        61        90      0.05886546
        18        18         1         1        61       112     -0.05470838
        18        18         1         1        79        50      0.06560259
        18        18         1         1        79        57      0.08840297
        18        18         1         1        79        61      0.05653202
        18        18         1         1        79        79     -0.10493437
