
 Primary working directories    : /global/cscratch1/sd/bkincaid
 Secondary working directories  : /global/cscratch1/sd/bkincaid
 Wavefunction directory         : /global/homes/b/bkincaid/wfu/
 Main file repository           : /global/cscratch1/sd/bkincaid/

 SHA1      : 19cd028119e0e09f93f0674bd8af7968d9b3eff6
 NAME      : 2015.1.36
 ARCHNAME  : linux/x86_64
 FC        : /opt/cray/pe/craype/2.5.14/bin/ftn
 BLASLIB   : -L/opt/intel/compilers_and_libraries_2018.1.163/linux/mkl/lib/intel64 -Wl,-_start-group -lmkl_intel_ilp64 -lmkl_intel_thread -lmkl_core -Wl,-_end-group -liomp5
 id        : lbl

 Nodes     nprocs
 nid00747    23
 Number of processes for MPI-2 version of Molpro:   nprocs(total)=   24   nprocs(compute)=   23   nprocs(helper)=    1

 Using customized tuning parameters: mindgm=7; mindgv=16; mindgc=1; mindgr=1; noblas=0; minvec=7
 default implementation of scratch files=sf  

 ***,Calculation for Ag atom, singlet and triplet
 memory,512,m
 geometry={
 1
 Pd
 Pd  0.0 0.0 0.0
 }
 
 basis={
 Including file /global/u1/b/bkincaid/molpro/Pd/atoms/ecps/bk24.2/basis/bk24.2
 Including file /global/u1/b/bkincaid/molpro/Pd/atoms/ecps/bk24.2/basis/aug-cc-pwCVTZ.basis
 }
 
 Including file /global/u1/b/bkincaid/molpro/Pd/atoms/ecps/bk24.2/basis/states.proc
 
 do i=1,13
     if (i.eq.1) then
         Idten
     else if (i.eq.2) then
         EAs2d9
     else if (i.eq.3) then
         Is1d9
     else if (i.eq.4) then
         Is2d8
     else if (i.eq.5) then
         IId9
     else if (i.eq.6) then
         IIs1d8
     else if (i.eq.7) then
         IIId8
     else if (i.eq.8) then
         IVd7
     else if (i.eq.9) then
         Vd6
     else if (i.eq.10) then
         VId5
     else if (i.eq.11) then
         XIKr
     else if (i.eq.12) then
         XIVp3
     else if (i.eq.13) then
         XVIIs2
     endif
     scf(i)=energy
     _CC_NORM_MAX=2.0
    {rccsd(t),maxit=100;core}
     ccsd(i)=energy
 enddo
 
 table,scf,ccsd
 type,csv
 save

 Variables initialized (889), CPU time= 0.01 sec
 Commands  initialized (702), CPU time= 0.01 sec, 572 directives.
 Default parameters read. Elapsed time= 0.20 sec

 Checking input...
 Passed
1


                                         ***  PROGRAM SYSTEM MOLPRO  ***
                                       Copyright, TTI GmbH Stuttgart, 2015
                                    Version 2015.1 linked Dec 29 2018 15:55:43


 **********************************************************************************************************************************
 LABEL *   Calculation for Ag atom, singlet and triplet                                  
  64 bit mpp version                                                                     DATE: 13-Apr-21          TIME: 10:23:29  
 **********************************************************************************************************************************

 SHA1:             19cd028119e0e09f93f0674bd8af7968d9b3eff6
 **********************************************************************************************************************************

Geometry recognized as XYZ


 Variable memory set to  512000000 words,  buffer space   230000 words

 SETTING BASIS          =    USERDEF

 DO I                   =         1.00000000   

 Running procedure=IDTEN


 Recomputing integrals since basis changed


 Using spherical harmonics



 PROGRAM * SEWARD (Integral evaluation for generally contracted gaussian basis sets)     Author: Roland Lindh, 1990

 Geometry written to block  1 of record 700

 Orientation using atomic masses  
 Molecule type: Atom
 Symmetry elements: X,Y,Z
 Rotational constants:       0.0000000      0.0000000      0.0000000 GHz  (calculated with average atomic masses)

 Point group  D2h 



 ATOMIC COORDINATES

 NR  ATOM    CHARGE       X              Y              Z

   1  PD     18.00    0.000000000    0.000000000    0.000000000

 NUCLEAR CHARGE:                   18
 NUMBER OF PRIMITIVE AOS:         289
 NUMBER OF SYMMETRY AOS:          242
 NUMBER OF CONTRACTIONS:          242   (  73Ag  +  32B3u +  32B2u +  23B1g +  32B1u +  23B2g +  23B3g +   4Au  )
 NUMBER OF CORE ORBITALS:           4   (   1Ag  +   1B3u +   1B2u +   0B1g +   1B1u +   0B2g +   0B3g +   0Au  )
 NUMBER OF VALENCE ORBITALS:        6   (   3Ag  +   0B3u +   0B2u +   1B1g +   0B1u +   1B2g +   1B3g +   0Au  )


 NUCLEAR REPULSION ENERGY    0.00000000

 EXTRA SYMMETRY OF AOS IN SYMMETRY 1:   1 1 1 1 1 1 1 1 1 1   1 1 1 1 1 1 1 1 1 1   1 1 1 1 1 1 1 1 1 1   2 3 2 3 2 3 2 3 2 3
                                        2 3 2 3 2 3 2 3 2 3   2 3 2 3 2 3 2 3 2 3   2 3 2 3 4 5 6 4 5 6   4 5 6
 EXTRA SYMMETRY OF AOS IN SYMMETRY 2:   1 1 1 1 1 1 1 1 1 1   1 1 1 1 1 1 1 1 1 1   1 1 1 1 2 3 2 3 2 3   2 3
 EXTRA SYMMETRY OF AOS IN SYMMETRY 3:   1 1 1 1 1 1 1 1 1 1   1 1 1 1 1 1 1 1 1 1   1 1 1 1 2 3 2 3 2 3   2 3
 EXTRA SYMMETRY OF AOS IN SYMMETRY 4:   1 1 1 1 1 1 1 1 1 1   1 1 1 1 1 1 1 2 3 2   3 2 3
 EXTRA SYMMETRY OF AOS IN SYMMETRY 5:   1 1 1 1 1 1 1 1 1 1   1 1 1 1 1 1 1 1 1 1   1 1 1 1 2 3 2 3 2 3   2 3
 EXTRA SYMMETRY OF AOS IN SYMMETRY 6:   1 1 1 1 1 1 1 1 1 1   1 1 1 1 1 1 1 2 3 2   3 2 3
 EXTRA SYMMETRY OF AOS IN SYMMETRY 7:   1 1 1 1 1 1 1 1 1 1   1 1 1 1 1 1 1 2 3 2   3 2 3

 Eigenvalues of metric

         1 0.198E-05 0.951E-05 0.951E-05 0.291E-04 0.121E-03 0.307E-03 0.307E-03 0.363E-03
         2 0.982E-06 0.471E-03 0.163E-02 0.406E-02 0.938E-02 0.172E-01 0.270E-01 0.454E-01
         3 0.982E-06 0.471E-03 0.163E-02 0.406E-02 0.938E-02 0.172E-01 0.270E-01 0.454E-01
         4 0.951E-05 0.307E-03 0.302E-02 0.107E-01 0.287E-01 0.531E-01 0.105E+00 0.148E+00
         5 0.982E-06 0.471E-03 0.163E-02 0.406E-02 0.938E-02 0.172E-01 0.270E-01 0.454E-01
         6 0.951E-05 0.307E-03 0.302E-02 0.107E-01 0.287E-01 0.531E-01 0.105E+00 0.148E+00
         7 0.951E-05 0.307E-03 0.302E-02 0.107E-01 0.287E-01 0.531E-01 0.105E+00 0.148E+00
         8 0.941E-01 0.387E+00 0.119E+01 0.233E+01


 Contracted 2-electron integrals neglected if value below      1.0D-13
 AO integral compression algorithm  1   Integral accuracy      1.0D-13

     413.925 MB (compressed) written to integral file ( 45.9%)

     Node minimum: 4.719 MB, node maximum: 55.050 MB


 NUMBER OF SORTED TWO-ELECTRON INTEGRALS:    2444547.     BUFFER LENGTH:  32768
 NUMBER OF SEGMENTS:   1  SEGMENT LENGTH:    2444547      RECORD LENGTH: 524288

 Memory used in sort:       3.00 MW

 SORT1 READ   112766326. AND WROTE     1563133. INTEGRALS IN      5 RECORDS. CPU TIME:     3.26 SEC, REAL TIME:     3.87 SEC
 SORT2 READ    36622834. AND WROTE    56960207. INTEGRALS IN    851 RECORDS. CPU TIME:     0.40 SEC, REAL TIME:     0.49 SEC

 Node minimum:     2444547.  Node maximum:     2491187. integrals

 OPERATOR DM      FOR CENTER  0  COORDINATES:    0.000000    0.000000    0.000000


 **********************************************************************************************************************************
 DATASETS  * FILE   NREC   LENGTH (MB)   RECORD NAMES
              1      19       20.37       500      610      700      900      950      970     1000      129      960     1100   
                                          VAR    BASINP    GEOM    SYMINP    ZMAT    AOBASIS   BASIS     P2S    ABASIS      S 
                                         1400     1410     1420     1200     1210     1080     1600     1650     1700   
                                           T        V       ECP      H0       H01     AOSYM     SMH    MOLCAS    OPER   

 PROGRAMS   *        TOTAL       INT
 CPU TIMES  *        27.87     27.38
 REAL TIME  *        30.10 SEC
 DISK USED  *       865.31 MB      
 GA USED    *         0.00 MB       (max)       0.00 MB       (current)
 **********************************************************************************************************************************


 PROGRAM * RHF-SCF (CLOSED SHELL)       Authors: W. Meyer, H.-J. Werner


 NUMBER OF ELECTRONS:       9+    9-    SPACE SYMMETRY=1    SPIN SYMMETRY: Singlet 
 CONVERGENCE THRESHOLDS:    1.00E-05 (Density)    1.00E-07 (Energy)
 MAX. NUMBER OF ITERATIONS:       60
 INTERPOLATION TYPE:            DIIS
 INTERPOLATION STEPS:              2 (START)      1 (STEP)
 LEVEL SHIFTS:                  0.00 (CLOSED)  0.00 (OPEN) 

 Number of closed-shell orbitals:    9 (   3   1   1   1   1   1   1   0 )


 
 Extra symmetries of mos in symmetry 1:   1   3   2
 Orbital guess generated from atomic densities. Full valence occupancy:    4   1   1   1   1   1   1   0


 Molecular orbital dump at record        4202.2

 ITERATION    DDIFF          GRAD             ENERGY        2-EL.EN.            DIPOLE MOMENTS         DIIS   ORB.
    1      0.000D+00      0.000D+00      -126.82984373    208.307441    0.00000    0.00000    0.00000    0    start
    2      0.000D+00      0.150D-01      -126.83291442    197.596724    0.00000    0.00000    0.00000    1    diag
    3      0.536D-02      0.164D-01      -126.88049022    202.666254    0.00000    0.00000    0.00000    2    diag
    4      0.219D-02      0.616D-03      -126.88054087    202.774474    0.00000    0.00000    0.00000    3    diag
    5      0.123D-03      0.868D-04      -126.88054216    202.797500    0.00000    0.00000    0.00000    4    diag
    6      0.386D-04      0.367D-05      -126.88054217    202.797198    0.00000    0.00000    0.00000    5    diag
    7      0.438D-05      0.596D-06      -126.88054217    202.797438    0.00000    0.00000    0.00000    0    orth

 Final occupancy:   3   1   1   1   1   1   1   0

 !RHF STATE 1.1 Energy               -126.880542170530
 Nuclear energy                         0.00000000
 One-electron energy                 -228.27926100
 Two-electron energy                  101.39871883
 Virial quotient                       -2.60529035
 !RHF STATE 1.1 Dipole moment           0.00000000     0.00000000     0.00000000
 Dipole moment /Debye                   0.00000000     0.00000000     0.00000000

 ELECTRON ORBITALS
 =================


   Orb  Occ    Energy  Couls-En    Coefficients

                                   1 1s      1 1s      1 1s      1 1s      1 1s      1 1s      1 1s      1 1s      1 1s      1 1s   
                                   1 1s      1 1s      1 1s      1 1s      1 1s      1 1s      1 1s      1 1s      1 1s      1 1s   
                                   1 1s      1 1s      1 1s      1 1s      1 1s      1 1s      1 1s      1 1s      1 1s      1 1s   
                                   1 3d0     1 3d2+    1 3d0     1 3d2+    1 3d0     1 3d2+    1 3d0     1 3d2+    1 3d0     1 3d2+ 
                                   1 3d0     1 3d2+    1 3d0     1 3d2+    1 3d0     1 3d2+    1 3d0     1 3d2+    1 3d0     1 3d2+ 
                                   1 3d0     1 3d2+    1 3d0     1 3d2+    1 3d0     1 3d2+    1 3d0     1 3d2+    1 3d0     1 3d2+ 
                                   1 3d0     1 3d2+    1 3d0     1 3d2+    1 5g0     1 5g4+    1 5g2+    1 5g0     1 5g4+    1 5g2+ 
                                   1 5g0     1 5g4+    1 5g2+ 

   1.1   2    -3.8470  -20.1411 -0.000000  0.000000 -0.000000  0.000000 -0.000000  0.000000 -0.000001  0.000003 -0.000010  0.000028
                                -0.000074  0.000193 -0.000494  0.001260 -0.003225  0.008424 -0.021390  0.022009  0.204206 -0.688934
                                -0.186030  0.915135  0.538994  0.036189 -0.016451  0.007958  0.099094 -0.094060 -0.003313  0.000818
                                -0.000000 -0.000000  0.000000  0.000000 -0.000000 -0.000000  0.000000  0.000000 -0.000000 -0.000000
                                 0.000000 -0.000000 -0.000000 -0.000000  0.000000 -0.000000 -0.000000  0.000000 -0.000000  0.000000
                                -0.000000  0.000000  0.000000  0.000000 -0.000000 -0.000000  0.000000 -0.000000  0.000000 -0.000000
                                 0.000000 -0.000000 -0.000000  0.000000 -0.000000  0.000000  0.000000 -0.000000  0.000000 -0.000000
                                -0.000000  0.000000  0.000000

   2.1   2    -0.3279  -11.1370  0.000000  0.000000 -0.000000  0.000000  0.000000 -0.000000  0.000000 -0.000000  0.000000 -0.000000
                                 0.000000 -0.000000  0.000000 -0.000000  0.000000 -0.000000  0.000000 -0.000000 -0.000000  0.000000
                                 0.000000 -0.000000 -0.000000  0.000000  0.000000  0.000000 -0.000000  0.000000 -0.000000 -0.000000
                                 0.000000 -0.000000 -0.000001  0.000002  0.000005 -0.000009 -0.000020  0.000038  0.000135 -0.000254
                                 0.000515 -0.000972  0.003443 -0.006502 -0.014311  0.027027  0.014960 -0.028252  0.092423 -0.174543
                                 0.161423 -0.304853  0.153827 -0.290508  0.101114 -0.190958  0.035835 -0.067676  0.024410 -0.046099
                                 0.014742 -0.027841  0.001231 -0.002324 -0.000000  0.000000  0.000000  0.000000 -0.000000 -0.000000
                                -0.000000 -0.000000  0.000000

   3.1   2    -0.3279  -11.1370 -0.000000  0.000000 -0.000000  0.000000 -0.000000  0.000000 -0.000000  0.000000 -0.000000  0.000000
                                -0.000000  0.000000 -0.000000  0.000000 -0.000000  0.000000 -0.000000  0.000000  0.000000 -0.000000
                                -0.000000  0.000000  0.000000 -0.000000 -0.000000 -0.000000  0.000000 -0.000000  0.000000  0.000000
                                 0.000000  0.000000 -0.000002 -0.000001  0.000009  0.000005 -0.000038 -0.000020  0.000254  0.000135
                                 0.000972  0.000515  0.006502  0.003443 -0.027027 -0.014311  0.028252  0.014960  0.174543  0.092423
                                 0.304853  0.161423  0.290508  0.153827  0.190958  0.101114  0.067676  0.035835  0.046099  0.024410
                                 0.027841  0.014742  0.002324  0.001231  0.000000 -0.000000 -0.000000 -0.000000  0.000000 -0.000000
                                 0.000000  0.000000  0.000000

   4.1   0     0.0041   -2.1349  0.000000 -0.000000  0.000000 -0.000000  0.000000 -0.000000  0.000000 -0.000000  0.000000 -0.000001
                                 0.000002 -0.000004  0.000010 -0.000028  0.000078 -0.000235  0.000676  0.000317 -0.019891  0.080465
                                 0.094929 -0.212552 -0.129978  0.078958 -0.109848  0.436923 -0.085853  0.159715 -0.596971  1.272171
                                -0.000000  0.000000  0.000000 -0.000000 -0.000000  0.000000 -0.000000 -0.000000  0.000000  0.000000
                                 0.000000 -0.000000  0.000000  0.000000 -0.000000  0.000000  0.000000  0.000000  0.000000  0.000000
                                 0.000000  0.000000  0.000000 -0.000000  0.000000  0.000000  0.000000 -0.000000 -0.000000 -0.000000
                                -0.000000 -0.000000  0.000000  0.000000  0.000000 -0.000000 -0.000000 -0.000000  0.000000  0.000000
                                 0.000000 -0.000000 -0.000000

   5.1   0     0.0235   -2.5632  0.000000 -0.000000  0.000000 -0.000000  0.000000 -0.000000  0.000000 -0.000001  0.000003 -0.000007
                                 0.000019 -0.000049  0.000125 -0.000315  0.000790 -0.001988  0.004956 -0.009176 -0.003575 -0.006124
                                -0.231131  0.262341  0.080215 -0.203277  0.679511 -1.221709  0.218302 -0.424380  2.965262 -1.951494
                                -0.000000  0.000000  0.000000 -0.000000 -0.000000  0.000000  0.000000 -0.000000 -0.000000  0.000000
                                 0.000000  0.000000 -0.000000  0.000000  0.000000 -0.000000 -0.000000  0.000000 -0.000002  0.000000
                                -0.000001  0.000000  0.000001  0.000000 -0.000001  0.000000  0.000001  0.000000  0.000001 -0.000000
                                 0.000002 -0.000000 -0.000004  0.000000 -0.000000  0.000000 -0.000000  0.000000  0.000000 -0.000000
                                -0.000000 -0.000000  0.000000

                                   1 2px     1 2px     1 2px     1 2px     1 2px     1 2px     1 2px     1 2px     1 2px     1 2px  
                                   1 2px     1 2px     1 2px     1 2px     1 2px     1 2px     1 2px     1 2px     1 2px     1 2px  
                                   1 2px     1 2px     1 2px     1 2px     1 4f1+    1 4f3+    1 4f1+    1 4f3+    1 4f1+    1 4f3+ 
                                   1 4f1+    1 4f3+ 

   1.2   2    -2.4181  -17.0181 -0.000000  0.000000 -0.000000  0.000000 -0.000001  0.000002 -0.000009  0.000028 -0.000084  0.000236
                                -0.000488 -0.000603  0.033773 -0.128534  0.049843  0.359227  0.290915  0.042134 -0.004648  0.002742
                                -0.165185  0.523550 -0.001267  0.000405  0.000000 -0.000000  0.000000  0.000000 -0.000000  0.000000
                                 0.000000 -0.000000

   2.2   0     0.0111   -1.1511 -0.000000  0.000000 -0.000000  0.000000 -0.000000  0.000001 -0.000003  0.000010 -0.000030  0.000080
                                -0.000204  0.000525 -0.001650  0.005670 -0.107360 -0.018728 -0.017451  0.030816 -0.068706  0.208989
                                 0.113976  0.008215 -0.564942  1.336743 -0.000000 -0.000000 -0.000000  0.000000 -0.000000 -0.000000
                                 0.000000  0.000000

   3.2   0     0.0407   -1.8491  0.000000 -0.000000  0.000000 -0.000000  0.000001 -0.000003  0.000010 -0.000031  0.000090 -0.000242
                                 0.000612 -0.001476  0.002828 -0.008658  0.303502  0.030787  0.032097 -0.073863  0.240513 -0.620052
                                -0.316331 -0.055998  2.088908 -1.174204 -0.000000 -0.000000 -0.000000 -0.000000 -0.000000 -0.000000
                                 0.000000  0.000000

                                   1 2py     1 2py     1 2py     1 2py     1 2py     1 2py     1 2py     1 2py     1 2py     1 2py  
                                   1 2py     1 2py     1 2py     1 2py     1 2py     1 2py     1 2py     1 2py     1 2py     1 2py  
                                   1 2py     1 2py     1 2py     1 2py     1 4f1-    1 4f3-    1 4f1-    1 4f3-    1 4f1-    1 4f3- 
                                   1 4f1-    1 4f3- 

   1.3   2    -2.4181  -17.0181 -0.000000  0.000000 -0.000000  0.000000 -0.000001  0.000002 -0.000009  0.000028 -0.000084  0.000236
                                -0.000488 -0.000603  0.033773 -0.128534  0.049843  0.359227  0.290915  0.042134 -0.004648  0.002742
                                -0.165185  0.523550 -0.001267  0.000405  0.000000 -0.000000  0.000000  0.000000  0.000000 -0.000000
                                -0.000000  0.000000

   2.3   0     0.0111   -1.1511 -0.000000  0.000000 -0.000000  0.000000 -0.000000  0.000001 -0.000003  0.000010 -0.000030  0.000080
                                -0.000204  0.000525 -0.001650  0.005670 -0.107360 -0.018728 -0.017451  0.030816 -0.068706  0.208989
                                 0.113976  0.008215 -0.564942  1.336743 -0.000000 -0.000000 -0.000000  0.000000 -0.000000 -0.000000
                                 0.000000  0.000000

   3.3   0     0.0407   -1.8491  0.000000 -0.000000  0.000000 -0.000000  0.000001 -0.000003  0.000010 -0.000031  0.000090 -0.000242
                                 0.000612 -0.001476  0.002828 -0.008658  0.303502  0.030787  0.032097 -0.073863  0.240513 -0.620052
                                -0.316332 -0.055998  2.088908 -1.174204 -0.000000 -0.000000 -0.000000  0.000000 -0.000000 -0.000000
                                 0.000000  0.000000

                                   1 3d2-    1 3d2-    1 3d2-    1 3d2-    1 3d2-    1 3d2-    1 3d2-    1 3d2-    1 3d2-    1 3d2- 
                                   1 3d2-    1 3d2-    1 3d2-    1 3d2-    1 3d2-    1 3d2-    1 3d2-    1 5g2-    1 5g4-    1 5g2- 
                                   1 5g4-    1 5g2-    1 5g4- 

   1.4   2    -0.3279  -11.1370  0.000000 -0.000002  0.000011 -0.000043  0.000288  0.001100  0.007358 -0.030582  0.031968  0.197503
                                 0.344953  0.328721  0.216076  0.076579  0.052162  0.031504  0.002630  0.000000 -0.000000  0.000000
                                -0.000000  0.000000  0.000000

   2.4   0     0.1009   -2.2241  0.000001 -0.000006  0.000032 -0.000127  0.000413 -0.001393  0.003081 -0.009169  0.058057  0.537604
                                 0.449265 -0.190490  0.186239 -0.476882 -0.401806 -0.607562  1.256229  0.000000  0.000000 -0.000000
                                -0.000000 -0.000000 -0.000000

   3.4   0     0.3433   -3.3234 -0.000003  0.000020 -0.000106  0.000429 -0.001473  0.003804 -0.013936  0.046520 -0.204801 -1.848359
                                -1.670289  0.454638 -0.826085  1.896424  1.264308  1.961512 -0.890586  0.000000  0.000000 -0.000000
                                -0.000000 -0.000000 -0.000000

                                   1 2pz     1 2pz     1 2pz     1 2pz     1 2pz     1 2pz     1 2pz     1 2pz     1 2pz     1 2pz  
                                   1 2pz     1 2pz     1 2pz     1 2pz     1 2pz     1 2pz     1 2pz     1 2pz     1 2pz     1 2pz  
                                   1 2pz     1 2pz     1 2pz     1 2pz     1 4f0     1 4f2+    1 4f0     1 4f2+    1 4f0     1 4f2+ 
                                   1 4f0     1 4f2+ 

   1.5   2    -2.4181  -17.0181 -0.000000  0.000000 -0.000000  0.000000 -0.000001  0.000002 -0.000009  0.000028 -0.000084  0.000236
                                -0.000488 -0.000603  0.033773 -0.128534  0.049843  0.359227  0.290915  0.042134 -0.004648  0.002742
                                -0.165185  0.523550 -0.001267  0.000405  0.000000 -0.000000  0.000000 -0.000000  0.000000  0.000000
                                 0.000000 -0.000000

   2.5   0     0.0111   -1.1511 -0.000000  0.000000 -0.000000  0.000000 -0.000000  0.000001 -0.000003  0.000010 -0.000030  0.000080
                                -0.000204  0.000525 -0.001650  0.005670 -0.107360 -0.018728 -0.017451  0.030816 -0.068706  0.208989
                                 0.113976  0.008215 -0.564942  1.336743 -0.000000 -0.000000 -0.000000  0.000000 -0.000000 -0.000000
                                 0.000000  0.000000

   3.5   0     0.0407   -1.8491  0.000000 -0.000000  0.000000 -0.000000  0.000001 -0.000003  0.000010 -0.000031  0.000090 -0.000242
                                 0.000612 -0.001476  0.002828 -0.008658  0.303502  0.030787  0.032097 -0.073863  0.240513 -0.620052
                                -0.316331 -0.055998  2.088908 -1.174204 -0.000000 -0.000000 -0.000000  0.000000 -0.000000 -0.000000
                                 0.000000  0.000000

                                   1 3d1+    1 3d1+    1 3d1+    1 3d1+    1 3d1+    1 3d1+    1 3d1+    1 3d1+    1 3d1+    1 3d1+ 
                                   1 3d1+    1 3d1+    1 3d1+    1 3d1+    1 3d1+    1 3d1+    1 3d1+    1 5g1+    1 5g3+    1 5g1+ 
                                   1 5g3+    1 5g1+    1 5g3+ 

   1.6   2    -0.3279  -11.1370  0.000000 -0.000002  0.000011 -0.000043  0.000288  0.001100  0.007358 -0.030582  0.031968  0.197503
                                 0.344953  0.328721  0.216076  0.076579  0.052162  0.031504  0.002630  0.000000 -0.000000  0.000000
                                -0.000000  0.000000  0.000000

   2.6   0     0.1009   -2.2241  0.000001 -0.000006  0.000032 -0.000127  0.000413 -0.001393  0.003081 -0.009169  0.058057  0.537604
                                 0.449265 -0.190490  0.186239 -0.476882 -0.401806 -0.607562  1.256229  0.000000  0.000000 -0.000000
                                -0.000000 -0.000000 -0.000000

   3.6   0     0.3433   -3.3234 -0.000003  0.000020 -0.000106  0.000429 -0.001473  0.003804 -0.013936  0.046520 -0.204801 -1.848359
                                -1.670289  0.454638 -0.826085  1.896424  1.264308  1.961512 -0.890586  0.000000  0.000000 -0.000000
                                -0.000000 -0.000000  0.000000

                                   1 3d1-    1 3d1-    1 3d1-    1 3d1-    1 3d1-    1 3d1-    1 3d1-    1 3d1-    1 3d1-    1 3d1- 
                                   1 3d1-    1 3d1-    1 3d1-    1 3d1-    1 3d1-    1 3d1-    1 3d1-    1 5g1-    1 5g3-    1 5g1- 
                                   1 5g3-    1 5g1-    1 5g3- 

   1.7   2    -0.3279  -11.1370  0.000000 -0.000002  0.000011 -0.000043  0.000288  0.001100  0.007358 -0.030582  0.031968  0.197503
                                 0.344953  0.328721  0.216076  0.076579  0.052162  0.031504  0.002630  0.000000 -0.000000  0.000000
                                -0.000000  0.000000  0.000000

   2.7   0     0.1009   -2.2241  0.000001 -0.000006  0.000032 -0.000127  0.000413 -0.001393  0.003081 -0.009169  0.058057  0.537604
                                 0.449265 -0.190490  0.186239 -0.476882 -0.401806 -0.607562  1.256229  0.000000  0.000000 -0.000000
                                -0.000000 -0.000000 -0.000000

   3.7   0     0.3433   -3.3234 -0.000003  0.000020 -0.000106  0.000429 -0.001473  0.003804 -0.013936  0.046520 -0.204801 -1.848359
                                -1.670289  0.454638 -0.826085  1.896424  1.264308  1.961512 -0.890586  0.000000  0.000000 -0.000000
                                -0.000000  0.000000  0.000000

                                   1 4f2-    1 4f2-    1 4f2-    1 4f2- 

   1.8   0     0.8900   -4.2686 -0.007146  0.132610 -0.232540  1.117695

   2.8   0     2.0974   -5.3326  0.215117 -0.063664  1.282205 -0.768074

 HOMO      3.1    -0.327916 =      -8.9231eV
 LUMO      4.1     0.004063 =       0.1106eV
 LUMO-HOMO         0.331979 =       9.0336eV


 **********************************************************************************************************************************
 DATASETS  * FILE   NREC   LENGTH (MB)   RECORD NAMES
              1      19       20.40       500      610      700      900      950      970     1000      129      960     1100   
                                          VAR    BASINP    GEOM    SYMINP    ZMAT    AOBASIS   BASIS     P2S    ABASIS      S 
                                         1400     1410     1420     1200     1210     1080     1600     1650     1700   
                                           T        V       ECP      H0       H01     AOSYM     SMH    MOLCAS    OPER   

              2       5        5.58       200      700     1000      520     4202   
                                        OPTIONS   GEOM     BASIS   MCVARS     RHF  

 PROGRAMS   *        TOTAL       RHF       INT
 CPU TIMES  *        29.21      1.34     27.38
 REAL TIME  *        31.88 SEC
 DISK USED  *         1.48 GB      
 SF USED    *         0.04 MB      
 GA USED    *         0.00 MB       (max)       0.00 MB       (current)
 **********************************************************************************************************************************
 SETTING SCF(1)         =      -126.88054217  AU                              
 SETTING _CC_NORM_MAX   =         2.00000000                                  


 PROGRAM * CCSD (Restricted open-shell coupled cluster)     Authors: C. Hampel, H.-J. Werner, 1991, M. Deegan, P.J. Knowles, 1992


 Convergence thresholds:  THRVAR = 1.00D-08  THRDEN = 1.00D-06

 CCSD(T)     terms to be evaluated (factor= 1.000)


 Number of closed-shell orbitals:   9 (   3   1   1   1   1   1   1   0 )
 Number of external orbitals:     233 (  70  31  31  22  31  22  22   4 )

 Memory could be reduced to 29.42 Mwords without degradation in triples

 Number of N-1 electron functions:              18
 Number of N-2 electron functions:             153
 Number of singly external CSFs:               738
 Number of doubly external CSFs:            813477
 Total number of CSFs:                      814215

 Molecular orbitals read from record     4202.2  Type=RHF/CANONICAL (state 1.1)

 Integral transformation finished. Total CPU:   0.54 sec, npass=  1  Memory used:   4.84 MW

 Starting RMP2 calculation

 Wavefunction is spin-projected

 ITER.      SQ.NORM     CORR.ENERGY   TOTAL ENERGY   ENERGY CHANGE        DEN1      VAR(S)    VAR(P)  DIIS     TIME
   1      1.14284284    -0.77109288  -127.65163505    -0.77109288    -0.00136100  0.20D-11  0.52D-03  1  1     1.02
   2      1.14404931    -0.77252797  -127.65307014    -0.00143509    -0.00000360  0.74D-13  0.25D-05  2  2     1.51
   3      1.14411844    -0.77256875  -127.65311092    -0.00004078    -0.00000001  0.19D-14  0.11D-07  3  3     1.76
   4      1.14412031    -0.77256908  -127.65311125    -0.00000033    -0.00000000  0.41D-16  0.57D-10  4  4     2.40

 Norm of t1 vector:      0.00000902      S-energy:    -0.00000000      T1 diagnostic:  0.00000150
 Norm of t2 vector:      0.37963181      P-energy:    -0.77256908
                                         Alpha-Beta:  -0.53329437
                                         Alpha-Alpha: -0.11963736
                                         Beta-Beta:   -0.11963736

 Spin contamination <S**2-Sz**2-Sz>     0.00000000
  Reference energy                   -126.880542170529
  RHF-RMP2 correlation energy          -0.772569080427
 !RHF-RMP2 energy                    -127.653111250957
 (NB above energy spin projected)

 Starting RCCSD calculation

 ITER.      SQ.NORM     CORR.ENERGY   TOTAL ENERGY   ENERGY CHANGE        DEN1      VAR(S)    VAR(P)  DIIS     TIME
   1      1.11325193    -0.71245676  -127.59299893    -0.71245676    -0.01703302  0.24D-02  0.33D-02  1  1     3.70
   2      1.12092068    -0.72701850  -127.60756067    -0.01456174    -0.00086575  0.40D-04  0.31D-03  2  2     4.92
   3      1.12181787    -0.72704906  -127.60759123    -0.00003056    -0.00008737  0.62D-04  0.17D-04  3  3     6.03
   4      1.12247385    -0.72732487  -127.60786704    -0.00027580    -0.00000896  0.36D-05  0.31D-05  4  4     6.96
   5      1.12285189    -0.72742639  -127.60796856    -0.00010152    -0.00000085  0.73D-06  0.23D-06  5  5     8.37
   6      1.12293889    -0.72743532  -127.60797749    -0.00000893    -0.00000010  0.42D-07  0.38D-07  6  6     9.27
   7      1.12296377    -0.72743592  -127.60797809    -0.00000060    -0.00000002  0.25D-07  0.24D-08  6  1    10.18
   8      1.12296955    -0.72743715  -127.60797932    -0.00000123    -0.00000000  0.22D-08  0.22D-09  6  2    11.33
   9      1.12297072    -0.72743642  -127.60797859     0.00000073    -0.00000000  0.27D-09  0.73D-10  6  3    12.64

 Norm of t1 vector:      0.05236067      S-energy:    -0.00000018      T1 diagnostic:  0.00872678
                                                                       D1 diagnostic:  0.01624217
 Norm of t2 vector:      0.34674066      P-energy:    -0.72743624
                                         Alpha-Beta:  -0.52194327
                                         Alpha-Alpha: -0.10274649
                                         Beta-Beta:   -0.10274649

 Spin contamination <S**2-Sz**2-Sz>     0.00000000

 Memory could be reduced to 29.91 Mwords without degradation in triples
 

  Correlated core orbitals:             1.1       1.2       1.3       1.5
  Orbital energies:                    -3.8470   -2.4181   -2.4181   -2.4181
 
  RCCSD core-core energy               -0.115453013555
  RCCSD core-valence energy            -0.261464707796
  RCCSD valence correlation energy     -0.350518701009
 

 RESULTS
 =======

  Reference energy                   -126.880542170529
  RCCSD singles energy                 -0.000000181763
  RCCSD pair energy                    -0.727436240596
  RCCSD correlation energy             -0.727436422359
  Triples (T) contribution             -0.029585845045
  Total correlation energy             -0.757022267404
 
  RHF-RCCSD energy                   -127.607978592888
  RHF-RCCSD[T] energy                -127.638597325359
  RHF-RCCSD-T energy                 -127.637411864811
 !RHF-RCCSD(T) energy                -127.637564437933

 Program statistics:

 Available memory in ccsd:               511999162
 Min. memory needed in ccsd:               2450153
 Max. memory used in ccsd:                 3434108
 Max. memory used in cckext:               2685931 ( 9 integral passes)
 Max. memory used in cckint:               4839137 ( 1 integral passes)



 **********************************************************************************************************************************
 DATASETS  * FILE   NREC   LENGTH (MB)   RECORD NAMES
              1      19       20.40       500      610      700      900      950      970     1000      129      960     1100   
                                          VAR    BASINP    GEOM    SYMINP    ZMAT    AOBASIS   BASIS     P2S    ABASIS      S 
                                         1400     1410     1420     1200     1210     1080     1600     1650     1700   
                                           T        V       ECP      H0       H01     AOSYM     SMH    MOLCAS    OPER   

              2       5        5.58       200      700     1000      520     4202   
                                        OPTIONS   GEOM     BASIS   MCVARS     RHF  

 PROGRAMS   *        TOTAL  RCCSD(T)       RHF       INT
 CPU TIMES  *        48.56     19.29      1.34     27.38
 REAL TIME  *        74.54 SEC
 DISK USED  *         3.80 GB      
 SF USED    *       440.31 MB      
 GA USED    *         0.00 MB       (max)       0.00 MB       (current)
 **********************************************************************************************************************************
 SETTING CCSD(1)        =      -127.63756444  AU                              

 DO I                   =         2.00000000   

 Running procedure=EAS2D9


 PROGRAM * RHF-SCF (OPEN SHELL)       Authors: W. Meyer, H.-J. Werner


 NUMBER OF ELECTRONS:      10+    9-    SPACE SYMMETRY=1    SPIN SYMMETRY: Doublet 
 CONVERGENCE THRESHOLDS:    1.00E-05 (Density)    1.00E-07 (Energy)
 MAX. NUMBER OF ITERATIONS:       60
 INTERPOLATION TYPE:            DIIS
 INTERPOLATION STEPS:              2 (START)      1 (STEP)
 LEVEL SHIFTS:                 -0.60 (CLOSED) -0.30 (OPEN) 

 Number of closed-shell orbitals:    9 (   3   1   1   1   1   1   1   0 )
 Number of open-shell orbitals:      1 (   1   0   0   0   0   0   0   0 )


 
 Extra symmetries of mos in symmetry 1:   1   1   3   2
 Orbital guess generated from atomic densities. Full valence occupancy:    4   1   1   1   1   1   1   0


 Molecular orbital dump at record        4202.2

 ITERATION    DDIFF          GRAD             ENERGY        2-EL.EN.            DIPOLE MOMENTS         DIIS   ORB.
    1      0.000D+00      0.000D+00      -126.86082884    208.178810    0.00000    0.00000    0.00000    0    start
    2      0.000D+00      0.460D-02      -126.86905219    207.040854    0.00000    0.00000    0.00000    1    diag,B
    3      0.219D-02      0.152D-02      -126.87189268    206.863757    0.00000    0.00000    0.00000    2    diag,B
    4      0.181D-02      0.975D-03      -126.87378660    206.501013    0.00000    0.00000    0.00000    3    diag,B
    5      0.137D-02      0.747D-03      -126.87617375    206.043547    0.00000    0.00000    0.00000    4    diag,B
    6      0.230D-02      0.481D-03      -126.87751489    205.655249    0.00000    0.00000    0.00000    5    diag,B
    7      0.261D-02      0.301D-03      -126.87819035    205.410356    0.00000    0.00000    0.00000    6    fixocc
    8      0.368D-02      0.172D-03      -126.87841640    205.283504    0.00000    0.00000    0.00000    7    diag,B
    9      0.249D-02      0.112D-03      -126.87851685    205.221225    0.00000    0.00000    0.00000    8    diag,B
   10      0.101D-02      0.847D-04      -126.87859894    205.165026    0.00000    0.00000    0.00000    9    orth
   11      0.116D-02      0.600D-04      -126.87864897    205.132111    0.00000    0.00000    0.00000    9    diag,B
   12      0.175D-02      0.338D-04      -126.87866389    205.095245    0.00000    0.00000    0.00000    9    diag,B
   13      0.120D-02      0.130D-04      -126.87866474    205.098591    0.00000    0.00000    0.00000    9    diag,B
   14      0.301D-03      0.604D-05      -126.87866490    205.093806    0.00000    0.00000    0.00000    9    diag,B
   15      0.663D-04      0.395D-05      -126.87866497    205.093749    0.00000    0.00000    0.00000    9    diag,B
   16      0.215D-04      0.347D-05      -126.87866505    205.094278    0.00000    0.00000    0.00000    9    diag,B
   17      0.598D-05      0.336D-05      -126.87866517    205.094204    0.00000    0.00000    0.00000    0    orth

 Final alpha occupancy:   4   1   1   1   1   1   1   0
 Final beta  occupancy:   3   1   1   1   1   1   1   0

 !RHF STATE 1.1 Energy               -126.878665165214
 Nuclear energy                         0.00000000
 One-electron energy                 -229.42576735
 Two-electron energy                  102.54710219
 Virial quotient                       -2.64104250
 !RHF STATE 1.1 Dipole moment           0.00000000     0.00000000     0.00000000
 Dipole moment /Debye                   0.00000000     0.00000000     0.00000000

 ELECTRON ORBITALS
 =================


   Orb  Occ    Energy  Couls-En    Coefficients

                                   1 1s      1 1s      1 1s      1 1s      1 1s      1 1s      1 1s      1 1s      1 1s      1 1s   
                                   1 1s      1 1s      1 1s      1 1s      1 1s      1 1s      1 1s      1 1s      1 1s      1 1s   
                                   1 1s      1 1s      1 1s      1 1s      1 1s      1 1s      1 1s      1 1s      1 1s      1 1s   
                                   1 3d0     1 3d2+    1 3d0     1 3d2+    1 3d0     1 3d2+    1 3d0     1 3d2+    1 3d0     1 3d2+ 
                                   1 3d0     1 3d2+    1 3d0     1 3d2+    1 3d0     1 3d2+    1 3d0     1 3d2+    1 3d0     1 3d2+ 
                                   1 3d0     1 3d2+    1 3d0     1 3d2+    1 3d0     1 3d2+    1 3d0     1 3d2+    1 3d0     1 3d2+ 
                                   1 3d0     1 3d2+    1 3d0     1 3d2+    1 5g0     1 5g4+    1 5g2+    1 5g0     1 5g4+    1 5g2+ 
                                   1 5g0     1 5g4+    1 5g2+ 

   1.1   2    -3.8075  -20.1209 -0.000000  0.000000 -0.000000  0.000000 -0.000000  0.000000 -0.000001  0.000003 -0.000010  0.000028
                                -0.000075  0.000196 -0.000502  0.001279 -0.003273  0.008545 -0.021690  0.022599  0.204074 -0.687326
                                -0.171621  0.896160  0.519960  0.030477 -0.014122  0.006794  0.084684 -0.056089 -0.002785  0.000708
                                 0.000000  0.000000 -0.000000 -0.000000  0.000000  0.000000 -0.000001 -0.000000  0.000002  0.000001
                                -0.000007  0.000000  0.000035  0.000012 -0.000108 -0.000046 -0.000187  0.000014  0.000787  0.000307
                                -0.000519  0.000318 -0.001983  0.000118 -0.001175  0.000041 -0.000210  0.000014  0.000356  0.000100
                                 0.000880  0.000141 -0.000010 -0.000000 -0.000217 -0.000001  0.000017 -0.000475 -0.000001  0.000036
                                -0.000716 -0.000002  0.000051

   2.1   2    -0.0228   -4.7484  0.000000 -0.000000  0.000000 -0.000000  0.000000 -0.000000  0.000000 -0.000001  0.000002 -0.000005
                                 0.000015 -0.000038  0.000098 -0.000250  0.000643 -0.001700  0.004428 -0.005059 -0.042429  0.159992
                                 0.050641 -0.272017 -0.226225  0.106072  0.316916  0.350844 -0.040259  0.059154  0.295230  0.127192
                                -0.000000 -0.000000  0.000000  0.000000 -0.000000 -0.000000  0.000000  0.000000 -0.000002 -0.000001
                                -0.000010 -0.000003 -0.000065 -0.000021  0.000274  0.000087 -0.000202 -0.000082 -0.001506 -0.000527
                                -0.002600 -0.000918 -0.000786 -0.000661  0.003983  0.000157  0.004840  0.000481 -0.000871 -0.000201
                                -0.001013 -0.000183  0.004142  0.000475 -0.000122 -0.000001  0.000006 -0.000270 -0.000001  0.000014
                                 0.000177  0.000000 -0.000015

   3.1   2    -0.2527  -11.2778  0.000000 -0.000000  0.000000 -0.000000  0.000000 -0.000000  0.000000 -0.000000  0.000000 -0.000000
                                 0.000000 -0.000001  0.000001 -0.000003  0.000008 -0.000022  0.000056 -0.000080 -0.000334  0.001178
                                -0.000875 -0.000563 -0.000072  0.001877  0.000631  0.000333  0.000755 -0.002058 -0.000084  0.000025
                                 0.000000  0.000000 -0.000000 -0.000002  0.000001  0.000011 -0.000002 -0.000043  0.000017  0.000294
                                 0.000067  0.001154  0.000437  0.007582 -0.001821 -0.031594  0.001907  0.033078  0.011640  0.201987
                                 0.020505  0.355676  0.019230  0.333146  0.010969  0.189608  0.003116  0.053675  0.003237  0.056119
                                 0.002065  0.035806  0.000162  0.002751  0.000058  0.000120  0.000928  0.000116  0.000185  0.001124
                                 0.000148  0.000319  0.002536

   4.1   +    -0.3350  -11.5004  0.000000 -0.000000  0.000000 -0.000000  0.000000 -0.000000  0.000000 -0.000000  0.000000 -0.000001
                                 0.000001 -0.000004  0.000010 -0.000025  0.000063 -0.000162  0.000413 -0.000745 -0.000925  0.003195
                                -0.017416  0.012958  0.013989  0.022847 -0.002366 -0.003304  0.014272 -0.034630 -0.006837 -0.002078
                                 0.000000 -0.000000 -0.000002  0.000000  0.000011 -0.000001 -0.000044  0.000003  0.000301 -0.000017
                                 0.001164 -0.000067  0.007734 -0.000447 -0.032137  0.001859  0.032964 -0.001908  0.207549 -0.012015
                                 0.367278 -0.021215  0.335739 -0.019335  0.170591 -0.009833  0.036825 -0.002150  0.056204 -0.003247
                                 0.036040 -0.002086  0.000717 -0.000057  0.002217 -0.000015  0.000083  0.003888 -0.000025  0.000137
                                 0.005488 -0.000034  0.000183

   5.1   0     0.0766   -1.1552 -0.000000  0.000000 -0.000000  0.000000 -0.000000  0.000000 -0.000000  0.000001 -0.000003  0.000008
                                -0.000020  0.000053 -0.000135  0.000339 -0.000842  0.002072 -0.005058  0.011236 -0.019453  0.102780
                                 0.385101 -0.558969 -0.243731  0.298418 -0.892639  1.695134 -0.359608  0.687328 -3.018304  2.419742
                                 0.000000  0.000000 -0.000000 -0.000000  0.000000  0.000000 -0.000000 -0.000000  0.000002  0.000000
                                 0.000007  0.000000  0.000045  0.000003 -0.000188 -0.000011  0.000150  0.000007  0.000907  0.000033
                                 0.001752  0.000077  0.001296  0.000046 -0.000456 -0.000096 -0.000942 -0.000114  0.000635  0.000058
                                 0.000737  0.000076 -0.000512 -0.000054  0.000049  0.000000 -0.000002  0.000062  0.000000 -0.000002
                                -0.000349 -0.000001  0.000028

   6.1   0     0.1607   -2.1694  0.000000 -0.000000  0.000000 -0.000000  0.000000 -0.000000  0.000000 -0.000001  0.000004 -0.000012
                                 0.000033 -0.000085  0.000215 -0.000534  0.001300 -0.003078  0.007225 -0.021056  0.090119 -0.409288
                                -0.960447  1.609492  0.822884 -0.867707  1.963466 -4.708156  0.888092 -1.691393  4.826095 -1.496788
                                 0.000000  0.000000 -0.000000 -0.000000  0.000000  0.000000 -0.000001 -0.000000  0.000006  0.000001
                                 0.000010  0.000000  0.000130  0.000009 -0.000524 -0.000035  0.000748  0.000062  0.005907  0.000522
                                 0.007327  0.000555  0.001945 -0.000030 -0.000786 -0.000191 -0.003473 -0.000424 -0.001089 -0.000175
                                -0.002219 -0.000296  0.001309  0.000195  0.000128  0.000000 -0.000006  0.000157  0.000001 -0.000005
                                -0.000964 -0.000003  0.000075

                                   1 2px     1 2px     1 2px     1 2px     1 2px     1 2px     1 2px     1 2px     1 2px     1 2px  
                                   1 2px     1 2px     1 2px     1 2px     1 2px     1 2px     1 2px     1 2px     1 2px     1 2px  
                                   1 2px     1 2px     1 2px     1 2px     1 4f1+    1 4f3+    1 4f1+    1 4f3+    1 4f1+    1 4f3+ 
                                   1 4f1+    1 4f3+ 

   1.2   2    -2.3646  -16.9906 -0.000000  0.000000 -0.000000  0.000000 -0.000001  0.000003 -0.000009  0.000030 -0.000090  0.000251
                                -0.000526 -0.000518  0.033772 -0.128745  0.034333  0.359846  0.283650  0.036621 -0.003380  0.002489
                                -0.149585  0.532002 -0.001009  0.000337  0.002951  0.000126  0.003758  0.000179  0.003237  0.000023
                                 0.000313 -0.000039

   2.2   0     0.0691   -0.9290 -0.000000  0.000000 -0.000000  0.000000 -0.000001  0.000002 -0.000008  0.000027 -0.000080  0.000215
                                -0.000547  0.001372 -0.003707  0.012375 -0.280717 -0.041474 -0.039235  0.073142 -0.177855  0.486251
                                 0.296013  0.032157 -1.204634  1.637372 -0.000004 -0.000001  0.000000 -0.000000 -0.000007 -0.000000
                                 0.000054  0.000010

   3.2   0     0.1304   -1.6859  0.000000 -0.000000  0.000000 -0.000000  0.000001 -0.000005  0.000017 -0.000055  0.000161 -0.000434
                                 0.001099 -0.002707  0.006297 -0.020336  0.555510  0.069739  0.068640 -0.137376  0.417045 -1.030060
                                -0.582531 -0.082721  2.229936 -0.890677 -0.000047 -0.000011  0.000036  0.000001 -0.000111 -0.000013
                                 0.000704  0.000128

                                   1 2py     1 2py     1 2py     1 2py     1 2py     1 2py     1 2py     1 2py     1 2py     1 2py  
                                   1 2py     1 2py     1 2py     1 2py     1 2py     1 2py     1 2py     1 2py     1 2py     1 2py  
                                   1 2py     1 2py     1 2py     1 2py     1 4f1-    1 4f3-    1 4f1-    1 4f3-    1 4f1-    1 4f3- 
                                   1 4f1-    1 4f3- 

   1.3   2    -2.3638  -16.9887 -0.000000  0.000000 -0.000000  0.000000 -0.000001  0.000003 -0.000009  0.000030 -0.000090  0.000251
                                -0.000525 -0.000521  0.033773 -0.128760  0.034812  0.359838  0.283927  0.036936 -0.003383  0.002511
                                -0.150000  0.531568 -0.001018  0.000340  0.002773  0.000142  0.003555  0.000198  0.002878  0.000048
                                 0.000220 -0.000034

   2.3   0     0.0691   -0.9289 -0.000000  0.000000 -0.000000  0.000000 -0.000001  0.000002 -0.000008  0.000027 -0.000080  0.000215
                                -0.000547  0.001373 -0.003707  0.012376 -0.280811 -0.041476 -0.039235  0.073126 -0.177917  0.486259
                                 0.296109  0.032182 -1.204880  1.637481 -0.000005 -0.000001 -0.000000 -0.000000 -0.000007 -0.000000
                                 0.000061  0.000010

   3.3   0     0.1305   -1.6833  0.000000 -0.000000  0.000000 -0.000000  0.000001 -0.000005  0.000017 -0.000055  0.000162 -0.000435
                                 0.001101 -0.002712  0.006321 -0.020423  0.556576  0.070015  0.068862 -0.137924  0.417188 -1.032963
                                -0.583688 -0.082630  2.232256 -0.891210 -0.000057 -0.000011  0.000033  0.000001 -0.000115 -0.000014
                                 0.000793  0.000125

                                   1 3d2-    1 3d2-    1 3d2-    1 3d2-    1 3d2-    1 3d2-    1 3d2-    1 3d2-    1 3d2-    1 3d2- 
                                   1 3d2-    1 3d2-    1 3d2-    1 3d2-    1 3d2-    1 3d2-    1 3d2-    1 5g2-    1 5g4-    1 5g2- 
                                   1 5g4-    1 5g2-    1 5g4- 

   1.4   2    -0.2528  -11.2782  0.000000 -0.000002  0.000011 -0.000043  0.000294  0.001156  0.007595 -0.031648  0.033134  0.202332
                                 0.356285  0.333706  0.189894  0.053733  0.056215  0.035869  0.002750  0.000924  0.000120  0.001118
                                 0.000185  0.002525  0.000319

   2.4   0     0.2168   -2.0500  0.000001 -0.000008  0.000041 -0.000166  0.000543 -0.001743  0.004283 -0.013126  0.076036  0.699049
                                 0.590684 -0.228589  0.248993 -0.564395 -0.513935 -0.778045  1.294588 -0.000018 -0.000011 -0.000049
                                -0.000030 -0.000025 -0.000009

   3.4   0     0.4809   -3.1808 -0.000003  0.000021 -0.000109  0.000442 -0.001514  0.003961 -0.014201  0.047252 -0.210850 -1.903547
                                -1.712408  0.475374 -0.801802  1.869558  1.307433  2.023611 -0.838581 -0.000050 -0.000035 -0.000246
                                -0.000138  0.000087  0.000037

                                   1 2pz     1 2pz     1 2pz     1 2pz     1 2pz     1 2pz     1 2pz     1 2pz     1 2pz     1 2pz  
                                   1 2pz     1 2pz     1 2pz     1 2pz     1 2pz     1 2pz     1 2pz     1 2pz     1 2pz     1 2pz  
                                   1 2pz     1 2pz     1 2pz     1 2pz     1 4f0     1 4f2+    1 4f0     1 4f2+    1 4f0     1 4f2+ 
                                   1 4f0     1 4f2+ 

   1.5   2    -2.3694  -17.0039 -0.000000  0.000000 -0.000000  0.000000 -0.000001  0.000003 -0.000009  0.000031 -0.000091  0.000254
                                -0.000534 -0.000503  0.033767 -0.128650  0.031013  0.359931  0.281760  0.034431 -0.003380  0.002340
                                -0.146719  0.535029 -0.000952  0.000317 -0.000980  0.000305 -0.000958  0.000391 -0.003117  0.000327
                                -0.001026  0.000029

   2.5   0     0.0691   -0.9296 -0.000000  0.000000 -0.000000  0.000000 -0.000001  0.000002 -0.000008  0.000027 -0.000080  0.000215
                                -0.000545  0.001368 -0.003702  0.012365 -0.280051 -0.041460 -0.039235  0.073269 -0.177414  0.486203
                                 0.295338  0.031979 -1.202923  1.636609 -0.000011 -0.000000 -0.000009  0.000000  0.000004 -0.000001
                                 0.000120  0.000007

   3.5   0     0.1298   -1.7055  0.000000 -0.000000  0.000000 -0.000000  0.000001 -0.000005  0.000017 -0.000055  0.000159 -0.000428
                                 0.001085 -0.002669  0.006121 -0.019704  0.547991  0.067718  0.067023 -0.133155  0.416201 -1.009164
                                -0.574346 -0.083500  2.212943 -0.886701 -0.000145 -0.000006 -0.000022  0.000004 -0.000057 -0.000013
                                 0.001592  0.000086

                                   1 3d1+    1 3d1+    1 3d1+    1 3d1+    1 3d1+    1 3d1+    1 3d1+    1 3d1+    1 3d1+    1 3d1+ 
                                   1 3d1+    1 3d1+    1 3d1+    1 3d1+    1 3d1+    1 3d1+    1 3d1+    1 5g1+    1 5g3+    1 5g1+ 
                                   1 5g3+    1 5g1+    1 5g3+ 

   1.6   2    -0.2843  -11.3653  0.000000 -0.000002  0.000011 -0.000044  0.000297  0.001163  0.007659 -0.031908  0.033202  0.203956
                                 0.359795  0.334918  0.183207  0.046891  0.056894  0.036592  0.001736  0.000936  0.000100  0.001444
                                 0.000137  0.002404  0.000265

   2.6   0     0.2162   -2.0507  0.000001 -0.000008  0.000041 -0.000165  0.000541 -0.001728  0.004281 -0.013150  0.075692  0.695550
                                 0.588366 -0.226095  0.248826 -0.559095 -0.510682 -0.773354  1.292212 -0.000074 -0.000005 -0.000222
                                -0.000013 -0.000052 -0.000003

   3.6   0     0.4777   -3.1715 -0.000003  0.000021 -0.000108  0.000437 -0.001496  0.003922 -0.014018  0.046623 -0.208434 -1.882286
                                -1.692687  0.471635 -0.788357  1.864296  1.293517  2.001808 -0.840277 -0.000248 -0.000015 -0.001047
                                -0.000064  0.000341  0.000023

                                   1 3d1-    1 3d1-    1 3d1-    1 3d1-    1 3d1-    1 3d1-    1 3d1-    1 3d1-    1 3d1-    1 3d1- 
                                   1 3d1-    1 3d1-    1 3d1-    1 3d1-    1 3d1-    1 3d1-    1 3d1-    1 5g1-    1 5g3-    1 5g1- 
                                   1 5g3-    1 5g1-    1 5g3- 

   1.7   2    -0.2803  -11.3546  0.000000 -0.000002  0.000011 -0.000044  0.000297  0.001162  0.007651 -0.031876  0.033194  0.203753
                                 0.359359  0.334782  0.184043  0.047703  0.056814  0.036508  0.001842  0.000988  0.000101  0.001538
                                 0.000137  0.002543  0.000269

   2.7   0     0.2163   -2.0506  0.000001 -0.000008  0.000041 -0.000165  0.000541 -0.001730  0.004282 -0.013148  0.075736  0.695997
                                 0.588669 -0.226396  0.248857 -0.559758 -0.511087 -0.773940  1.292512 -0.000082 -0.000004 -0.000244
                                -0.000013 -0.000059 -0.000003

   3.7   0     0.4781   -3.1725 -0.000003  0.000021 -0.000108  0.000438 -0.001499  0.003927 -0.014040  0.046700 -0.208734 -1.884927
                                -1.695138  0.472110 -0.790022  1.864959  1.295255  2.004529 -0.840061 -0.000274 -0.000014 -0.001147
                                -0.000062  0.000363  0.000022

                                   1 4f2-    1 4f2-    1 4f2-    1 4f2- 

   1.8   0     1.0345   -4.1771 -0.003083  0.131715 -0.209023  1.103364

   2.8   0     2.1832   -5.2656  0.217150 -0.046367  1.264932 -0.780463

 HOMO      1.4    -0.252826 =      -6.8797eV
 LUMO      2.5     0.069085 =       1.8799eV
 LUMO-HOMO         0.321911 =       8.7596eV


 **********************************************************************************************************************************
 DATASETS  * FILE   NREC   LENGTH (MB)   RECORD NAMES
              1      19       20.40       500      610      700      900      950      970     1000      129      960     1100   
                                          VAR    BASINP    GEOM    SYMINP    ZMAT    AOBASIS   BASIS     P2S    ABASIS      S 
                                         1400     1410     1420     1200     1210     1080     1600     1650     1700   
                                           T        V       ECP      H0       H01     AOSYM     SMH    MOLCAS    OPER   

              2       5        5.66       200      700     1000      520     4202   
                                        OPTIONS   GEOM     BASIS   MCVARS     RHF  

 PROGRAMS   *        TOTAL       RHF  RCCSD(T)       RHF       INT
 CPU TIMES  *        51.05      2.49     19.29      1.34     27.38
 REAL TIME  *        77.24 SEC
 DISK USED  *         3.80 GB      
 SF USED    *       440.31 MB      
 GA USED    *         0.00 MB       (max)       0.00 MB       (current)
 **********************************************************************************************************************************


 PROGRAM * POP (Mulliken population analysis)

 
 Density matrix read from record         4202.2  Type=RHF/CHARGE (state 1.1)
 
 Population analysis by basis function type

 Unique atom        s        p        d        f        g    Total    Charge
   1  PD      4.00003  5.99968  8.99973  0.00032  0.00023 19.00000  - 1.00000


 **********************************************************************************************************************************
 DATASETS  * FILE   NREC   LENGTH (MB)   RECORD NAMES
              1      19       20.40       500      610      700      900      950      970     1000      129      960     1100   
                                          VAR    BASINP    GEOM    SYMINP    ZMAT    AOBASIS   BASIS     P2S    ABASIS      S 
                                         1400     1410     1420     1200     1210     1080     1600     1650     1700   
                                           T        V       ECP      H0       H01     AOSYM     SMH    MOLCAS    OPER   

              2       5        5.66       200      700     1000      520     4202   
                                        OPTIONS   GEOM     BASIS   MCVARS     RHF  

 PROGRAMS   *        TOTAL       POP       RHF  RCCSD(T)       RHF       INT
 CPU TIMES  *        51.05      0.00      2.49     19.29      1.34     27.38
 REAL TIME  *        77.25 SEC
 DISK USED  *         3.80 GB      
 SF USED    *       440.31 MB      
 GA USED    *         0.00 MB       (max)       0.00 MB       (current)
 **********************************************************************************************************************************


 PROGRAM * MULTI (Direct Multiconfiguration SCF)       Authors: P.J. Knowles, H.-J. Werner (1984)     S.T. Elbert (1988)


 Number of closed-shell orbitals:   5 (   2   1   1   0   1   0   0   0 )
 Number of active  orbitals:        5 (   2   0   0   1   0   1   1   0 )
 Number of external orbitals:     232 (  69  31  31  22  31  22  22   4 )

 State symmetry 1

 Number of electrons:     9    Spin symmetry=Doublet   Space symmetry=1
 Number of states:        2
 Number of CSFs:          2   (2 determinants, 5 intermediate states)

 State symmetry 2

 Number of electrons:     9    Spin symmetry=Doublet   Space symmetry=4
 Number of states:        1
 Number of CSFs:          1   (1 determinants, 5 intermediate states)

 State symmetry 3

 Number of electrons:     9    Spin symmetry=Doublet   Space symmetry=6
 Number of states:        1
 Number of CSFs:          1   (1 determinants, 5 intermediate states)

 State symmetry 4

 Number of electrons:     9    Spin symmetry=Doublet   Space symmetry=7
 Number of states:        1
 Number of CSFs:          1   (1 determinants, 5 intermediate states)

 Molecular orbitals read from record     4202.2  Type=RHF/CANONICAL (state 1.1)
 *** IN SYMMETRY 1 ORBITAL  1 SYMMETRY CONTAMINATION OF 0.324D-02 HAS BEEN REMOVED
 *** IN SYMMETRY 1 ORBITAL  2 SYMMETRY CONTAMINATION OF 0.119D-01 HAS BEEN REMOVED
 *** IN SYMMETRY 1 ORBITAL  3 SYMMETRY CONTAMINATION OF 0.644D-01 HAS BEEN REMOVED
 *** IN SYMMETRY 1 ORBITAL  4 SYMMETRY CONTAMINATION OF 0.148D+00 HAS BEEN REMOVED

 EXTRA SYMMETRY OF MOS IN SYMMETRY 1:   1 1 3 2 1 1 2 3 1 2   3 1 2 3 1 2 3 4 6 5   2 3 1 4 6 5 2 3 1 4   6 5 2 3 1 2 3 2 3 1
                                        2 3 1 1 2 3 1 2 3 1   2 3 1 1 2 3 1 2 3 1   1 2 3 1 1 1 1 1 1 1   1 1 1
 *** IN SYMMETRY 2 ORBITAL  1 SYMMETRY CONTAMINATION OF 0.673D-02 HAS BEEN REMOVED
 EXTRA SYMMETRY OF MOS IN SYMMETRY 2:   1 1 1 1 1 1 2 3 2 3   1 2 3 1 2 3 1 1 1 1   1 1 1 1 1 1 1 1 1 1   1 1
 *** IN SYMMETRY 3 ORBITAL  1 SYMMETRY CONTAMINATION OF 0.624D-02 HAS BEEN REMOVED
 EXTRA SYMMETRY OF MOS IN SYMMETRY 3:   1 1 1 1 1 1 2 3 2 3   1 2 3 1 2 3 1 1 1 1   1 1 1 1 1 1 1 1 1 1   1 1
 *** IN SYMMETRY 4 ORBITAL  1 SYMMETRY CONTAMINATION OF 0.396D-02 HAS BEEN REMOVED
 EXTRA SYMMETRY OF MOS IN SYMMETRY 4:   1 1 1 1 1 2 3 1 2 3   1 2 3 1 1 1 1 1 1 1   1 1 1
 *** IN SYMMETRY 5 ORBITAL  1 SYMMETRY CONTAMINATION OF 0.455D-02 HAS BEEN REMOVED
 EXTRA SYMMETRY OF MOS IN SYMMETRY 5:   1 1 1 1 1 1 2 3 2 3   1 2 3 1 2 3 1 1 1 1   1 1 1 1 1 1 1 1 1 1   1 1
 *** IN SYMMETRY 6 ORBITAL  1 SYMMETRY CONTAMINATION OF 0.405D-02 HAS BEEN REMOVED
 EXTRA SYMMETRY OF MOS IN SYMMETRY 6:   1 1 1 1 1 2 3 1 2 3   1 2 3 1 1 1 1 1 1 1   1 1 1
 *** IN SYMMETRY 7 ORBITAL  1 SYMMETRY CONTAMINATION OF 0.427D-02 HAS BEEN REMOVED
 EXTRA SYMMETRY OF MOS IN SYMMETRY 7:   1 1 1 1 1 2 3 1 2 3   1 2 3 1 1 1 1 1 1 1   1 1 1

 Wavefunction dump at record             5202.2

 Convergence thresholds  0.10E-01 (gradient)  0.10E-05 (energy)  0.10E-02 (step length)

 Weight factors for state symmetry  1:    0.20000   0.20000
 Weight factors for state symmetry  2:    0.20000
 Weight factors for state symmetry  3:    0.20000
 Weight factors for state symmetry  4:    0.20000

 Number of orbital rotations:      439   (     4 Core/Active    231 Core/Virtual   0 Active/Active    204 Active/Virtual)
 Total number of variables:        446


 ITER. MIC  NCI  NEG     ENERGY(VAR)     ENERGY(PROJ)   ENERGY CHANGE     GRAD(0)  GRAD(ORB)   GRAD(CI)     STEP       TIME

   1   37   16    0    -126.87409209    -126.87508022   -0.00098813    0.04548291 0.00000000 0.00000000  0.29D-01      0.75
   2   25   20    0    -126.87508069    -126.87508085   -0.00000015    0.00029582 0.00000000 0.00000000  0.96D-03      2.58
   3   22   20    0    -126.87508085    -126.87508085    0.00000000    0.00000012 0.00000000 0.00000000  0.42D-06      3.21

 ** WVFN ****  CONVERGENCE REACHED, FINAL GRADIENT:  0.52D-11



 Results for state 1.1
 =====================

 !MCSCF STATE 1.1 Energy             -126.875080845192
 Nuclear energy                         0.00000000
 Kinetic energy                        48.03724914
 One electron energy                 -229.42875441
 Two electron energy                  102.55367356
 Virial ratio                           3.64118123

 !MCSCF STATE 1.1 Dipole moment         0.00000000     0.00000000     0.00000000
 Dipole moment /Debye                   0.00000000     0.00000000     0.00000000

 Results for state 2.1
 =====================

 !MCSCF STATE 2.1 Energy             -126.875080845192
 Nuclear energy                         0.00000000
 Kinetic energy                        48.03724914
 One electron energy                 -229.42875441
 Two electron energy                  102.55367356
 Virial ratio                           3.64118123

 !MCSCF STATE 2.1 Dipole moment         0.00000000     0.00000000     0.00000000
 Dipole moment /Debye                   0.00000000     0.00000000     0.00000000



 Results for state 1.4
 =====================

 !MCSCF STATE 1.4 Energy             -126.875080845192
 Nuclear energy                         0.00000000
 Kinetic energy                        48.03724914
 One electron energy                 -229.42875441
 Two electron energy                  102.55367356
 Virial ratio                           3.64118123

 !MCSCF STATE 1.4 Dipole moment         0.00000000     0.00000000     0.00000000
 Dipole moment /Debye                   0.00000000     0.00000000     0.00000000



 Results for state 1.6
 =====================

 !MCSCF STATE 1.6 Energy             -126.875080845192
 Nuclear energy                         0.00000000
 Kinetic energy                        48.03724914
 One electron energy                 -229.42875441
 Two electron energy                  102.55367356
 Virial ratio                           3.64118123

 !MCSCF STATE 1.6 Dipole moment         0.00000000     0.00000000     0.00000000
 Dipole moment /Debye                   0.00000000     0.00000000     0.00000000



 Results for state 1.7
 =====================

 !MCSCF STATE 1.7 Energy             -126.875080845192
 Nuclear energy                         0.00000000
 Kinetic energy                        48.03724914
 One electron energy                 -229.42875441
 Two electron energy                  102.55367356
 Virial ratio                           3.64118123

 !MCSCF STATE 1.7 Dipole moment         0.00000000     0.00000000     0.00000000
 Dipole moment /Debye                   0.00000000     0.00000000     0.00000000

 State-averaged charge density matrix saved on record  5202.2 (density set 1)


 NATURAL ORBITALS (state averaged)
 =================================

   Orb     Occ        Energy       Coefficients

                                   1 1s      1 1s      1 1s      1 1s      1 1s      1 1s      1 1s      1 1s      1 1s      1 1s   
                                   1 1s      1 1s      1 1s      1 1s      1 1s      1 1s      1 1s      1 1s      1 1s      1 1s   
                                   1 1s      1 1s      1 1s      1 1s      1 1s      1 1s      1 1s      1 1s      1 1s      1 1s   
                                   1 3d0     1 3d2+    1 3d0     1 3d2+    1 3d0     1 3d2+    1 3d0     1 3d2+    1 3d0     1 3d2+ 
                                   1 3d0     1 3d2+    1 3d0     1 3d2+    1 3d0     1 3d2+    1 3d0     1 3d2+    1 3d0     1 3d2+ 
                                   1 3d0     1 3d2+    1 3d0     1 3d2+    1 3d0     1 3d2+    1 3d0     1 3d2+    1 3d0     1 3d2+ 
                                   1 3d0     1 3d2+    1 3d0     1 3d2+    1 5g0     1 5g4+    1 5g2+    1 5g0     1 5g4+    1 5g2+ 
                                   1 5g0     1 5g4+    1 5g2+ 

   1.1  2.00000    -3.807518    -0.000000  0.000000 -0.000000  0.000000 -0.000000  0.000000 -0.000001  0.000003 -0.000010  0.000028
                                -0.000075  0.000196 -0.000502  0.001279 -0.003273  0.008544 -0.021688  0.022595  0.204071 -0.687321
                                -0.171714  0.896294  0.520037  0.030620 -0.014135  0.006780  0.084771 -0.056355 -0.002822  0.000698
                                 0.000000  0.000000  0.000000  0.000000  0.000000  0.000000  0.000000  0.000000  0.000000  0.000000
                                 0.000000  0.000000  0.000000  0.000000  0.000000  0.000000  0.000000  0.000000  0.000000  0.000000
                                 0.000000  0.000000  0.000000  0.000000  0.000000  0.000000  0.000000  0.000000  0.000000  0.000000
                                 0.000000  0.000000  0.000000  0.000000  0.000000  0.000000  0.000000  0.000000  0.000000  0.000000
                                 0.000000  0.000000  0.000000

   2.1  2.00000    -0.022777     0.000000 -0.000000  0.000000 -0.000000  0.000000 -0.000000  0.000000 -0.000001  0.000002 -0.000005
                                 0.000015 -0.000038  0.000098 -0.000250  0.000643 -0.001700  0.004428 -0.005060 -0.042433  0.160006
                                 0.050617 -0.272024 -0.226145  0.106034  0.316723  0.350906 -0.040244  0.059119  0.295240  0.127435
                                 0.000000  0.000000  0.000000  0.000000  0.000000  0.000000  0.000000  0.000000  0.000000  0.000000
                                 0.000000  0.000000  0.000000  0.000000  0.000000  0.000000  0.000000  0.000000  0.000000  0.000000
                                 0.000000  0.000000  0.000000  0.000000  0.000000  0.000000  0.000000  0.000000  0.000000  0.000000
                                 0.000000  0.000000  0.000000  0.000000  0.000000  0.000000  0.000000  0.000000  0.000000  0.000000
                                 0.000000  0.000000  0.000000

   3.1  1.80000    -0.213640     0.000000  0.000000  0.000000  0.000000  0.000000  0.000000  0.000000  0.000000  0.000000  0.000000
                                 0.000000  0.000000  0.000000  0.000000  0.000000  0.000000  0.000000  0.000000  0.000000  0.000000
                                 0.000000  0.000000  0.000000  0.000000  0.000000  0.000000  0.000000  0.000000  0.000000  0.000000
                                 0.000000  0.000000 -0.000002  0.000000  0.000011  0.000000 -0.000044  0.000000  0.000296  0.000000
                                 0.001160  0.000000  0.007638  0.000000 -0.031816  0.000000  0.033154  0.000000  0.203566  0.000000
                                 0.358933  0.000000  0.334557  0.000000  0.185196  0.000000  0.048930  0.000000  0.056552  0.000000
                                 0.036256  0.000000  0.002019  0.000000  0.000000  0.000000  0.000000  0.000000  0.000000  0.000000
                                 0.000000  0.000000  0.000000

   4.1  1.80000    -0.213640     0.000000  0.000000  0.000000  0.000000  0.000000  0.000000  0.000000  0.000000  0.000000  0.000000
                                 0.000000  0.000000  0.000000  0.000000  0.000000  0.000000  0.000000  0.000000  0.000000  0.000000
                                 0.000000  0.000000  0.000000  0.000000  0.000000  0.000000  0.000000  0.000000  0.000000  0.000000
                                 0.000000  0.000000  0.000000 -0.000002  0.000000  0.000011  0.000000 -0.000044  0.000000  0.000296
                                 0.000000  0.001160  0.000000  0.007638  0.000000 -0.031816  0.000000  0.033154  0.000000  0.203566
                                 0.000000  0.358933  0.000000  0.334557  0.000000  0.185196  0.000000  0.048930  0.000000  0.056552
                                 0.000000  0.036256  0.000000  0.002019  0.000000  0.000000  0.000000  0.000000  0.000000  0.000000
                                 0.000000  0.000000  0.000000

                                   1 2px     1 2px     1 2px     1 2px     1 2px     1 2px     1 2px     1 2px     1 2px     1 2px  
                                   1 2px     1 2px     1 2px     1 2px     1 2px     1 2px     1 2px     1 2px     1 2px     1 2px  
                                   1 2px     1 2px     1 2px     1 2px     1 4f1+    1 4f3+    1 4f1+    1 4f3+    1 4f1+    1 4f3+ 
                                   1 4f1+    1 4f3+ 

   1.2  2.00000    -2.365724    -0.000000  0.000000 -0.000000  0.000000 -0.000001  0.000003 -0.000009  0.000030 -0.000090  0.000252
                                -0.000528 -0.000514  0.033772 -0.128726  0.033437  0.359902  0.283117  0.036003 -0.003385  0.002447
                                -0.148825  0.532870 -0.000993  0.000332  0.000000  0.000000  0.000000  0.000000  0.000000  0.000000
                                 0.000000  0.000000

                                   1 2py     1 2py     1 2py     1 2py     1 2py     1 2py     1 2py     1 2py     1 2py     1 2py  
                                   1 2py     1 2py     1 2py     1 2py     1 2py     1 2py     1 2py     1 2py     1 2py     1 2py  
                                   1 2py     1 2py     1 2py     1 2py     1 4f1-    1 4f3-    1 4f1-    1 4f3-    1 4f1-    1 4f3- 
                                   1 4f1-    1 4f3- 

   1.3  2.00000    -2.365724    -0.000000  0.000000 -0.000000  0.000000 -0.000001  0.000003 -0.000009  0.000030 -0.000090  0.000252
                                -0.000528 -0.000514  0.033772 -0.128726  0.033437  0.359902  0.283117  0.036003 -0.003385  0.002447
                                -0.148825  0.532870 -0.000993  0.000332  0.000000  0.000000  0.000000  0.000000  0.000000  0.000000
                                 0.000000  0.000000

                                   1 3d2-    1 3d2-    1 3d2-    1 3d2-    1 3d2-    1 3d2-    1 3d2-    1 3d2-    1 3d2-    1 3d2- 
                                   1 3d2-    1 3d2-    1 3d2-    1 3d2-    1 3d2-    1 3d2-    1 3d2-    1 5g2-    1 5g4-    1 5g2- 
                                   1 5g4-    1 5g2-    1 5g4- 

   1.4  1.80000    -0.213640     0.000000 -0.000002  0.000011 -0.000044  0.000296  0.001160  0.007638 -0.031816  0.033154  0.203566
                                 0.358933  0.334557  0.185196  0.048930  0.056552  0.036256  0.002019  0.000000  0.000000  0.000000
                                 0.000000  0.000000  0.000000

                                   1 2pz     1 2pz     1 2pz     1 2pz     1 2pz     1 2pz     1 2pz     1 2pz     1 2pz     1 2pz  
                                   1 2pz     1 2pz     1 2pz     1 2pz     1 2pz     1 2pz     1 2pz     1 2pz     1 2pz     1 2pz  
                                   1 2pz     1 2pz     1 2pz     1 2pz     1 4f0     1 4f2+    1 4f0     1 4f2+    1 4f0     1 4f2+ 
                                   1 4f0     1 4f2+ 

   1.5  2.00000    -2.365724    -0.000000  0.000000 -0.000000  0.000000 -0.000001  0.000003 -0.000009  0.000030 -0.000090  0.000252
                                -0.000528 -0.000514  0.033772 -0.128726  0.033437  0.359902  0.283117  0.036003 -0.003385  0.002447
                                -0.148825  0.532870 -0.000993  0.000332  0.000000  0.000000  0.000000  0.000000  0.000000  0.000000
                                 0.000000  0.000000

                                   1 3d1+    1 3d1+    1 3d1+    1 3d1+    1 3d1+    1 3d1+    1 3d1+    1 3d1+    1 3d1+    1 3d1+ 
                                   1 3d1+    1 3d1+    1 3d1+    1 3d1+    1 3d1+    1 3d1+    1 3d1+    1 5g1+    1 5g3+    1 5g1+ 
                                   1 5g3+    1 5g1+    1 5g3+ 

   1.6  1.80000    -0.213640     0.000000 -0.000002  0.000011 -0.000044  0.000296  0.001160  0.007638 -0.031816  0.033154  0.203566
                                 0.358933  0.334557  0.185196  0.048930  0.056552  0.036256  0.002019  0.000000  0.000000  0.000000
                                 0.000000  0.000000  0.000000

                                   1 3d1-    1 3d1-    1 3d1-    1 3d1-    1 3d1-    1 3d1-    1 3d1-    1 3d1-    1 3d1-    1 3d1- 
                                   1 3d1-    1 3d1-    1 3d1-    1 3d1-    1 3d1-    1 3d1-    1 3d1-    1 5g1-    1 5g3-    1 5g1- 
                                   1 5g3-    1 5g1-    1 5g3- 

   1.7  1.80000    -0.213640     0.000000 -0.000002  0.000011 -0.000044  0.000296  0.001160  0.007638 -0.031816  0.033154  0.203566
                                 0.358933  0.334557  0.185196  0.048930  0.056552  0.036256  0.002019  0.000000  0.000000  0.000000
                                 0.000000  0.000000  0.000000

 Total charge:  -1.000000000000
 

 EXTRA SYMMETRY OF MOS IN SYMMETRY 1:   1 1 2 3 1 1 2 3 1 3   2 1 2 3 1 2 3 6 5 4   2 3 1 4 5 6 2 3 1 6   5 4 3 2 1 2 3 3 2 1
                                        2 3 1 1 2 3 1 3 2 1   2 3 1 1 2 3 1 2 3 1   1 2 3 1 1 1 1 1 1 1   1 1 1
 EXTRA SYMMETRY OF MOS IN SYMMETRY 2:   1 1 1 1 1 1 2 3 3 2   1 2 3 1 2 3 1 1 1 1   1 1 1 1 1 1 1 1 1 1   1 1
 EXTRA SYMMETRY OF MOS IN SYMMETRY 3:   1 1 1 1 1 1 2 3 2 3   1 2 3 1 3 2 1 1 1 1   1 1 1 1 1 1 1 1 1 1   1 1
 EXTRA SYMMETRY OF MOS IN SYMMETRY 4:   1 1 1 1 1 2 3 1 3 2   1 2 3 1 1 1 1 1 1 1   1 1 1
 EXTRA SYMMETRY OF MOS IN SYMMETRY 5:   1 1 1 1 1 1 3 2 2 3   1 2 3 1 2 3 1 1 1 1   1 1 1 1 1 1 1 1 1 1   1 1
 EXTRA SYMMETRY OF MOS IN SYMMETRY 6:   1 1 1 1 1 3 2 1 2 3   1 3 2 1 1 1 1 1 1 1   1 1 1
 EXTRA SYMMETRY OF MOS IN SYMMETRY 7:   1 1 1 1 1 2 3 1 3 2   1 2 3 1 1 1 1 1 1 1   1 1 1

 Natural orbital dump (state averaged) at molpro section  5202.2    (Orbital set 2)


 CI vector for state symmetry 1
 ==============================

 a2 2 2 2          0.0000000   1.0000000
 2a 2 2 2          1.0000000   0.0000000

 TOTAL ENERGIES                      -126.87508085  -126.87508085

 CI vector for state symmetry 2
 ==============================

 22 a 2 2          1.0000000

 TOTAL ENERGIES                      -126.87508085

 CI vector for state symmetry 3
 ==============================

 22 2 a 2          1.0000000

 TOTAL ENERGIES                      -126.87508085

 CI vector for state symmetry 4
 ==============================

 22 2 2 a          1.0000000

 TOTAL ENERGIES                      -126.87508085



 **********************************************************************************************************************************
 DATASETS  * FILE   NREC   LENGTH (MB)   RECORD NAMES
              1      20       25.81       500      610      700      900      950      970     1000      129      960     1100   
                                          VAR    BASINP    GEOM    SYMINP    ZMAT    AOBASIS   BASIS     P2S    ABASIS      S 
                                         1400     1410     1420     1200     1210     1080     1600     1650     1700     1380   
                                           T        V       ECP      H0       H01     AOSYM     SMH    MOLCAS    OPER     JKOP   

              2       6        8.52       200      700     1000      520     4202     5202   
                                        OPTIONS   GEOM     BASIS   MCVARS     RHF     MCSCF   

 PROGRAMS   *        TOTAL     MULTI       POP       RHF  RCCSD(T)       RHF       INT
 CPU TIMES  *        55.60      4.45      0.00      2.49     19.29      1.34     27.38
 REAL TIME  *        82.75 SEC
 DISK USED  *         3.80 GB      
 SF USED    *       440.31 MB      
 GA USED    *         0.00 MB       (max)       0.00 MB       (current)
 **********************************************************************************************************************************


 PROGRAM * RHF-SCF (OPEN SHELL)       Authors: W. Meyer, H.-J. Werner


 NUMBER OF ELECTRONS:      10+    9-    SPACE SYMMETRY=1    SPIN SYMMETRY: Doublet 
 CONVERGENCE THRESHOLDS:    1.00E-05 (Density)    1.00E-07 (Energy)
 MAX. NUMBER OF ITERATIONS:        0
 INTERPOLATION TYPE:            DIIS
 INTERPOLATION STEPS:              2 (START)      1 (STEP)
 LEVEL SHIFTS:                 -0.60 (CLOSED) -0.30 (OPEN) 

 Number of closed-shell orbitals:    9 (   3   1   1   1   1   1   1   0 )
 Number of open-shell orbitals:      1 (   1   0   0   0   0   0   0   0 )


 Molecular orbitals read from record     5202.2  Type=MCSCF/NATURAL (state averaged)

 Molecular orbital dump at record        2102.2

 ITERATION    DDIFF          GRAD             ENERGY        2-EL.EN.            DIPOLE MOMENTS         DIIS   ORB.
    1      0.000D+00      0.000D+00      -126.87508085    205.107347    0.00000    0.00000    0.00000    0    start

 Final alpha occupancy:   4   1   1   1   1   1   1   0
 Final beta  occupancy:   3   1   1   1   1   1   1   0

 !RHF STATE 1.1 Energy               -126.875080845192
 Nuclear energy                         0.00000000
 One-electron energy                 -229.42875441
 Two-electron energy                  102.55367356
 Virial quotient                       -2.64118123
 !RHF STATE 1.1 Dipole moment           0.00000000     0.00000000     0.00000000
 Dipole moment /Debye                   0.00000000     0.00000000     0.00000000

 Orbital energies:

         1.1          2.1          3.1          4.1          5.1          6.1
     -3.807518    -0.022777    -0.213640    -0.213640     0.076760     0.161474

         1.2          2.2          3.2
     -2.365724     0.069113     0.130283

         1.3          2.3          3.3
     -2.365724     0.069113     0.130283

         1.4          2.4          3.4
     -0.213640     0.216506     0.480268

         1.5          2.5          3.5
     -2.365724     0.069113     0.130283

         1.6          2.6          3.6
     -0.213640     0.216506     0.480268

         1.7          2.7          3.7
     -0.213640     0.216506     0.480268

         1.8          2.8
      1.036255     2.191724

 HOMO      4.1    -0.213640 =      -5.8134eV
 LUMO      2.2     0.069113 =       1.8807eV
 LUMO-HOMO         0.282753 =       7.6941eV


 **********************************************************************************************************************************
 DATASETS  * FILE   NREC   LENGTH (MB)   RECORD NAMES
              1      20       25.81       500      610      700      900      950      970     1000      129      960     1100   
                                          VAR    BASINP    GEOM    SYMINP    ZMAT    AOBASIS   BASIS     P2S    ABASIS      S 
                                         1400     1410     1420     1200     1210     1080     1600     1650     1700     1380   
                                           T        V       ECP      H0       H01     AOSYM     SMH    MOLCAS    OPER     JKOP   

              2       7       11.55       200      700     1000      520     4202     5202     2102   
                                        OPTIONS   GEOM     BASIS   MCVARS     RHF     MCSCF     RHF  

 PROGRAMS   *        TOTAL       RHF     MULTI       POP       RHF  RCCSD(T)       RHF       INT
 CPU TIMES  *        55.75      0.11      4.45      0.00      2.49     19.29      1.34     27.38
 REAL TIME  *        83.09 SEC
 DISK USED  *         3.80 GB      
 SF USED    *       440.31 MB      
 GA USED    *         0.00 MB       (max)       0.00 MB       (current)
 **********************************************************************************************************************************
 SETTING SCF(2)         =      -126.87508085  AU                              
 SETTING _CC_NORM_MAX   =         2.00000000                                  


[...]

              2      17       37.89       200      700     1000      520     4202     5202     2102     2105     5202(1)  2107   
                                        OPTIONS   GEOM     BASIS   MCVARS     RHF     MCSCF     RHF      RHF     MCSCF     RHF  
                                         2109     2111     2113     2115     2117     2119     2120   
                                          RHF      RHF      RHF      RHF      RHF      RHF      RHF  

 PROGRAMS   *        TOTAL       RHF  RCCSD(T)       RHF  RCCSD(T)       RHF  RCCSD(T)       RHF     MULTI       POP       RHF
 CPU TIMES  *       235.81      1.17      3.57      1.36      6.93      2.40      7.65      0.28      2.64      0.00      1.43
 REAL TIME  *       387.32 SEC
 DISK USED  *         4.36 GB      
 SF USED    *       496.45 MB      
 GA USED    *         0.00 MB       (max)       0.00 MB       (current)
 **********************************************************************************************************************************
 SETTING SCF(12)        =       -69.81374420  AU                              
 SETTING _CC_NORM_MAX   =         2.00000000                                  


 PROGRAM * CCSD (Restricted open-shell coupled cluster)     Authors: C. Hampel, H.-J. Werner, 1991, M. Deegan, P.J. Knowles, 1992


 Convergence thresholds:  THRVAR = 1.00D-08  THRDEN = 1.00D-06

 CCSD(T)     terms to be evaluated (factor= 1.000)


 Number of closed-shell orbitals:   1 (   1   0   0   0   0   0   0   0 )
 Number of active  orbitals:        3 (   0   1   1   0   1   0   0   0 )
 Number of external orbitals:     238 (  72  31  31  23  31  23  23   4 )

 Memory could be reduced to 19.53 Mwords without degradation in triples

 Number of N-1 electron functions:               5
 Number of N-2 electron functions:              10
 Number of singly external CSFs:               240
 Number of doubly external CSFs:             54682
 Total number of CSFs:                       54922

 Molecular orbitals read from record     2120.2  Type=RHF/CANONICAL (state 1.8)

 Integral transformation finished. Total CPU:   0.52 sec, npass=  1  Memory used:   2.49 MW

 Starting RMP2 calculation

 Wavefunction is spin-projected

 ITER.      SQ.NORM     CORR.ENERGY   TOTAL ENERGY   ENERGY CHANGE        DEN1      VAR(S)    VAR(P)  DIIS     TIME
   1      1.02013853    -0.14462602   -69.95837022    -0.14462602    -0.00011718  0.12D-07  0.18D-04  1  1     0.63
   2      1.02018299    -0.14474791   -69.95849211    -0.00012189    -0.00000001  0.32D-11  0.17D-08  2  2     0.63
   3      1.02018321    -0.14474833   -69.95849254    -0.00000043    -0.00000000  0.39D-15  0.16D-12  3  3     0.70

 Norm of t1 vector:      0.00839153      S-energy:    -0.00055318      T1 diagnostic:  0.00012540
 Norm of t2 vector:      0.14181959      P-energy:    -0.14419515
                                         Alpha-Beta:  -0.10962431
                                         Alpha-Alpha: -0.03457084
                                         Beta-Beta:    0.00000000

 Spin contamination <S**2-Sz**2-Sz>     0.00000000
  Reference energy                    -69.813744203826
  RHF-RMP2 correlation energy          -0.144748334962
 !RHF-RMP2 energy                     -69.958492538788
 (NB above energy spin projected)

 Starting RCCSD calculation

 ITER.      SQ.NORM     CORR.ENERGY   TOTAL ENERGY   ENERGY CHANGE        DEN1      VAR(S)    VAR(P)  DIIS     TIME
   1      1.02452012    -0.15707622   -69.97082042    -0.15707622    -0.00268541  0.99D-05  0.40D-03  1  1     0.90
   2      1.02576664    -0.15992948   -69.97367368    -0.00285326    -0.00003092  0.15D-07  0.41D-05  2  2     0.98
   3      1.02586960    -0.16007656   -69.97382077    -0.00014709    -0.00000038  0.67D-09  0.46D-07  3  3     1.15
   4      1.02587873    -0.16009003   -69.97383423    -0.00001347    -0.00000000  0.22D-10  0.20D-09  4  4     1.43
   5      1.02587885    -0.16008995   -69.97383416     0.00000008    -0.00000000  0.82D-13  0.12D-11  5  5     1.49

 Norm of t1 vector:      0.00881623      S-energy:    -0.00053149      T1 diagnostic:  0.00111272
                                                                       D1 diagnostic:  0.00159968
 Norm of t2 vector:      0.16062728      P-energy:    -0.15955846
                                         Alpha-Beta:  -0.12424761
                                         Alpha-Alpha: -0.03531085
                                         Beta-Beta:    0.00000000

 Spin contamination <S**2-Sz**2-Sz>     0.00000000

 Memory could be reduced to 19.88 Mwords without degradation in triples
 

  Correlated core orbitals:             1.1       1.2       1.3       1.5
  Orbital energies:                   -13.3463  -11.6429  -11.6429  -11.6429
 
  RCCSD core-core energy               -0.160089952980
 

 RESULTS
 =======

  Reference energy                    -69.813744203826
  RCCSD singles energy                 -0.000531489958
  RCCSD pair energy                    -0.159558463022
  RCCSD correlation energy             -0.160089952980
  Triples (T) contribution             -0.002969005810
  Total correlation energy             -0.163058958790
 
  RHF-RCCSD energy                    -69.973834156807
  RHF-RCCSD[T] energy                 -69.976801286917
  RHF-RCCSD-T energy                  -69.976801587048
 !RHF-RCCSD(T) energy                 -69.976803162616

 Program statistics:

 Available memory in ccsd:               511999732
 Min. memory needed in ccsd:                440371
 Max. memory used in ccsd:                  489107
 Max. memory used in cckext:                507829 ( 5 integral passes)
 Max. memory used in cckint:               2485465 ( 1 integral passes)



 **********************************************************************************************************************************
 DATASETS  * FILE   NREC   LENGTH (MB)   RECORD NAMES
              1      20       25.81       500      610      700      900      950      970     1000      129      960     1100   
                                          VAR    BASINP    GEOM    SYMINP    ZMAT    AOBASIS   BASIS     P2S    ABASIS      S 
                                         1400     1410     1420     1200     1210     1080     1600     1650     1700     1380   
                                           T        V       ECP      H0       H01     AOSYM     SMH    MOLCAS    OPER     JKOP   

              2      17       37.89       200      700     1000      520     4202     5202     2102     2105     5202(1)  2107   
                                        OPTIONS   GEOM     BASIS   MCVARS     RHF     MCSCF     RHF      RHF     MCSCF     RHF  
                                         2109     2111     2113     2115     2117     2119     2120   
                                          RHF      RHF      RHF      RHF      RHF      RHF      RHF  

 PROGRAMS   *        TOTAL  RCCSD(T)       RHF  RCCSD(T)       RHF  RCCSD(T)       RHF  RCCSD(T)       RHF     MULTI       POP
 CPU TIMES  *       238.17      2.36      1.17      3.57      1.36      6.93      2.40      7.65      0.28      2.64      0.00
 REAL TIME  *       391.30 SEC
 DISK USED  *         4.36 GB      
 SF USED    *       496.45 MB      
 GA USED    *         0.00 MB       (max)       0.00 MB       (current)
 **********************************************************************************************************************************
 SETTING CCSD(12)       =       -69.97680316  AU                              

 DO I                   =        13.00000000   

 Running procedure=XVIIS2


 PROGRAM * RHF-SCF (CLOSED SHELL)       Authors: W. Meyer, H.-J. Werner


 NUMBER OF ELECTRONS:       1+    1-    SPACE SYMMETRY=1    SPIN SYMMETRY: Singlet 
 CONVERGENCE THRESHOLDS:    1.00E-05 (Density)    1.00E-07 (Energy)
 MAX. NUMBER OF ITERATIONS:       60
 INTERPOLATION TYPE:            DIIS
 INTERPOLATION STEPS:              2 (START)      1 (STEP)
 LEVEL SHIFTS:                  0.00 (CLOSED)  0.00 (OPEN) 



 Orbital guess generated from atomic densities. Full valence occupancy:    4   1   1   1   1   1   1   0


 Molecular orbital dump at record        2121.2

 Initial occupancy:   1   0   0   0   0   0   0   0

 ITERATION    DDIFF          GRAD             ENERGY        2-EL.EN.            DIPOLE MOMENTS         DIIS   ORB.
    1      0.000D+00      0.000D+00       -31.69288815      1.874749    0.00000    0.00000    0.00000    0    start
    2      0.000D+00      0.168D+00       -32.29403850      2.101143    0.00000    0.00000    0.00000    1    diag
    3      0.356D-01      0.126D-01       -32.29731620      2.117599    0.00000    0.00000    0.00000    2    diag
    4      0.473D-02      0.767D-04       -32.29731629      2.117678    0.00000    0.00000    0.00000    3    diag
    5      0.118D-03      0.186D-05       -32.29731629      2.117676    0.00000    0.00000    0.00000    4    diag
    6      0.798D-06      0.374D-07       -32.29731629      2.117676    0.00000    0.00000    0.00000    0    orth

 Final occupancy:   1   0   0   0   0   0   0   0

 !RHF STATE 1.1 Energy                -32.297316293964
 Nuclear energy                         0.00000000
 One-electron energy                  -33.35615414
 Two-electron energy                    1.05883785
 Virial quotient                       -6.00441365
 !RHF STATE 1.1 Dipole moment           0.00000000     0.00000000     0.00000000
 Dipole moment /Debye                   0.00000000     0.00000000     0.00000000

 Orbital energies:

         1.1          2.1          3.1
    -15.619239   -10.902169   -10.902169

         1.2          2.2
    -13.378151    -8.311120

         1.3          2.3
    -13.378151    -8.311120

         1.4          2.4
    -10.902169    -6.419997

         1.5          2.5
    -13.378151    -8.311120

         1.6          2.6
    -10.902169    -6.419997

         1.7          2.7
    -10.902169    -6.419997

         1.8          2.8
     -8.311120    -5.249851

 HOMO      1.1   -15.619239 =    -425.0211eV
 LUMO      1.2   -13.378151 =    -364.0380eV
 LUMO-HOMO         2.241088 =      60.9831eV


 **********************************************************************************************************************************
 DATASETS  * FILE   NREC   LENGTH (MB)   RECORD NAMES
              1      20       25.81       500      610      700      900      950      970     1000      129      960     1100   
                                          VAR    BASINP    GEOM    SYMINP    ZMAT    AOBASIS   BASIS     P2S    ABASIS      S 
                                         1400     1410     1420     1200     1210     1080     1600     1650     1700     1380   
                                           T        V       ECP      H0       H01     AOSYM     SMH    MOLCAS    OPER     JKOP   

              2      18       40.71       200      700     1000      520     4202     5202     2102     2105     5202(1)  2107   
                                        OPTIONS   GEOM     BASIS   MCVARS     RHF     MCSCF     RHF      RHF     MCSCF     RHF  
                                         2109     2111     2113     2115     2117     2119     2120     2121   
                                          RHF      RHF      RHF      RHF      RHF      RHF      RHF      RHF  

 PROGRAMS   *        TOTAL       RHF  RCCSD(T)       RHF  RCCSD(T)       RHF  RCCSD(T)       RHF  RCCSD(T)       RHF     MULTI
 CPU TIMES  *       239.19      1.01      2.36      1.17      3.57      1.36      6.93      2.40      7.65      0.28      2.64
 REAL TIME  *       392.57 SEC
 DISK USED  *         4.36 GB      
 SF USED    *       496.45 MB      
 GA USED    *         0.00 MB       (max)       0.00 MB       (current)
 **********************************************************************************************************************************
 SETTING SCF(13)        =       -32.29731629  AU                              
 SETTING _CC_NORM_MAX   =         2.00000000                                  


 PROGRAM * CCSD (Restricted open-shell coupled cluster)     Authors: C. Hampel, H.-J. Werner, 1991, M. Deegan, P.J. Knowles, 1992


 Convergence thresholds:  THRVAR = 1.00D-08  THRDEN = 1.00D-06

 CCSD(T)     terms to be evaluated (factor= 1.000)


 Number of closed-shell orbitals:   1 (   1   0   0   0   0   0   0   0 )
 Number of external orbitals:     241 (  72  32  32  23  32  23  23   4 )

 Memory could be reduced to 14.26 Mwords without degradation in triples

 Number of N-1 electron functions:               2
 Number of N-2 electron functions:               1
 Number of singly external CSFs:               144
 Number of doubly external CSFs:              9859
 Total number of CSFs:                       10003

 Molecular orbitals read from record     2121.2  Type=RHF/CANONICAL (state 1.1)

 Integral transformation finished. Total CPU:   0.07 sec, npass=  1  Memory used:   1.01 MW

 Starting RMP2 calculation

 Wavefunction is spin-projected

 ITER.      SQ.NORM     CORR.ENERGY   TOTAL ENERGY   ENERGY CHANGE        DEN1      VAR(S)    VAR(P)  DIIS     TIME
   1      1.01143014    -0.06099770   -32.35831399    -0.06099770    -0.00008425  0.48D-19  0.17D-04  1  1     0.09
   2      1.01146812    -0.06108545   -32.35840174    -0.00008775    -0.00000000  0.22D-22  0.34D-09  2  2     0.09
   3      1.01146821    -0.06108560   -32.35840190    -0.00000016    -0.00000000  0.39D-27  0.47D-14  3  3     0.09

 Norm of t1 vector:      0.00000001      S-energy:    -0.00000000      T1 diagnostic:  0.00000001
 Norm of t2 vector:      0.10708973      P-energy:    -0.06108560
                                         Alpha-Beta:  -0.06108560
                                         Alpha-Alpha:  0.00000000
                                         Beta-Beta:    0.00000000

 Spin contamination <S**2-Sz**2-Sz>     0.00000000
  Reference energy                    -32.297316293964
  RHF-RMP2 correlation energy          -0.061085604420
 !RHF-RMP2 energy                     -32.358401898384
 (NB above energy spin projected)

 Starting RCCSD calculation

 ITER.      SQ.NORM     CORR.ENERGY   TOTAL ENERGY   ENERGY CHANGE        DEN1      VAR(S)    VAR(P)  DIIS     TIME
   1      1.01584781    -0.06876839   -32.36608468    -0.06876839    -0.00322002  0.34D-05  0.64D-03  1  1     0.13
   2      1.01863632    -0.07309313   -32.37040942    -0.00432474    -0.00003126  0.29D-07  0.40D-05  2  2     0.15
   3      1.01884333    -0.07336063   -32.37067692    -0.00026750    -0.00000019  0.52D-10  0.18D-07  3  3     0.17
   4      1.01884220    -0.07335698   -32.37067327     0.00000365    -0.00000000  0.19D-12  0.78D-10  4  4     0.19
   5      1.01884267    -0.07335764   -32.37067393    -0.00000066    -0.00000000  0.54D-14  0.10D-12  5  5     0.31

 Norm of t1 vector:      0.00239840      S-energy:    -0.00000000      T1 diagnostic:  0.00119920
                                                                       D1 diagnostic:  0.00169592
 Norm of t2 vector:      0.13724764      P-energy:    -0.07335764
                                         Alpha-Beta:  -0.07335764
                                         Alpha-Alpha:  0.00000000
                                         Beta-Beta:    0.00000000

 Doubles amplitudes (print threshold =  0.500E-01):

         I         J         SYM. A    SYM. B    A         B      T(IJ, AB) [Alpha-Beta]

         1         1         2         2         1         1     -0.07725351
         1         1         3         3         1         1     -0.07725351
         1         1         5         5         1         1     -0.07725351

 Spin contamination <S**2-Sz**2-Sz>     0.00000000

 Memory could be reduced to 13.99 Mwords without degradation in triples
 

  Correlated core orbitals:             1.1
  Orbital energies:                   -15.6192
 
  RCCSD core-core energy               -0.073357636218
 

 RESULTS
 =======

  Reference energy                    -32.297316293964
  RCCSD singles energy                 -0.000000000185
  RCCSD pair energy                    -0.073357636033
  RCCSD correlation energy             -0.073357636218
  Triples (T) contribution              0.000000000000
  Total correlation energy             -0.073357636218
 
  RHF-RCCSD energy                    -32.370673930182
  RHF-RCCSD[T] energy                 -32.370673930182
  RHF-RCCSD-T energy                  -32.370673930182
 !RHF-RCCSD(T) energy                 -32.370673930182

 Program statistics:

 Available memory in ccsd:               511999882
 Min. memory needed in ccsd:                281125
 Max. memory used in ccsd:                  281125
 Max. memory used in cckext:                369777 ( 5 integral passes)
 Max. memory used in cckint:               1009422 ( 1 integral passes)



 **********************************************************************************************************************************
 DATASETS  * FILE   NREC   LENGTH (MB)   RECORD NAMES
              1      20       25.81       500      610      700      900      950      970     1000      129      960     1100   
                                          VAR    BASINP    GEOM    SYMINP    ZMAT    AOBASIS   BASIS     P2S    ABASIS      S 
                                         1400     1410     1420     1200     1210     1080     1600     1650     1700     1380   
                                           T        V       ECP      H0       H01     AOSYM     SMH    MOLCAS    OPER     JKOP   

              2      18       40.71       200      700     1000      520     4202     5202     2102     2105     5202(1)  2107   
                                        OPTIONS   GEOM     BASIS   MCVARS     RHF     MCSCF     RHF      RHF     MCSCF     RHF  
                                         2109     2111     2113     2115     2117     2119     2120     2121   
                                          RHF      RHF      RHF      RHF      RHF      RHF      RHF      RHF  

 PROGRAMS   *        TOTAL  RCCSD(T)       RHF  RCCSD(T)       RHF  RCCSD(T)       RHF  RCCSD(T)       RHF  RCCSD(T)       RHF
 CPU TIMES  *       239.71      0.51      1.01      2.36      1.17      3.57      1.36      6.93      2.40      7.65      0.28
 REAL TIME  *       393.87 SEC
 DISK USED  *         4.36 GB      
 SF USED    *       496.45 MB      
 GA USED    *         0.00 MB       (max)       0.00 MB       (current)
 **********************************************************************************************************************************
 SETTING CCSD(13)       =       -32.37067393  AU                              
 Output type csv         
                                                                                                                                                                                                                                                                

        SCF,CCSD
   -126.88054217,   -127.63756444
   -126.87508085,   -127.65028395
   -126.87509876,   -127.60585793
   -126.79781539,   -127.52432354
   -126.64213934,   -127.32960662
   -126.55308842,   -127.21893130
   -125.99795657,   -126.61931401
   -124.85166297,   -125.41762850
   -123.15461659,   -123.67206380
   -120.91327706,   -121.37512908
    -98.65963103,    -98.97911974
    -69.81374420,    -69.97680316
    -32.29731629,    -32.37067393
                                                  

 RCCSD(T)/USERDEF energy=    -32.370673930182

        RCCSD(T)        RHF-SCF         RCCSD(T)        RHF-SCF         RCCSD(T)        RHF-SCF         RCCSD(T)        RHF-SCF 
    -32.37067393    -32.29731629    -69.97680316    -69.81374420    -98.97911974    -98.65963103   -121.37512908   -120.91327706
 **********************************************************************************************************************************
 Molpro calculation terminated
 Variable memory released
