<?xml version="1.0"?>
<molpro xmlns="http://www.molpro.net/schema/molpro-output"
  xmlns:xsd="http://www.w3.org/1999/XMLSchema"
  xmlns:cml="http://www.xml-cml.org/schema"
  xmlns:stm="http://www.xml-cml.org/schema"
  xmlns:xhtml="http://www.w3.org/1999/xhtml">
 <!--

 Nodes     nprocs
 nid01039    11
 Number of processes for MPI-2 version of Molpro:   nprocs(total)=   12   nprocs(compute)=   11   nprocs(helper)=    1

 Using customized tuning parameters: mindgm=7; mindgv=16; mindgc=1; mindgr=1; noblas=0; minvec=7
 default implementation of scratch files=sf

 --><job>
  <!--

 Variables initialized (889), CPU time= 0.11 sec
 Commands  initialized (702), CPU time= 0.01 sec, 572 directives.
 Default parameters read. Elapsed time= 0.16 sec

 Checking input...
 Passed
1


                                         ***  PROGRAM SYSTEM MOLPRO  ***
                                       Copyright, TTI GmbH Stuttgart, 2015
                                    Version 2015.1 linked Dec 29 2018 15:55:43


 **********************************************************************************************************************************
 LABEL *   Calculation for Ir groundstate
  64 bit mpp version                                                                     DATE: 06-Jan-21          TIME: 20:23:02
 **********************************************************************************************************************************

 SHA1:             19cd028119e0e09f93f0674bd8af7968d9b3eff6
 **********************************************************************************************************************************
  -->
  <!--

 THRESHOLDS:

 ZERO    =  1.00D-12  ONEINT  =  1.00D-12  TWOINT  =  1.00D-15  PREFAC  =  1.00D-14  LOCALI  =  1.00D-09  EORDER  =  1.00D-04
 ENERGY  =  0.00D+00  ETEST   =  0.00D+00  EDENS   =  0.00D+00  THRDEDEF=  1.00D-06  GRADIENT=  1.00D-02  STEP    =  1.00D-03
 ORBITAL =  1.00D-05  CIVEC   =  1.00D-05  COEFF   =  1.00D-04  PRINTCI =  5.00D-02  PUNCHCI =  9.90D+01  OPTGRAD =  3.00D-04
 OPTENERG=  1.00D-06  OPTSTEP =  3.00D-04  THRGRAD =  1.00D-10  COMPRESS=  1.00D-11  VARMIN  =  1.00D-07  VARMAX  =  1.00D-03
 THRDOUB =  0.00D+00  THRDIV  =  1.00D-05  THRRED  =  1.00D-07  THRPSP  =  1.00D+00  THRDC   =  1.00D-10  THRCS   =  1.00D-10
 THRNRM  =  1.00D-08  THREQ   =  0.00D+00  THRDE   =  1.00D+00  THRREF  =  1.00D-05  SPARFAC =  1.00D+00  THRDLP  =  1.00D-07
 THRDIA  =  1.00D-10  THRDLS  =  1.00D-07  THRGPS  =  0.00D+00  THRKEX  =  0.00D+00  THRDIS  =  2.00D-01  THRVAR  =  1.00D-10
 THRLOC  =  1.00D-06  THRGAP  =  1.00D-06  THRLOCT = -1.00D+00  THRGAPT = -1.00D+00  THRORB  =  1.00D-06  THRMLTP =  0.00D+00
 THRCPQCI=  1.00D-10  KEXTA   =  0.00D+00  THRCOARS=  0.00D+00  SYMTOL  =  1.00D-06  GRADTOL =  1.00D-06  THROVL  =  1.00D-08
 THRORTH =  1.00D-08  GRID    =  1.00D-06  GRIDMAX =  1.00D-03  DTMAX   =  0.00D+00  THROCCDE=  1.00D-01  THROCCDE=  1.00D-01



 THRESHOLDS:

 ZERO    =  1.00D-12  ONEINT  =  1.00D-12  TWOINT  =  1.00D-15  PREFAC  =  1.00D-14  LOCALI  =  1.00D-09  EORDER  =  1.00D-04
 ENERGY  =  0.00D+00  ETEST   =  0.00D+00  EDENS   =  0.00D+00  THRDEDEF=  1.00D-06  GRADIENT=  1.00D-02  STEP    =  1.00D-03
 ORBITAL =  1.00D-05  CIVEC   =  1.00D-05  COEFF   =  1.00D-04  PRINTCI =  5.00D-02  PUNCHCI =  9.90D+01  OPTGRAD =  3.00D-04
 OPTENERG=  1.00D-06  OPTSTEP =  3.00D-04  THRGRAD =  1.00D-10  COMPRESS=  1.00D-11  VARMIN  =  1.00D-07  VARMAX  =  1.00D-03
 THRDOUB =  0.00D+00  THRDIV  =  1.00D-05  THRRED  =  1.00D-07  THRPSP  =  1.00D+00  THRDC   =  1.00D-10  THRCS   =  1.00D-10
 THRNRM  =  1.00D-08  THREQ   =  0.00D+00  THRDE   =  1.00D+00  THRREF  =  1.00D-05  SPARFAC =  1.00D+00  THRDLP  =  1.00D-07
 THRDIA  =  1.00D-10  THRDLS  =  1.00D-07  THRGPS  =  0.00D+00  THRKEX  =  0.00D+00  THRDIS  =  2.00D-01  THRVAR  =  1.00D-10
 THRLOC  =  1.00D-06  THRGAP  =  1.00D-06  THRLOCT = -1.00D+00  THRGAPT = -1.00D+00  THRORB  =  1.00D-06  THRMLTP =  0.00D+00
 THRCPQCI=  1.00D-10  KEXTA   =  0.00D+00  THRCOARS=  0.00D+00  SYMTOL  =  1.00D-06  GRADTOL =  1.00D-06  THROVL  =  1.00D-15
 THRORTH =  1.00D-08  GRID    =  1.00D-06  GRIDMAX =  1.00D-03  DTMAX   =  0.00D+00  THROCCDE=  1.00D-01  THROCCDE=  1.00D-01


 SETTING DKROLL         =         1.00000000
 SETTING DKHO           =        10.00000000
 SETTING DKHP           =         4.00000000

Geometry recognized as XYZ


 DO I                   =        14.00000000

 Variable memory set to 1024000000 words,  buffer space   230000 words


 Running procedure=X
 SETTING BASIS          =    USERDEF
  --><jobstep command="RHF-SCF" commandset="SCFPRO">
   <!--


 Recomputing integrals since basis changed


 Using spherical harmonics



 PROGRAM * SEWARD (Integral evaluation for generally contracted gaussian basis sets)     Author: Roland Lindh, 1990

 Geometry written to block  1 of record 700

 Orientation using atomic masses
 Molecule type: Atom
 Symmetry elements: X,Y,Z
 Rotational constants:       0.0000000      0.0000000      0.0000000 GHz  (calculated with average atomic masses)

 Point group  D2h


   --><cml:molecule>
    <cml:symmetry pointGroup="D2h"/>
    <cml:atomArray>
     <cml:atom id="a1" elementType="Ir" x3="0.0" y3="0.0" z3="0.0"/>
    </cml:atomArray>
    <cml:bondArray>
    </cml:bondArray>
   </cml:molecule><!--

 ATOMIC COORDINATES

 NR  ATOM    CHARGE       X              Y              Z

   1  IR     77.00    0.000000000    0.000000000    0.000000000

 NUCLEAR CHARGE:                   77
 NUMBER OF PRIMITIVE AOS:         420
 NUMBER OF SYMMETRY AOS:          345
 NUMBER OF CONTRACTIONS:          127   (  33Ag  +  18B3u +  18B2u +  12B1g +  18B1u +  12B2g +  12B3g +   4Au  )
 NUMBER OF CORE ORBITALS:          34   (   9Ag  +   6B3u +   6B2u +   2B1g +   6B1u +   2B2g +   2B3g +   1Au  )
 NUMBER OF VALENCE ORBITALS:        6   (   3Ag  +   0B3u +   0B2u +   1B1g +   0B1u +   1B2g +   1B3g +   0Au  )


 NUCLEAR REPULSION ENERGY    0.00000000

 One-electron integrals computed with SEWARD

 10nd-order Douglas-Kroll-Hess method activated. McWeeny DKH parametrization is used.

 Computing Douglas-Kroll / X2C integrals

 AO integral compression algorithm  1   Integral accuracy      1.0D-15

     53.477 MB (compressed) written to integral file ( 80.4%)

     Node minimum: 2.884 MB, node maximum: 7.602 MB


 NUMBER OF SORTED TWO-ELECTRON INTEGRALS:     383872.     BUFFER LENGTH:  32768
 NUMBER OF SEGMENTS:   1  SEGMENT LENGTH:     383872      RECORD LENGTH: 524288

 Memory used in sort:       0.94 MW

 SORT1 READ     8222235. AND WROTE      294047. INTEGRALS IN      1 RECORDS. CPU TIME:     0.30 SEC, REAL TIME:     0.42 SEC
 SORT2 READ     3322214. AND WROTE     4351165. INTEGRALS IN    253 RECORDS. CPU TIME:     0.02 SEC, REAL TIME:     0.03 SEC

 Node minimum:      383518.  Node maximum:      414529. integrals

 OPERATOR DM      FOR CENTER  0  COORDINATES:    0.000000    0.000000    0.000000

 EXTRA SYMMETRY OF AOS IN SYMMETRY 1:   1 1 1 1 1 1 1 1 1 1   1 2 3 2 3 2 3 2 3 2   3 2 3 2 3 2 3 4 5 6   4 5 6
 EXTRA SYMMETRY OF AOS IN SYMMETRY 2:   1 1 1 1 1 1 1 1 1 1   2 3 2 3 2 3 2 3
 EXTRA SYMMETRY OF AOS IN SYMMETRY 3:   1 1 1 1 1 1 1 1 1 1   2 3 2 3 2 3 2 3
 EXTRA SYMMETRY OF AOS IN SYMMETRY 4:   1 1 1 1 1 1 1 1 2 3   2 3
 EXTRA SYMMETRY OF AOS IN SYMMETRY 5:   1 1 1 1 1 1 1 1 1 1   2 3 2 3 2 3 2 3
 EXTRA SYMMETRY OF AOS IN SYMMETRY 6:   1 1 1 1 1 1 1 1 2 3   2 3
 EXTRA SYMMETRY OF AOS IN SYMMETRY 7:   1 1 1 1 1 1 1 1 2 3   2 3

 Eigenvalues of metric

         1 0.703E-04 0.234E-02 0.234E-02 0.343E-02 0.111E-01 0.339E-01 0.339E-01 0.990E-01
         2 0.318E-03 0.246E-02 0.383E-01 0.122E+00 0.122E+00 0.306E+00 0.479E+00 0.479E+00
         3 0.318E-03 0.246E-02 0.383E-01 0.122E+00 0.122E+00 0.306E+00 0.479E+00 0.479E+00
         4 0.234E-02 0.339E-01 0.990E-01 0.321E+00 0.321E+00 0.999E+00 0.100E+01 0.149E+01
         5 0.318E-03 0.246E-02 0.383E-01 0.122E+00 0.122E+00 0.306E+00 0.479E+00 0.479E+00
         6 0.234E-02 0.339E-01 0.990E-01 0.321E+00 0.321E+00 0.999E+00 0.100E+01 0.149E+01
         7 0.234E-02 0.339E-01 0.990E-01 0.321E+00 0.321E+00 0.999E+00 0.100E+01 0.149E+01
         8 0.122E+00 0.479E+00 0.103E+01 0.237E+01


 **********************************************************************************************************************************
 DATASETS  * FILE   NREC   LENGTH (MB)   RECORD NAMES
              1      22       20.45       500      610      700      900      950      970     1000      129      960     1700
                                          VAR    BASINP    GEOM    SYMINP    ZMAT    AOBASIS   BASIS     P2S    ABASIS    OPER
                                         1101     1401     1411     1412     1650     1100     1400     1410     1200     1210
                                          SR      EKINR    POTR     PVPR    MOLCAS      S      EKIN      POT      H0       H01
                                         1080     1600
                                         AOSYM     SMH

 PROGRAMS   *        TOTAL       INT
 CPU TIMES  *        15.00     14.24
 REAL TIME  *        21.42 SEC
 DISK USED  *        77.28 MB
 GA USED    *         0.00 MB       (max)       0.00 MB       (current)
 **********************************************************************************************************************************


 PROGRAM * RHF-SCF (CLOSED SHELL)       Authors: W. Meyer, H.-J. Werner


 NUMBER OF ELECTRONS:      34+   34-    SPACE SYMMETRY=1    SPIN SYMMETRY: Singlet
 CONVERGENCE THRESHOLDS:    1.00E-05 (Density)    1.54E-07 (Energy)
 MAX. NUMBER OF ITERATIONS:       60
 INTERPOLATION TYPE:            DIIS
 INTERPOLATION STEPS:              2 (START)      1 (STEP)
 LEVEL SHIFTS:                  0.00 (CLOSED)  0.00 (OPEN)

 Number of closed-shell orbitals:   34 (   9   6   6   2   6   2   2   1 )



 Extra symmetries of mos in symmetry 1:   1   1   1   3   2   1   3   2   1
 Orbital guess generated from atomic densities. Full valence occupancy:   12   6   6   3   6   3   3   1


 Molecular orbital dump at record        4202.2

 ITERATION    DDIFF          GRAD             ENERGY        2-EL.EN.            DIPOLE MOMENTS         DIIS   ORB.
    1      0.000D+00      0.000D+00    -17806.26304289  12376.428801    0.00000    0.00000    0.00000    0    start
    2      0.000D+00      0.868D-01    -17807.06816285  12579.225662    0.00000    0.00000    0.00000    1    diag
    3      0.278D-01      0.619D-01    -17807.23934490  12507.722403    0.00000    0.00000    0.00000    2    diag
    4      0.149D-01      0.327D-02    -17807.24005476  12507.861438    0.00000    0.00000    0.00000    3    diag
    5      0.626D-02      0.766D-03    -17807.24008438  12508.721138    0.00000    0.00000    0.00000    4    diag
    6      0.408D-03      0.205D-04    -17807.24008442  12508.736156    0.00000    0.00000    0.00000    5    diag
    7      0.105D-04      0.182D-05    -17807.24008442  12508.737642    0.00000    0.00000    0.00000    6    diag
    8      0.121D-05      0.337D-07    -17807.24008442  12508.737653    0.00000    0.00000    0.00000    0    orth

 Final occupancy:   9   6   6   2   6   2   2   1

 !RHF STATE 1.1 Energy               -17807.2400844224
   --><property name="Energy" method="RHF" principal="true" stateSymmetry="1" stateNumber="1"
     value="-17807.2400844224"/><!--
 Nuclear energy                         0.00000000
 One-electron energy               -24061.60891070
 Two-electron energy                 6254.36882627
 Virial quotient                       -0.68140209
 !RHF STATE 1.1 Dipole moment           0.00000000     0.00000000     0.00000000
 Dipole moment /Debye                   0.00000000     0.00000000     0.00000000
   --><property name="Dipole moment" method="RHF" principal="true" stateSymmetry="1"
     stateNumber="1" value="0.0 0.0 0.0"/><!--

 ELECTRON ORBITALS
 =================


   Orb  Occ    Energy  Couls-En    Coefficients

                                   1 1s      1 1s      1 1s      1 1s      1 1s      1 1s      1 1s      1 1s      1 1s      1 1s
                                   1 1s      1 3d0     1 3d2+    1 3d0     1 3d2+    1 3d0     1 3d2+    1 3d0     1 3d2+    1 3d0
                                   1 3d2+    1 3d0     1 3d2+    1 3d0     1 3d2+    1 3d0     1 3d2+    1 5g0     1 5g4+    1 5g2+
                                   1 5g0     1 5g4+    1 5g2+

   1.1   2 -2818.6365-6063.0859  0.994264 -0.104038 -0.024671  0.001817  0.002251  0.000605 -0.000034  0.000302 -0.000626  0.001105
                                -0.002824 -0.000000 -0.000000 -0.000000 -0.000000  0.000000 -0.000000 -0.000000  0.000000 -0.000000
                                 0.000000  0.000000 -0.000000  0.000000  0.000000 -0.000000  0.000000  0.000000 -0.000000 -0.000000
                                -0.000000  0.000000  0.000000

   2.1   2  -502.8539-1329.0147  0.100961  0.989495 -0.103147  0.005244 -0.004770 -0.001232  0.000072 -0.000617  0.001280 -0.002123
                                 0.005919  0.000000 -0.000000 -0.000000  0.000000 -0.000000  0.000000  0.000000 -0.000000 -0.000000
                                -0.000000  0.000000  0.000000  0.000000 -0.000000  0.000000 -0.000000 -0.000000  0.000000  0.000000
                                 0.000000 -0.000000 -0.000000

   3.1   2  -124.0678 -473.6690  0.035194  0.099609  0.988244 -0.110187  0.008950  0.002327 -0.000131  0.001158 -0.002407  0.004740
                                -0.010608  0.000000 -0.000000  0.000000  0.000000  0.000000  0.000000 -0.000000 -0.000000  0.000000
                                 0.000000 -0.000000 -0.000000 -0.000000 -0.000000 -0.000000 -0.000000 -0.000000 -0.000000 -0.000000
                                -0.000000  0.000000  0.000000

   4.1   2   -83.1663 -402.0263 -0.000000 -0.000000 -0.000000 -0.000000 -0.000000 -0.000000  0.000000 -0.000000  0.000000 -0.000000
                                 0.000000 -0.014172  0.999760  0.000146 -0.010294  0.000005 -0.000354 -0.000003  0.000192  0.000001
                                -0.000080 -0.000000  0.000006 -0.000006  0.000430 -0.000006  0.000398  0.000000  0.000000  0.000000
                                -0.000000 -0.000000 -0.000000

   5.1   2   -83.1663 -402.0263  0.000000  0.000000  0.000000  0.000000  0.000000  0.000000 -0.000000  0.000000 -0.000000 -0.000000
                                -0.000000  0.999760  0.014172 -0.010294 -0.000146 -0.000354 -0.000005  0.000192  0.000003 -0.000080
                                -0.000001  0.000006  0.000000  0.000430  0.000006  0.000398  0.000006 -0.000000 -0.000000  0.000000
                                 0.000000  0.000000 -0.000000

   6.1   2   -31.8593 -207.6587  0.002506  0.005315  0.114123  0.991689 -0.014776 -0.004053  0.000233 -0.001988  0.004178 -0.010389
                                 0.016775 -0.000000 -0.000000 -0.000000 -0.000000 -0.000000 -0.000000  0.000000  0.000000 -0.000000
                                -0.000000  0.000000  0.000000  0.000000  0.000000  0.000000  0.000000 -0.000000  0.000000  0.000000
                                 0.000000 -0.000000 -0.000000

   7.1   2   -17.2992 -169.3818 -0.000000 -0.000000 -0.000000  0.000000  0.000000 -0.000000  0.000000 -0.000000  0.000000  0.000000
                                -0.000000  0.000007  0.009918  0.000749  1.001511  0.000001  0.001443 -0.000001 -0.001138  0.000000
                                 0.000455  0.000000  0.000014 -0.000000 -0.000018 -0.000004 -0.004750 -0.000000 -0.000000  0.000000
                                 0.000000  0.000000 -0.000000

   8.1   2   -17.2992 -169.3818 -0.000000 -0.000000 -0.000000 -0.000000  0.000000  0.000000 -0.000000  0.000000 -0.000000  0.000000
                                -0.000000  0.009918 -0.000007  1.001511 -0.000749  0.001443 -0.000001 -0.001138  0.000001  0.000455
                                -0.000000  0.000014 -0.000000 -0.000018  0.000000 -0.004750  0.000004 -0.000000 -0.000000 -0.000000
                                 0.000000  0.000000  0.000000

   9.1   2    -9.2063  -95.8554 -0.001399 -0.004328 -0.015398 -0.029169  0.939446 -0.081129 -0.045071 -0.031582  0.032946 -0.007702
                                 0.064273 -0.000000  0.000000 -0.000000  0.000000 -0.000000  0.000000  0.000000  0.000000 -0.000000
                                 0.000000  0.000000 -0.000000  0.000000 -0.000000  0.000000 -0.000000  0.000000 -0.000000  0.000000
                                 0.000000 -0.000000 -0.000000

  10.1   0    -4.4172  -68.4261  0.000000  0.000000  0.000000  0.000000  0.000000  0.000000  0.000000  0.000000 -0.000000 -0.000000
                                -0.000000 -0.002316 -0.000000 -0.025530 -0.000003  0.842595  0.000099 -0.350761 -0.000041  0.046722
                                 0.000005  0.038887  0.000005 -0.000274 -0.000000  0.086415  0.000010  0.000000  0.000000 -0.000000
                                 0.000000  0.000000 -0.000000

  11.1   0    -4.4172  -68.4261 -0.000000 -0.000000 -0.000000 -0.000000 -0.000000 -0.000000 -0.000000 -0.000000  0.000000 -0.000000
                                 0.000000  0.000000 -0.002316  0.000003 -0.025530 -0.000099  0.842595  0.000041 -0.350761 -0.000005
                                 0.046722 -0.000005  0.038887  0.000000 -0.000274 -0.000010  0.086415 -0.000000 -0.000000 -0.000000
                                -0.000000 -0.000000 -0.000000

                                   1 2px     1 2px     1 2px     1 2px     1 2px     1 2px     1 2px     1 2px     1 2px     1 2px
                                   1 4f1+    1 4f3+    1 4f1+    1 4f3+    1 4f1+    1 4f3+    1 4f1+    1 4f3+

   1.2   2  -438.9074-1213.0043  1.000008  0.000250  0.000045  0.000284 -0.000007 -0.000032 -0.000021  0.000000 -0.000151 -0.000263
                                 0.000000  0.000000 -0.000000 -0.000000  0.000000  0.000000 -0.000000 -0.000000

   2.2   2  -104.9830 -436.9393 -0.000252  0.999296 -0.016681 -0.002450  0.000052  0.000260  0.000174 -0.000002  0.001289  0.002137
                                 0.000000  0.000000 -0.000000 -0.000000  0.000000  0.000000 -0.000000 -0.000000

   3.2   2   -25.4634 -190.4502  0.000429  0.016699  1.006892  0.021832  0.000197 -0.001181 -0.000487 -0.000109 -0.003904 -0.008758
                                -0.000000 -0.000000  0.000000  0.000000 -0.000000 -0.000000  0.000000  0.000000

   4.2   2    -8.2337 -143.2573 -0.000000 -0.000000  0.000000  0.000000 -0.000000  0.000000 -0.000000  0.000000  0.000000 -0.000000
                                 1.001533 -0.118026 -0.003482  0.000410 -0.018006  0.002122 -0.006217  0.000733

   5.2   2    -8.2337 -143.2573 -0.000000 -0.000000  0.000000  0.000000 -0.000000  0.000000 -0.000000  0.000000  0.000000 -0.000000
                                 0.118026  1.001533 -0.000410 -0.003482 -0.002122 -0.018006 -0.000733 -0.006217

   6.2   2    -7.2623  -85.6444  0.000120  0.001000 -0.008597  0.996581 -0.112623 -0.027483 -0.090578  0.029751 -0.001497 -0.006957
                                 0.000000  0.000000 -0.000000 -0.000000 -0.000000 -0.000000 -0.000000 -0.000000

   7.2   0    -3.0429  -42.9944  0.005174  0.047639  0.195017  0.468817 -0.299761  1.126663  0.237308  0.093690 -0.037145 -0.380669
                                 0.000000  0.000000  0.000000  0.000000  0.000000  0.000000  0.000000  0.000000

   8.2   0    -2.5481  -45.9616  0.000000  0.000000 -0.000000  0.000000  0.000000 -0.000000  0.000000 -0.000000 -0.000000  0.000000
                                -0.239926 -0.068582  0.114233  0.032653  0.368103  0.105221  0.666294  0.190457

                                   1 2py     1 2py     1 2py     1 2py     1 2py     1 2py     1 2py     1 2py     1 2py     1 2py
                                   1 4f1-    1 4f3-    1 4f1-    1 4f3-    1 4f1-    1 4f3-    1 4f1-    1 4f3-

   1.3   2  -438.9074-1213.0043  1.000008  0.000250  0.000045  0.000284 -0.000007 -0.000032 -0.000021  0.000000 -0.000151 -0.000263
                                 0.000000 -0.000000 -0.000000  0.000000  0.000000 -0.000000 -0.000000  0.000000

   2.3   2  -104.9830 -436.9393 -0.000252  0.999296 -0.016681 -0.002450  0.000052  0.000260  0.000174 -0.000002  0.001289  0.002137
                                 0.000000 -0.000000 -0.000000  0.000000  0.000000 -0.000000 -0.000000  0.000000

   3.3   2   -25.4634 -190.4502  0.000429  0.016699  1.006892  0.021832  0.000197 -0.001181 -0.000487 -0.000109 -0.003904 -0.008758
                                -0.000000  0.000000  0.000000 -0.000000 -0.000000  0.000000  0.000000 -0.000000

   4.3   2    -8.2337 -143.2573 -0.000000 -0.000000  0.000000  0.000000 -0.000000  0.000000 -0.000000  0.000000  0.000000 -0.000000
                                 1.001567  0.117734 -0.003482 -0.000409 -0.018007 -0.002117 -0.006217 -0.000731

   5.3   2    -8.2337 -143.2573  0.000000  0.000000 -0.000000 -0.000000  0.000000 -0.000000  0.000000 -0.000000 -0.000000  0.000000
                                -0.117734  1.001567  0.000409 -0.003482  0.002117 -0.018007  0.000731 -0.006217

   6.3   2    -7.2623  -85.6444  0.000120  0.001000 -0.008597  0.996581 -0.112623 -0.027483 -0.090578  0.029751 -0.001497 -0.006957
                                 0.000000 -0.000000 -0.000000  0.000000 -0.000000  0.000000 -0.000000  0.000000

   7.3   0    -3.0429  -42.9944  0.005174  0.047639  0.195017  0.468817 -0.299761  1.126663  0.237308  0.093690 -0.037145 -0.380669
                                 0.000000 -0.000000  0.000000 -0.000000  0.000000 -0.000000  0.000000 -0.000000

   8.3   0    -2.5481  -45.9616  0.000000  0.000000 -0.000000  0.000000  0.000000 -0.000000  0.000000 -0.000000 -0.000000  0.000000
                                -0.239908  0.068644  0.114225 -0.032683  0.368076 -0.105316  0.666245 -0.190630

                                   1 3d2-    1 3d2-    1 3d2-    1 3d2-    1 3d2-    1 3d2-    1 3d2-    1 3d2-    1 5g2-    1 5g4-
                                   1 5g2-    1 5g4-

   1.4   2   -83.1663 -402.0263  0.999860 -0.010295 -0.000354  0.000192 -0.000080  0.000006  0.000430  0.000398  0.000000  0.000000
                                -0.000000 -0.000000

   2.4   2   -17.2992 -169.3818  0.009918  1.001511  0.001443 -0.001138  0.000455  0.000014 -0.000018 -0.004750  0.000000 -0.000000
                                -0.000000  0.000000

   3.4   0    -4.4172  -68.4261 -0.002316 -0.025530  0.842595 -0.350761  0.046722  0.038887 -0.000274  0.086415 -0.000000 -0.000000
                                -0.000000 -0.000000

   4.4   0    -2.3323  -36.2341  0.012093  0.124499  0.763237  0.963065 -0.112404 -0.325368 -0.015941 -0.331926 -0.000000  0.000000
                                 0.000000  0.000000

                                   1 2pz     1 2pz     1 2pz     1 2pz     1 2pz     1 2pz     1 2pz     1 2pz     1 2pz     1 2pz
                                   1 4f0     1 4f2+    1 4f0     1 4f2+    1 4f0     1 4f2+    1 4f0     1 4f2+

   1.5   2  -438.9074-1213.0043  1.000008  0.000250  0.000045  0.000284 -0.000007 -0.000032 -0.000021  0.000000 -0.000151 -0.000263
                                -0.000000  0.000000  0.000000 -0.000000 -0.000000  0.000000  0.000000 -0.000000

   2.5   2  -104.9830 -436.9393 -0.000252  0.999296 -0.016681 -0.002450  0.000052  0.000260  0.000174 -0.000002  0.001289  0.002137
                                -0.000000  0.000000  0.000000 -0.000000 -0.000000  0.000000  0.000000 -0.000000

   3.5   2   -25.4634 -190.4502  0.000429  0.016699  1.006892  0.021832  0.000197 -0.001181 -0.000487 -0.000109 -0.003904 -0.008758
                                 0.000000  0.000000 -0.000000 -0.000000  0.000000  0.000000 -0.000000 -0.000000

   4.5   2    -8.2337 -143.2573 -0.000000 -0.000000  0.000000  0.000000 -0.000000  0.000000 -0.000000  0.000000  0.000000 -0.000000
                                -0.002596  1.008460  0.000009 -0.003506  0.000047 -0.018131  0.000016 -0.006260

   5.5   2    -8.2337 -143.2573  0.000000  0.000000 -0.000000 -0.000000  0.000000 -0.000000  0.000000 -0.000000 -0.000000  0.000000
                                 1.008460  0.002596 -0.003506 -0.000009 -0.018131 -0.000047 -0.006260 -0.000016

   6.5   2    -7.2623  -85.6444  0.000120  0.001000 -0.008597  0.996581 -0.112623 -0.027483 -0.090578  0.029751 -0.001497 -0.006957
                                -0.000000  0.000000  0.000000 -0.000000  0.000000 -0.000000  0.000000 -0.000000

   7.5   0    -3.0429  -42.9944  0.005174  0.047639  0.195017  0.468817 -0.299761  1.126663  0.237308  0.093690 -0.037145 -0.380669
                                -0.000000  0.000000 -0.000000  0.000000 -0.000000 -0.000000 -0.000000  0.000000

   8.5   0    -2.5481  -45.9616 -0.000000 -0.000000  0.000000 -0.000000 -0.000000  0.000000  0.000000  0.000000  0.000000 -0.000000
                                -0.249535 -0.000192  0.118809  0.000091  0.382846  0.000295  0.692980  0.000534

                                   1 3d1+    1 3d1+    1 3d1+    1 3d1+    1 3d1+    1 3d1+    1 3d1+    1 3d1+    1 5g1+    1 5g3+
                                   1 5g1+    1 5g3+

   1.6   2   -83.1663 -402.0263  0.999860 -0.010295 -0.000354  0.000192 -0.000080  0.000006  0.000430  0.000398 -0.000000  0.000000
                                 0.000000 -0.000000

   2.6   2   -17.2992 -169.3818  0.009918  1.001511  0.001443 -0.001138  0.000455  0.000014 -0.000018 -0.004750 -0.000000  0.000000
                                 0.000000 -0.000000

   3.6   0    -4.4172  -68.4261 -0.002316 -0.025530  0.842595 -0.350761  0.046722  0.038887 -0.000274  0.086415  0.000000 -0.000000
                                 0.000000 -0.000000

   4.6   0    -2.3323  -36.2341  0.012093  0.124499  0.763237  0.963065 -0.112404 -0.325368 -0.015941 -0.331926  0.000000 -0.000000
                                -0.000000  0.000000

                                   1 3d1-    1 3d1-    1 3d1-    1 3d1-    1 3d1-    1 3d1-    1 3d1-    1 3d1-    1 5g1-    1 5g3-
                                   1 5g1-    1 5g3-

   1.7   2   -83.1663 -402.0263  0.999860 -0.010295 -0.000354  0.000192 -0.000080  0.000006  0.000430  0.000398 -0.000000 -0.000000
                                 0.000000  0.000000

   2.7   2   -17.2992 -169.3818  0.009918  1.001511  0.001443 -0.001138  0.000455  0.000014 -0.000018 -0.004750 -0.000000 -0.000000
                                 0.000000  0.000000

   3.7   0    -4.4172  -68.4261 -0.002316 -0.025530  0.842595 -0.350761  0.046722  0.038887 -0.000274  0.086415  0.000000  0.000000
                                 0.000000  0.000000

   4.7   0    -2.3323  -36.2341  0.012093  0.124499  0.763237  0.963065 -0.112404 -0.325368 -0.015941 -0.331926  0.000000  0.000000
                                -0.000000 -0.000000

                                   1 4f2-    1 4f2-    1 4f2-    1 4f2-

   1.8   2    -8.2337 -143.2573  1.008463 -0.003506 -0.018131 -0.006260

   2.8   0    -2.5481  -45.9616 -0.249535  0.118809  0.382846  0.692980

   3.8   0    -1.0010  -46.6754 -0.326830  0.107383  1.169914 -1.065272

 HOMO      6.5    -7.262306 =    -197.6174eV
 LUMO     10.1    -4.417162 =    -120.1971eV
 LUMO-HOMO         2.845144 =      77.4203eV


 **********************************************************************************************************************************
 DATASETS  * FILE   NREC   LENGTH (MB)   RECORD NAMES
              1      22       20.45       500      610      700      900      950      970     1000      129      960     1700
                                          VAR    BASINP    GEOM    SYMINP    ZMAT    AOBASIS   BASIS     P2S    ABASIS    OPER
                                         1101     1401     1411     1412     1650     1100     1400     1410     1200     1210
                                          SR      EKINR    POTR     PVPR    MOLCAS      S      EKIN      POT      H0       H01
                                         1080     1600
                                         AOSYM     SMH

              2       5        5.43       200      700     1000      520     4202
                                        OPTIONS   GEOM     BASIS   MCVARS     RHF

 PROGRAMS   *        TOTAL       RHF       INT
 CPU TIMES  *        15.14      0.14     14.24
 REAL TIME  *        21.61 SEC
 DISK USED  *       364.61 MB
 SF USED    *         0.01 MB
 GA USED    *         0.00 MB       (max)       0.00 MB       (current)
 **********************************************************************************************************************************
   -->
   <time start="20:23:06" end="20:23:23" cpu="15.14" system="0.87" real="21.61"/>
   <storage units="megabyte" memory="8193.84" sf="0.01" df="287.33" eaf="77.28" ga="0.0"/>
  </jobstep><!--
 SETTING BASIS          =    USERDEF
  --><jobstep command="RHF-SCF" commandset="SCFPRO">
   <!--


 Recomputing integrals since basis changed


 Using spherical harmonics



 PROGRAM * SEWARD (Integral evaluation for generally contracted gaussian basis sets)     Author: Roland Lindh, 1990

 Geometry written to block  1 of record 700

 Orientation using atomic masses
 Molecule type: Atom
 Symmetry elements: X,Y,Z
 Rotational constants:       0.0000000      0.0000000      0.0000000 GHz  (calculated with average atomic masses)

 Point group  D2h



 ATOMIC COORDINATES

 NR  ATOM    CHARGE       X              Y              Z

   1  IR     77.00    0.000000000    0.000000000    0.000000000

 NUCLEAR CHARGE:                   77
 NUMBER OF PRIMITIVE AOS:         508
 NUMBER OF SYMMETRY AOS:          416
 NUMBER OF CONTRACTIONS:          416   ( 100Ag  +  68B3u +  68B2u +  32B1g +  68B1u +  32B2g +  32B3g +  16Au  )
 NUMBER OF CORE ORBITALS:          34   (   9Ag  +   6B3u +   6B2u +   2B1g +   6B1u +   2B2g +   2B3g +   1Au  )
 NUMBER OF VALENCE ORBITALS:        6   (   3Ag  +   0B3u +   0B2u +   1B1g +   0B1u +   1B2g +   1B3g +   0Au  )


 NUCLEAR REPULSION ENERGY    0.00000000

 One-electron integrals computed with SEWARD

 10nd-order Douglas-Kroll-Hess method activated. McWeeny DKH parametrization is used.

 Computing Douglas-Kroll / X2C integrals

 AO integral compression algorithm  1   Integral accuracy      1.0D-15

     3785.622 MB (compressed) written to integral file ( 47.3%)

     Node minimum: 182.977 MB, node maximum: 463.995 MB


 NUMBER OF SORTED TWO-ELECTRON INTEGRALS:   43961037.     BUFFER LENGTH:  32768
 NUMBER OF SEGMENTS:   2  SEGMENT LENGTH:   31987005      RECORD LENGTH: 524288

 Memory used in sort:      32.54 MW

 SORT1 READ  1000561018. AND WROTE    28476152. INTEGRALS IN     82 RECORDS. CPU TIME:    30.14 SEC, REAL TIME:    33.95 SEC
 SORT2 READ   309298234. AND WROTE   485200232. INTEGRALS IN  17413 RECORDS. CPU TIME:     4.35 SEC, REAL TIME:     5.30 SEC

 Node minimum:    43961037.  Node maximum:    44229242. integrals

 OPERATOR DM      FOR CENTER  0  COORDINATES:    0.000000    0.000000    0.000000

 EXTRA SYMMETRY OF AOS IN SYMMETRY 1:   1 1 1 1 1 1 1 1 1 1   1 1 1 1 1 1 1 1 1 1   1 1 1 1 1 1 1 1 1 1   1 1 1 1 1 1 1 1 1 1
                                        1 1 1 1 1 1 1 1 1 1   1 1 1 1 1 1 1 1 1 1   1 1 1 1 1 1 1 1 1 1   1 1 1 1 1 1 1 1 1 1
                                        1 1 1 1 1 1 1 1 1 1   1 2 3 4 2 3 4 2 3 4
 EXTRA SYMMETRY OF AOS IN SYMMETRY 2:   1 1 1 1 1 1 1 1 1 1   1 1 1 1 1 1 1 1 1 1   1 1 1 1 1 1 1 1 1 1   1 1 1 1 1 1 2 3 2 3
                                        2 3 2 3 2 3 2 3 2 3   2 3 2 3 2 3 2 3 2 3   2 3 2 3 2 3 2 3
 EXTRA SYMMETRY OF AOS IN SYMMETRY 3:   1 1 1 1 1 1 1 1 1 1   1 1 1 1 1 1 1 1 1 1   1 1 1 1 1 1 1 1 1 1   1 1 1 1 1 1 2 3 2 3
                                        2 3 2 3 2 3 2 3 2 3   2 3 2 3 2 3 2 3 2 3   2 3 2 3 2 3 2 3
 EXTRA SYMMETRY OF AOS IN SYMMETRY 4:   1 1 1 1 1 1 1 1 1 1   1 1 1 1 1 1 1 1 1 1   1 1 1 1 1 1 2 3 2 3   2 3
 EXTRA SYMMETRY OF AOS IN SYMMETRY 5:   1 1 1 1 1 1 1 1 1 1   1 1 1 1 1 1 1 1 1 1   1 1 1 1 1 1 1 1 1 1   1 1 1 1 1 1 2 3 2 3
                                        2 3 2 3 2 3 2 3 2 3   2 3 2 3 2 3 2 3 2 3   2 3 2 3 2 3 2 3
 EXTRA SYMMETRY OF AOS IN SYMMETRY 6:   1 1 1 1 1 1 1 1 1 1   1 1 1 1 1 1 1 1 1 1   1 1 1 1 1 1 2 3 2 3   2 3
 EXTRA SYMMETRY OF AOS IN SYMMETRY 7:   1 1 1 1 1 1 1 1 1 1   1 1 1 1 1 1 1 1 1 1   1 1 1 1 1 1 2 3 2 3   2 3

 Eigenvalues of metric

         1 0.781E-08 0.710E-07 0.710E-07 0.111E-06 0.743E-06 0.743E-06 0.780E-06 0.174E-05
         2 0.846E-08 0.356E-06 0.185E-05 0.432E-05 0.279E-04 0.556E-04 0.556E-04 0.109E-03
         3 0.846E-08 0.356E-06 0.185E-05 0.432E-05 0.279E-04 0.556E-04 0.556E-04 0.109E-03
         4 0.710E-07 0.743E-06 0.614E-05 0.177E-04 0.148E-03 0.607E-03 0.207E-02 0.583E-02
         5 0.846E-08 0.356E-06 0.185E-05 0.432E-05 0.279E-04 0.556E-04 0.556E-04 0.109E-03
         6 0.710E-07 0.743E-06 0.614E-05 0.177E-04 0.148E-03 0.607E-03 0.207E-02 0.583E-02
         7 0.710E-07 0.743E-06 0.614E-05 0.177E-04 0.148E-03 0.607E-03 0.207E-02 0.583E-02
         8 0.556E-04 0.102E-02 0.570E-02 0.138E-01 0.356E-01 0.808E-01 0.141E+00 0.237E+00


 **********************************************************************************************************************************
 DATASETS  * FILE   NREC   LENGTH (MB)   RECORD NAMES
              1      22       21.88       500      610      700      900      950      970     1001      129      960     1700
                                          VAR    BASINP    GEOM    SYMINP    ZMAT    AOBASIS   BASIS     P2S    ABASIS    OPER
                                         1101     1401     1411     1412     1650     1100     1400     1410     1200     1210
                                          SR      EKINR    POTR     PVPR    MOLCAS      S      EKIN      POT      H0       H01
                                         1080     1600
                                         AOSYM     SMH

              2       6        5.55       200      700     1000      520     4202     1001
                                        OPTIONS   GEOM     BASIS   MCVARS     RHF     BASIS

 PROGRAMS   *        TOTAL       INT       RHF       INT
 CPU TIMES  *       526.58    511.40      0.14     14.24
 REAL TIME  *       548.23 SEC
 DISK USED  *         7.77 GB
 SF USED    *         0.01 MB
 GA USED    *         0.00 MB       (max)       0.00 MB       (current)
 **********************************************************************************************************************************


 PROGRAM * RHF-SCF (CLOSED SHELL)       Authors: W. Meyer, H.-J. Werner


 NUMBER OF ELECTRONS:      34+   34-    SPACE SYMMETRY=1    SPIN SYMMETRY: Singlet
 CONVERGENCE THRESHOLDS:    1.00E-05 (Density)    1.36E-07 (Energy)
 MAX. NUMBER OF ITERATIONS:       60
 INTERPOLATION TYPE:            DIIS
 INTERPOLATION STEPS:              2 (START)      1 (STEP)
 LEVEL SHIFTS:                  0.00 (CLOSED)  0.00 (OPEN)

 Number of closed-shell orbitals:   34 (   9   6   6   2   6   2   2   1 )



 Extra symmetries of mos in symmetry 1:   1   1   1   3   2   1   3   2   1
 Molecular orbitals read from record     4202.2  Type=RHF/CANONICAL (state 1.1)

 Present basis size:     100  68  68  32  68  32  32  16
 Previous basis size:     33  18  18  12  18  12  12   4
 Previous occupation:      9   6   6   2   6   2   2   1
 Previous closed-shells:   9   6   6   2   6   2   2   1
 Previous core-orbitals:   9   6   6   2   6   2   2   1
 Present occupation:       9   6   6   2   6   2   2   1
 Present closed-shells:    9   6   6   2   6   2   2   1
 Present core-orbitals:    9   6   6   2   6   2   2   1
 Wavefunction symmetry:    1   Singlet

 Orbital overlap <old|new>:  < 1.1| 1.1> = 1.000000   < 2.1| 2.1> = 1.000000   < 3.1| 3.1> = 1.000000   < 4.1| 4.1> = 1.000000
                             < 5.1| 5.1> = 1.000000   < 6.1| 6.1> = 1.000000   < 7.1| 7.1> = 1.000000   < 8.1| 8.1> = 1.000000
                             < 9.1| 9.1> = 1.000000   < 1.2| 1.2> = 1.000000   < 2.2| 2.2> = 1.000000   < 3.2| 3.2> = 1.000000
                             < 4.2| 4.2> = 1.000000   < 5.2| 5.2> = 1.000000   < 6.2| 6.2> = 1.000000   < 1.3| 1.3> = 1.000000
                             < 2.3| 2.3> = 1.000000   < 3.3| 3.3> = 1.000000   < 4.3| 4.3> = 1.000000   < 5.3| 5.3> = 1.000000
                             < 6.3| 6.3> = 1.000000   < 1.4| 1.4> = 1.000000   < 2.4| 2.4> = 1.000000   < 1.5| 1.5> = 1.000000
                             < 2.5| 2.5> = 1.000000   < 3.5| 3.5> = 1.000000   < 4.5| 4.5> = 1.000000   < 5.5| 5.5> = 1.000000
                             < 6.5| 6.5> = 1.000000   < 1.6| 1.6> = 1.000000   < 2.6| 2.6> = 1.000000   < 1.7| 1.7> = 1.000000
                             < 2.7| 2.7> = 1.000000   < 1.8| 1.8> = 1.000000

 Molecular orbital dump at record        2127.2

 ITERATION    DDIFF          GRAD             ENERGY        2-EL.EN.            DIPOLE MOMENTS         DIIS   ORB.
    1      0.000D+00      0.000D+00    -17630.48344949  11398.104947    0.00000    0.00000    0.00000    0    start
    2      0.000D+00      0.554D+00  39410641.03095409 452944.896093    0.00000    0.00000    0.00000    1    diag
    3      0.235D+01      0.925D+03  39410641.03262088 452944.881546    0.00000    0.00000    0.00000    2    diag
 ?TOTAL ENERGY UNREASONABLE, ETOT =         0.39411D+08, ENEST =          -0.11190D+05
   --><error/><!--
  --></jobstep><!--
  -->
  <input>
  <!--
 --></job><!--
--></molpro>
