
 Primary working directories    : /global/cscratch1/sd/bkincaid
 Secondary working directories  : /global/cscratch1/sd/bkincaid
 Wavefunction directory         : /global/homes/b/bkincaid/wfu/
 Main file repository           : /global/cscratch1/sd/bkincaid/

 SHA1      : 19cd028119e0e09f93f0674bd8af7968d9b3eff6
 NAME      : 2015.1.36
 ARCHNAME  : linux/x86_64
 FC        : /opt/cray/pe/craype/2.5.14/bin/ftn
 BLASLIB   : -L/opt/intel/compilers_and_libraries_2018.1.163/linux/mkl/lib/intel64 -Wl,-_start-group -lmkl_intel_ilp64 -lmkl_intel_thread -lmkl_core -Wl,-_end-group -liomp5
 id        : lbl

 Nodes     nprocs
 nid01086    23
 Number of processes for MPI-2 version of Molpro:   nprocs(total)=   24   nprocs(compute)=   23   nprocs(helper)=    1

 Using customized tuning parameters: mindgm=7; mindgv=16; mindgc=1; mindgr=1; noblas=0; minvec=7
 default implementation of scratch files=sf  

 ***,Calculation for Ag atom, singlet and triplet
 memory,512,m
 geometry={
 1
 Pd
 Pd  0.0 0.0 0.0
 }
 
 basis={
 Including file /global/u1/b/bkincaid/molpro/Pd/atoms/ecps/fbk1.1/basis/fbk1.1
 Including file /global/u1/b/bkincaid/molpro/Pd/atoms/ecps/fbk1.1/basis/aug-cc-pwCVTZ.basis
 }
 
 Including file /global/u1/b/bkincaid/molpro/Pd/atoms/ecps/fbk1.1/basis/states.proc
 
 do i=1,13
     if (i.eq.1) then
         Idten
     else if (i.eq.2) then
         EAs2d9
     else if (i.eq.3) then
         Is1d9
     else if (i.eq.4) then
         Is2d8
     else if (i.eq.5) then
         IId9
     else if (i.eq.6) then
         IIs1d8
     else if (i.eq.7) then
         IIId8
     else if (i.eq.8) then
         IVd7
     else if (i.eq.9) then
         Vd6
     else if (i.eq.10) then
         VId5
     else if (i.eq.11) then
         XIKr
     else if (i.eq.12) then
         XIVp3
     else if (i.eq.13) then
         XVIIs2
     endif
     scf(i)=energy
     _CC_NORM_MAX=2.0
    {rccsd(t),maxit=100;core}
     ccsd(i)=energy
 enddo
 
 table,scf,ccsd
 type,csv
 save

 Variables initialized (889), CPU time= 0.01 sec
 Commands  initialized (702), CPU time= 0.02 sec, 572 directives.
 Default parameters read. Elapsed time= 0.18 sec

 Checking input...
 Passed
1


                                         ***  PROGRAM SYSTEM MOLPRO  ***
                                       Copyright, TTI GmbH Stuttgart, 2015
                                    Version 2015.1 linked Dec 29 2018 15:55:43


 **********************************************************************************************************************************
 LABEL *   Calculation for Ag atom, singlet and triplet                                  
  64 bit mpp version                                                                     DATE: 02-Apr-21          TIME: 12:07:02  
 **********************************************************************************************************************************

 SHA1:             19cd028119e0e09f93f0674bd8af7968d9b3eff6
 **********************************************************************************************************************************

Geometry recognized as XYZ


 Variable memory set to  512000000 words,  buffer space   230000 words

 SETTING BASIS          =    USERDEF

 DO I                   =         1.00000000   

 Running procedure=IDTEN


 Recomputing integrals since basis changed


 Using spherical harmonics



 PROGRAM * SEWARD (Integral evaluation for generally contracted gaussian basis sets)     Author: Roland Lindh, 1990

 Geometry written to block  1 of record 700

 Orientation using atomic masses  
 Molecule type: Atom
 Symmetry elements: X,Y,Z
 Rotational constants:       0.0000000      0.0000000      0.0000000 GHz  (calculated with average atomic masses)

 Point group  D2h 



 ATOMIC COORDINATES

 NR  ATOM    CHARGE       X              Y              Z

   1  PD     18.00    0.000000000    0.000000000    0.000000000

 NUCLEAR CHARGE:                   18
 NUMBER OF PRIMITIVE AOS:         289
 NUMBER OF SYMMETRY AOS:          242
 NUMBER OF CONTRACTIONS:          242   (  73Ag  +  32B3u +  32B2u +  23B1g +  32B1u +  23B2g +  23B3g +   4Au  )
 NUMBER OF CORE ORBITALS:           4   (   1Ag  +   1B3u +   1B2u +   0B1g +   1B1u +   0B2g +   0B3g +   0Au  )
 NUMBER OF VALENCE ORBITALS:        6   (   3Ag  +   0B3u +   0B2u +   1B1g +   0B1u +   1B2g +   1B3g +   0Au  )


 NUCLEAR REPULSION ENERGY    0.00000000

 EXTRA SYMMETRY OF AOS IN SYMMETRY 1:   1 1 1 1 1 1 1 1 1 1   1 1 1 1 1 1 1 1 1 1   1 1 1 1 1 1 1 1 1 1   2 3 2 3 2 3 2 3 2 3
                                        2 3 2 3 2 3 2 3 2 3   2 3 2 3 2 3 2 3 2 3   2 3 2 3 4 5 6 4 5 6   4 5 6
 EXTRA SYMMETRY OF AOS IN SYMMETRY 2:   1 1 1 1 1 1 1 1 1 1   1 1 1 1 1 1 1 1 1 1   1 1 1 1 2 3 2 3 2 3   2 3
 EXTRA SYMMETRY OF AOS IN SYMMETRY 3:   1 1 1 1 1 1 1 1 1 1   1 1 1 1 1 1 1 1 1 1   1 1 1 1 2 3 2 3 2 3   2 3
 EXTRA SYMMETRY OF AOS IN SYMMETRY 4:   1 1 1 1 1 1 1 1 1 1   1 1 1 1 1 1 1 2 3 2   3 2 3
 EXTRA SYMMETRY OF AOS IN SYMMETRY 5:   1 1 1 1 1 1 1 1 1 1   1 1 1 1 1 1 1 1 1 1   1 1 1 1 2 3 2 3 2 3   2 3
 EXTRA SYMMETRY OF AOS IN SYMMETRY 6:   1 1 1 1 1 1 1 1 1 1   1 1 1 1 1 1 1 2 3 2   3 2 3
 EXTRA SYMMETRY OF AOS IN SYMMETRY 7:   1 1 1 1 1 1 1 1 1 1   1 1 1 1 1 1 1 2 3 2   3 2 3

 Eigenvalues of metric

         1 0.198E-05 0.951E-05 0.951E-05 0.291E-04 0.121E-03 0.307E-03 0.307E-03 0.363E-03
         2 0.982E-06 0.471E-03 0.163E-02 0.406E-02 0.938E-02 0.172E-01 0.270E-01 0.454E-01
         3 0.982E-06 0.471E-03 0.163E-02 0.406E-02 0.938E-02 0.172E-01 0.270E-01 0.454E-01
         4 0.951E-05 0.307E-03 0.302E-02 0.107E-01 0.287E-01 0.531E-01 0.105E+00 0.148E+00
         5 0.982E-06 0.471E-03 0.163E-02 0.406E-02 0.938E-02 0.172E-01 0.270E-01 0.454E-01
         6 0.951E-05 0.307E-03 0.302E-02 0.107E-01 0.287E-01 0.531E-01 0.105E+00 0.148E+00
         7 0.951E-05 0.307E-03 0.302E-02 0.107E-01 0.287E-01 0.531E-01 0.105E+00 0.148E+00
         8 0.941E-01 0.387E+00 0.119E+01 0.233E+01


 Contracted 2-electron integrals neglected if value below      1.0D-13
 AO integral compression algorithm  1   Integral accuracy      1.0D-13

     414.188 MB (compressed) written to integral file ( 45.9%)

     Node minimum: 1.573 MB, node maximum: 55.050 MB


 NUMBER OF SORTED TWO-ELECTRON INTEGRALS:    2444547.     BUFFER LENGTH:  32768
 NUMBER OF SEGMENTS:   1  SEGMENT LENGTH:    2444547      RECORD LENGTH: 524288

 Memory used in sort:       3.00 MW

 SORT1 READ   112766326. AND WROTE     1563133. INTEGRALS IN      5 RECORDS. CPU TIME:     2.99 SEC, REAL TIME:     3.21 SEC
 SORT2 READ    36622834. AND WROTE    56960207. INTEGRALS IN   1127 RECORDS. CPU TIME:     0.16 SEC, REAL TIME:     0.27 SEC

 Node minimum:     2444547.  Node maximum:     2491187. integrals

 OPERATOR DM      FOR CENTER  0  COORDINATES:    0.000000    0.000000    0.000000


 **********************************************************************************************************************************
 DATASETS  * FILE   NREC   LENGTH (MB)   RECORD NAMES
              1      19       20.37       500      610      700      900      950      970     1000      129      960     1100   
                                          VAR    BASINP    GEOM    SYMINP    ZMAT    AOBASIS   BASIS     P2S    ABASIS      S 
                                         1400     1410     1420     1200     1210     1080     1600     1650     1700   
                                           T        V       ECP      H0       H01     AOSYM     SMH    MOLCAS    OPER   

 PROGRAMS   *        TOTAL       INT
 CPU TIMES  *        27.01     26.72
 REAL TIME  *        29.65 SEC
 DISK USED  *       864.15 MB      
 GA USED    *         0.00 MB       (max)       0.00 MB       (current)
 **********************************************************************************************************************************


 PROGRAM * RHF-SCF (CLOSED SHELL)       Authors: W. Meyer, H.-J. Werner


 NUMBER OF ELECTRONS:       9+    9-    SPACE SYMMETRY=1    SPIN SYMMETRY: Singlet 
 CONVERGENCE THRESHOLDS:    1.00E-05 (Density)    1.00E-07 (Energy)
 MAX. NUMBER OF ITERATIONS:       60
 INTERPOLATION TYPE:            DIIS
 INTERPOLATION STEPS:              2 (START)      1 (STEP)
 LEVEL SHIFTS:                  0.00 (CLOSED)  0.00 (OPEN) 

 Number of closed-shell orbitals:    9 (   3   1   1   1   1   1   1   0 )


 
 Extra symmetries of mos in symmetry 1:   1   3   2
 Orbital guess generated from atomic densities. Full valence occupancy:    4   1   1   1   1   1   1   0


 Molecular orbital dump at record        4202.2

 ITERATION    DDIFF          GRAD             ENERGY        2-EL.EN.            DIPOLE MOMENTS         DIIS   ORB.
    1      0.000D+00      0.000D+00      -126.82637916    208.294366    0.00000    0.00000    0.00000    0    start
    2      0.000D+00      0.150D-01      -126.82941243    197.595255    0.00000    0.00000    0.00000    1    diag
    3      0.528D-02      0.164D-01      -126.87690460    202.660446    0.00000    0.00000    0.00000    2    diag
    4      0.217D-02      0.613D-03      -126.87695483    202.768139    0.00000    0.00000    0.00000    3    diag
    5      0.121D-03      0.866D-04      -126.87695613    202.791096    0.00000    0.00000    0.00000    4    diag
    6      0.379D-04      0.368D-05      -126.87695613    202.790801    0.00000    0.00000    0.00000    5    diag
    7      0.430D-05      0.596D-06      -126.87695613    202.791041    0.00000    0.00000    0.00000    0    orth

 Final occupancy:   3   1   1   1   1   1   1   0

 !RHF STATE 1.1 Energy               -126.876956134750
 Nuclear energy                         0.00000000
 One-electron energy                 -228.27247642
 Two-electron energy                  101.39552028
 Virial quotient                       -2.60533107
 !RHF STATE 1.1 Dipole moment           0.00000000     0.00000000     0.00000000
 Dipole moment /Debye                   0.00000000     0.00000000     0.00000000

 ELECTRON ORBITALS
 =================


   Orb  Occ    Energy  Couls-En    Coefficients

                                   1 1s      1 1s      1 1s      1 1s      1 1s      1 1s      1 1s      1 1s      1 1s      1 1s   
                                   1 1s      1 1s      1 1s      1 1s      1 1s      1 1s      1 1s      1 1s      1 1s      1 1s   
                                   1 1s      1 1s      1 1s      1 1s      1 1s      1 1s      1 1s      1 1s      1 1s      1 1s   
                                   1 3d0     1 3d2+    1 3d0     1 3d2+    1 3d0     1 3d2+    1 3d0     1 3d2+    1 3d0     1 3d2+ 
                                   1 3d0     1 3d2+    1 3d0     1 3d2+    1 3d0     1 3d2+    1 3d0     1 3d2+    1 3d0     1 3d2+ 
                                   1 3d0     1 3d2+    1 3d0     1 3d2+    1 3d0     1 3d2+    1 3d0     1 3d2+    1 3d0     1 3d2+ 
                                   1 3d0     1 3d2+    1 3d0     1 3d2+    1 5g0     1 5g4+    1 5g2+    1 5g0     1 5g4+    1 5g2+ 
                                   1 5g0     1 5g4+    1 5g2+ 

   1.1   2    -3.8466  -20.1388 -0.000000  0.000000 -0.000000  0.000000 -0.000000  0.000000 -0.000001  0.000003 -0.000010  0.000027
                                -0.000071  0.000186 -0.000477  0.001217 -0.003122  0.008194 -0.021089  0.022864  0.198144 -0.666364
                                -0.161625  0.902243  0.537224  0.036529 -0.016715  0.008106  0.061185 -0.083914 -0.003379  0.000835
                                 0.000000 -0.000000 -0.000000  0.000000  0.000000 -0.000000 -0.000000  0.000000  0.000000 -0.000000
                                -0.000000  0.000000  0.000000 -0.000000 -0.000000 -0.000000  0.000000  0.000000  0.000000  0.000000
                                 0.000000  0.000000 -0.000000 -0.000000 -0.000000  0.000000 -0.000000 -0.000000 -0.000000 -0.000000
                                -0.000000 -0.000000 -0.000000 -0.000000  0.000000 -0.000000 -0.000000  0.000000  0.000000 -0.000000
                                -0.000000  0.000000  0.000000

   2.1   2    -0.3279  -11.1370  0.000000  0.000000  0.000000 -0.000000  0.000000 -0.000000  0.000000 -0.000000  0.000000 -0.000000
                                 0.000000 -0.000000  0.000000 -0.000000  0.000000 -0.000000  0.000000 -0.000000 -0.000000 -0.000000
                                -0.000000  0.000000  0.000000 -0.000000  0.000000 -0.000000  0.000000 -0.000000  0.000000 -0.000000
                                 0.000000  0.000000 -0.000000 -0.000002  0.000000  0.000011 -0.000001 -0.000046  0.000008  0.000285
                                 0.000027  0.000920  0.000209  0.007238 -0.000871 -0.030217  0.000941  0.032639  0.005754  0.199632
                                 0.009955  0.345390  0.009469  0.328532  0.006226  0.216016  0.002206  0.076538  0.001434  0.049737
                                 0.000878  0.030443  0.000076  0.002633  0.000000 -0.000000 -0.000000 -0.000000  0.000000  0.000000
                                 0.000000 -0.000000 -0.000000

   3.1   2    -0.3279  -11.1370 -0.000000  0.000000 -0.000000 -0.000000  0.000000 -0.000000  0.000000 -0.000000  0.000000 -0.000000
                                 0.000000 -0.000000  0.000000 -0.000000  0.000000 -0.000000  0.000000 -0.000000 -0.000000  0.000000
                                -0.000000  0.000000 -0.000000  0.000000  0.000000 -0.000000  0.000000 -0.000000  0.000000 -0.000000
                                -0.000000  0.000000  0.000002 -0.000000 -0.000011  0.000000  0.000046 -0.000001 -0.000285  0.000008
                                -0.000920  0.000027 -0.007238  0.000209  0.030217 -0.000871 -0.032639  0.000941 -0.199632  0.005754
                                -0.345390  0.009955 -0.328532  0.009469 -0.216016  0.006226 -0.076538  0.002206 -0.049737  0.001434
                                -0.030443  0.000877 -0.002633  0.000076  0.000000 -0.000000 -0.000000 -0.000000  0.000000  0.000000
                                 0.000000 -0.000000 -0.000000

   4.1   0     0.0041   -2.1331  0.000000 -0.000000  0.000000 -0.000000  0.000000 -0.000000  0.000000 -0.000000  0.000000 -0.000000
                                 0.000001 -0.000003  0.000009 -0.000024  0.000069 -0.000215  0.000644  0.000287 -0.019521  0.079041
                                 0.093394 -0.211548 -0.129832  0.078864 -0.110113  0.437074 -0.083550  0.159096 -0.597977  1.273041
                                -0.000000 -0.000000  0.000000  0.000000 -0.000000 -0.000000  0.000000  0.000000 -0.000000 -0.000000
                                 0.000000  0.000000 -0.000000 -0.000000  0.000000  0.000000 -0.000000 -0.000000 -0.000000 -0.000000
                                -0.000000 -0.000000  0.000000 -0.000000 -0.000000 -0.000000  0.000000  0.000000  0.000000  0.000000
                                 0.000000  0.000000  0.000000 -0.000000 -0.000000  0.000000 -0.000000  0.000000  0.000000  0.000000
                                -0.000000  0.000000  0.000000

   5.1   0     0.0235   -2.5630  0.000000 -0.000000  0.000000 -0.000000  0.000000 -0.000000  0.000000 -0.000001  0.000002 -0.000007
                                 0.000018 -0.000048  0.000123 -0.000310  0.000777 -0.001959  0.004911 -0.009229 -0.003018 -0.008291
                                -0.233692  0.264108  0.080502 -0.203614  0.679762 -1.222723  0.222021 -0.425727  2.966446 -1.951308
                                -0.000000  0.000000  0.000000 -0.000000 -0.000000  0.000000  0.000000 -0.000000 -0.000000  0.000000
                                 0.000000 -0.000000 -0.000000 -0.000000 -0.000000 -0.000000  0.000000  0.000000  0.000000  0.000000
                                 0.000000  0.000000  0.000000 -0.000000 -0.000000 -0.000000  0.000000 -0.000000 -0.000000 -0.000000
                                -0.000000 -0.000000 -0.000000 -0.000000  0.000000 -0.000000 -0.000000 -0.000000  0.000000  0.000000
                                -0.000000 -0.000000  0.000000

                                   1 2px     1 2px     1 2px     1 2px     1 2px     1 2px     1 2px     1 2px     1 2px     1 2px  
                                   1 2px     1 2px     1 2px     1 2px     1 2px     1 2px     1 2px     1 2px     1 2px     1 2px  
                                   1 2px     1 2px     1 2px     1 2px     1 4f1+    1 4f3+    1 4f1+    1 4f3+    1 4f1+    1 4f3+ 
                                   1 4f1+    1 4f3+ 

   1.2   2    -2.4182  -17.0177 -0.000000  0.000000 -0.000000  0.000000 -0.000001  0.000003 -0.000009  0.000031 -0.000091  0.000255
                                -0.000563 -0.000317  0.032240 -0.126348  0.051982  0.359692  0.291016  0.042111 -0.004633  0.002734
                                -0.168724  0.523485 -0.001263  0.000404 -0.000000  0.000000 -0.000000  0.000000  0.000000  0.000000
                                -0.000000 -0.000000

   2.2   0     0.0111   -1.1511 -0.000000  0.000000 -0.000000  0.000000 -0.000000  0.000001 -0.000003  0.000010 -0.000030  0.000080
                                -0.000204  0.000523 -0.001638  0.005652 -0.107343 -0.018729 -0.017452  0.030816 -0.068707  0.208989
                                 0.113968  0.008215 -0.564942  1.336743 -0.000000  0.000000  0.000000  0.000000 -0.000000  0.000000
                                 0.000000  0.000000

   3.2   0     0.0407   -1.8491  0.000000 -0.000000  0.000000 -0.000000  0.000001 -0.000003  0.000010 -0.000031  0.000090 -0.000242
                                 0.000614 -0.001484  0.002877 -0.008732  0.303568  0.030780  0.032093 -0.073863  0.240512 -0.620053
                                -0.316359 -0.055996  2.088910 -1.174205 -0.000000  0.000000  0.000000  0.000000 -0.000000  0.000000
                                 0.000000  0.000000

                                   1 2py     1 2py     1 2py     1 2py     1 2py     1 2py     1 2py     1 2py     1 2py     1 2py  
                                   1 2py     1 2py     1 2py     1 2py     1 2py     1 2py     1 2py     1 2py     1 2py     1 2py  
                                   1 2py     1 2py     1 2py     1 2py     1 4f1-    1 4f3-    1 4f1-    1 4f3-    1 4f1-    1 4f3- 
                                   1 4f1-    1 4f3- 

   1.3   2    -2.4182  -17.0177 -0.000000  0.000000 -0.000000  0.000000 -0.000001  0.000003 -0.000009  0.000031 -0.000091  0.000255
                                -0.000563 -0.000317  0.032240 -0.126348  0.051982  0.359692  0.291016  0.042111 -0.004633  0.002734
                                -0.168724  0.523485 -0.001263  0.000404  0.000000 -0.000000  0.000000  0.000000 -0.000000 -0.000000
                                 0.000000  0.000000

   2.3   0     0.0111   -1.1511 -0.000000  0.000000 -0.000000  0.000000 -0.000000  0.000001 -0.000003  0.000010 -0.000030  0.000080
                                -0.000204  0.000523 -0.001638  0.005652 -0.107343 -0.018729 -0.017452  0.030816 -0.068707  0.208989
                                 0.113968  0.008215 -0.564942  1.336743  0.000000  0.000000  0.000000  0.000000 -0.000000  0.000000
                                 0.000000  0.000000

   3.3   0     0.0407   -1.8491  0.000000 -0.000000  0.000000 -0.000000  0.000001 -0.000003  0.000010 -0.000031  0.000090 -0.000242
                                 0.000614 -0.001484  0.002877 -0.008732  0.303568  0.030780  0.032093 -0.073863  0.240512 -0.620053
                                -0.316359 -0.055996  2.088910 -1.174205  0.000000  0.000000  0.000000  0.000000 -0.000000  0.000000
                                 0.000000 -0.000000

                                   1 3d2-    1 3d2-    1 3d2-    1 3d2-    1 3d2-    1 3d2-    1 3d2-    1 3d2-    1 3d2-    1 3d2- 
                                   1 3d2-    1 3d2-    1 3d2-    1 3d2-    1 3d2-    1 3d2-    1 3d2-    1 5g2-    1 5g4-    1 5g2- 
                                   1 5g4-    1 5g2-    1 5g4- 

   1.4   2    -0.3279  -11.1370  0.000000 -0.000002  0.000011 -0.000046  0.000285  0.000920  0.007241 -0.030229  0.032652  0.199715
                                 0.345534  0.328668  0.216106  0.076570  0.049758  0.030456  0.002634  0.000000 -0.000000  0.000000
                                 0.000000  0.000000  0.000000

   2.4   0     0.1009   -2.2241  0.000001 -0.000006  0.000031 -0.000127  0.000413 -0.001377  0.003091 -0.009200  0.057998  0.537411
                                 0.449213 -0.190486  0.186236 -0.476883 -0.401598 -0.607470  1.256229  0.000000  0.000000  0.000000
                                 0.000000  0.000000  0.000000

   3.4   0     0.3433   -3.3234 -0.000003  0.000020 -0.000106  0.000430 -0.001471  0.003855 -0.013902  0.046419 -0.204986 -1.848969
                                -1.670454  0.454655 -0.826093  1.896426  1.264958  1.961807 -0.890586  0.000000 -0.000000 -0.000000
                                 0.000000  0.000000 -0.000000

                                   1 2pz     1 2pz     1 2pz     1 2pz     1 2pz     1 2pz     1 2pz     1 2pz     1 2pz     1 2pz  
                                   1 2pz     1 2pz     1 2pz     1 2pz     1 2pz     1 2pz     1 2pz     1 2pz     1 2pz     1 2pz  
                                   1 2pz     1 2pz     1 2pz     1 2pz     1 4f0     1 4f2+    1 4f0     1 4f2+    1 4f0     1 4f2+ 
                                   1 4f0     1 4f2+ 

   1.5   2    -2.4182  -17.0177 -0.000000  0.000000 -0.000000  0.000000 -0.000001  0.000003 -0.000009  0.000031 -0.000091  0.000255
                                -0.000563 -0.000317  0.032240 -0.126348  0.051982  0.359692  0.291016  0.042111 -0.004633  0.002734
                                -0.168724  0.523485 -0.001263  0.000404 -0.000000 -0.000000  0.000000  0.000000 -0.000000 -0.000000
                                 0.000000  0.000000

   2.5   0     0.0111   -1.1511 -0.000000  0.000000 -0.000000  0.000000 -0.000000  0.000001 -0.000003  0.000010 -0.000030  0.000080
                                -0.000204  0.000523 -0.001638  0.005652 -0.107343 -0.018729 -0.017452  0.030816 -0.068707  0.208989
                                 0.113968  0.008215 -0.564942  1.336743 -0.000000  0.000000 -0.000000  0.000000 -0.000000  0.000000
                                -0.000000 -0.000000

   3.5   0     0.0407   -1.8491  0.000000 -0.000000  0.000000 -0.000000  0.000001 -0.000003  0.000010 -0.000031  0.000090 -0.000242
                                 0.000614 -0.001484  0.002877 -0.008732  0.303568  0.030780  0.032093 -0.073863  0.240512 -0.620053
                                -0.316359 -0.055996  2.088910 -1.174205 -0.000000  0.000000 -0.000000  0.000000 -0.000000  0.000000
                                -0.000000  0.000000

                                   1 3d1+    1 3d1+    1 3d1+    1 3d1+    1 3d1+    1 3d1+    1 3d1+    1 3d1+    1 3d1+    1 3d1+ 
                                   1 3d1+    1 3d1+    1 3d1+    1 3d1+    1 3d1+    1 3d1+    1 3d1+    1 5g1+    1 5g3+    1 5g1+ 
                                   1 5g3+    1 5g1+    1 5g3+ 

   1.6   2    -0.3279  -11.1370  0.000000 -0.000002  0.000011 -0.000046  0.000285  0.000920  0.007241 -0.030229  0.032652  0.199715
                                 0.345534  0.328668  0.216106  0.076570  0.049758  0.030456  0.002634 -0.000000  0.000000  0.000000
                                 0.000000  0.000000  0.000000

   2.6   0     0.1009   -2.2241  0.000001 -0.000006  0.000031 -0.000127  0.000413 -0.001377  0.003091 -0.009200  0.057998  0.537411
                                 0.449213 -0.190486  0.186236 -0.476883 -0.401598 -0.607470  1.256229  0.000000  0.000000  0.000000
                                 0.000000 -0.000000  0.000000

   3.6   0     0.3433   -3.3234 -0.000003  0.000020 -0.000106  0.000430 -0.001471  0.003855 -0.013902  0.046419 -0.204986 -1.848969
                                -1.670454  0.454655 -0.826093  1.896426  1.264958  1.961807 -0.890586  0.000000  0.000000  0.000000
                                 0.000000 -0.000000  0.000000

                                   1 3d1-    1 3d1-    1 3d1-    1 3d1-    1 3d1-    1 3d1-    1 3d1-    1 3d1-    1 3d1-    1 3d1- 
                                   1 3d1-    1 3d1-    1 3d1-    1 3d1-    1 3d1-    1 3d1-    1 3d1-    1 5g1-    1 5g3-    1 5g1- 
                                   1 5g3-    1 5g1-    1 5g3- 

   1.7   2    -0.3279  -11.1370  0.000000 -0.000002  0.000011 -0.000046  0.000285  0.000920  0.007241 -0.030229  0.032652  0.199715
                                 0.345534  0.328668  0.216106  0.076570  0.049758  0.030456  0.002634  0.000000  0.000000  0.000000
                                 0.000000  0.000000  0.000000

   2.7   0     0.1009   -2.2241  0.000001 -0.000006  0.000031 -0.000127  0.000413 -0.001377  0.003091 -0.009200  0.057998  0.537411
                                 0.449213 -0.190486  0.186236 -0.476883 -0.401598 -0.607470  1.256229  0.000000  0.000000  0.000000
                                 0.000000  0.000000  0.000000

   3.7   0     0.3433   -3.3234 -0.000003  0.000020 -0.000106  0.000430 -0.001471  0.003855 -0.013902  0.046419 -0.204986 -1.848969
                                -1.670454  0.454655 -0.826093  1.896426  1.264958  1.961807 -0.890586  0.000000  0.000000  0.000000
                                 0.000000 -0.000000  0.000000

                                   1 4f2-    1 4f2-    1 4f2-    1 4f2- 

   1.8   0     0.8900   -4.2687 -0.007133  0.132609 -0.232515  1.117679

   2.8   0     2.0972   -5.3331  0.215213 -0.063651  1.282137 -0.768069

 HOMO      1.6    -0.327918 =      -8.9231eV
 LUMO      4.1     0.004071 =       0.1108eV
 LUMO-HOMO         0.331988 =       9.0339eV


 **********************************************************************************************************************************
 DATASETS  * FILE   NREC   LENGTH (MB)   RECORD NAMES
              1      19       20.40       500      610      700      900      950      970     1000      129      960     1100   
                                          VAR    BASINP    GEOM    SYMINP    ZMAT    AOBASIS   BASIS     P2S    ABASIS      S 
                                         1400     1410     1420     1200     1210     1080     1600     1650     1700   
                                           T        V       ECP      H0       H01     AOSYM     SMH    MOLCAS    OPER   

              2       5        5.58       200      700     1000      520     4202   
                                        OPTIONS   GEOM     BASIS   MCVARS     RHF  

 PROGRAMS   *        TOTAL       RHF       INT
 CPU TIMES  *        27.55      0.54     26.72
 REAL TIME  *        30.32 SEC
 DISK USED  *         1.48 GB      
 SF USED    *         0.04 MB      
 GA USED    *         0.00 MB       (max)       0.00 MB       (current)
 **********************************************************************************************************************************
 SETTING SCF(1)         =      -126.87695613  AU                              
 SETTING _CC_NORM_MAX   =         2.00000000                                  


 PROGRAM * CCSD (Restricted open-shell coupled cluster)     Authors: C. Hampel, H.-J. Werner, 1991, M. Deegan, P.J. Knowles, 1992


 Convergence thresholds:  THRVAR = 1.00D-08  THRDEN = 1.00D-06

 CCSD(T)     terms to be evaluated (factor= 1.000)


 Number of closed-shell orbitals:   9 (   3   1   1   1   1   1   1   0 )
 Number of external orbitals:     233 (  70  31  31  22  31  22  22   4 )

 Memory could be reduced to 29.42 Mwords without degradation in triples

 Number of N-1 electron functions:              18
 Number of N-2 electron functions:             153
 Number of singly external CSFs:               738
 Number of doubly external CSFs:            813477
 Total number of CSFs:                      814215

 Molecular orbitals read from record     4202.2  Type=RHF/CANONICAL (state 1.1)

 Integral transformation finished. Total CPU:   0.72 sec, npass=  1  Memory used:   4.84 MW

 Starting RMP2 calculation

 Wavefunction is spin-projected

 ITER.      SQ.NORM     CORR.ENERGY   TOTAL ENERGY   ENERGY CHANGE        DEN1      VAR(S)    VAR(P)  DIIS     TIME
   1      1.14287499    -0.77120217  -127.64815830    -0.77120217    -0.00136131  0.21D-11  0.52D-03  1  1     0.88
   2      1.14408162    -0.77263758  -127.64959371    -0.00143541    -0.00000360  0.74D-13  0.25D-05  2  2     0.99
   3      1.14415073    -0.77267835  -127.64963449    -0.00004077    -0.00000001  0.19D-14  0.11D-07  3  3     1.31
   4      1.14415261    -0.77267868  -127.64963482    -0.00000033    -0.00000000  0.41D-16  0.57D-10  4  4     1.49

 Norm of t1 vector:      0.00000904      S-energy:    -0.00000000      T1 diagnostic:  0.00000151
 Norm of t2 vector:      0.37967434      P-energy:    -0.77267868
                                         Alpha-Beta:  -0.53336458
                                         Alpha-Alpha: -0.11965705
                                         Beta-Beta:   -0.11965705

 Spin contamination <S**2-Sz**2-Sz>     0.00000000
  Reference energy                   -126.876956134750
  RHF-RMP2 correlation energy          -0.772678683597
 !RHF-RMP2 energy                    -127.649634818347
 (NB above energy spin projected)

 Starting RCCSD calculation

 ITER.      SQ.NORM     CORR.ENERGY   TOTAL ENERGY   ENERGY CHANGE        DEN1      VAR(S)    VAR(P)  DIIS     TIME
   1      1.11326458    -0.71252824  -127.58948438    -0.71252824    -0.01704545  0.24D-02  0.33D-02  1  1     2.08
   2      1.12093488    -0.72709880  -127.60405494    -0.01457056    -0.00086586  0.40D-04  0.31D-03  2  2     2.57
   3      1.12183090    -0.72712922  -127.60408535    -0.00003042    -0.00008733  0.62D-04  0.17D-04  3  3     3.06
   4      1.12248599    -0.72740484  -127.60436098    -0.00027563    -0.00000895  0.36D-05  0.31D-05  4  4     3.58
   5      1.12286342    -0.72750623  -127.60446237    -0.00010139    -0.00000085  0.73D-06  0.23D-06  5  5     4.09
   6      1.12295031    -0.72751515  -127.60447129    -0.00000892    -0.00000010  0.42D-07  0.38D-07  6  6     4.61
   7      1.12297519    -0.72751575  -127.60447189    -0.00000060    -0.00000002  0.25D-07  0.24D-08  6  1     5.12
   8      1.12298099    -0.72751698  -127.60447312    -0.00000123    -0.00000000  0.22D-08  0.22D-09  6  2     5.65
   9      1.12298216    -0.72751626  -127.60447239     0.00000073    -0.00000000  0.27D-09  0.73D-10  6  3     6.17

 Norm of t1 vector:      0.05235198      S-energy:    -0.00000018      T1 diagnostic:  0.00872533
                                                                       D1 diagnostic:  0.01623938
 Norm of t2 vector:      0.34675846      P-energy:    -0.72751607
                                         Alpha-Beta:  -0.52199751
                                         Alpha-Alpha: -0.10275928
                                         Beta-Beta:   -0.10275928

 Spin contamination <S**2-Sz**2-Sz>     0.00000000

 Memory could be reduced to 29.91 Mwords without degradation in triples
 

  Correlated core orbitals:             1.1       1.2       1.3       1.5
  Orbital energies:                    -3.8466   -2.4182   -2.4182   -2.4182
 
  RCCSD core-core energy               -0.115443077912
  RCCSD core-valence energy            -0.261509177258
  RCCSD valence correlation energy     -0.350564000886
 

 RESULTS
 =======

  Reference energy                   -126.876956134750
  RCCSD singles energy                 -0.000000182104
  RCCSD pair energy                    -0.727516073952
  RCCSD correlation energy             -0.727516256056
  Triples (T) contribution             -0.029592857133
  Total correlation energy             -0.757109113189
 
  RHF-RCCSD energy                   -127.604472390806
  RHF-RCCSD[T] energy                -127.635097864227
  RHF-RCCSD-T energy                 -127.633912920083
 !RHF-RCCSD(T) energy                -127.634065247939

 Program statistics:

 Available memory in ccsd:               511999162
 Min. memory needed in ccsd:               2450153
 Max. memory used in ccsd:                 3434108
 Max. memory used in cckext:               2685931 ( 9 integral passes)
 Max. memory used in cckint:               4839137 ( 1 integral passes)



 **********************************************************************************************************************************
 DATASETS  * FILE   NREC   LENGTH (MB)   RECORD NAMES
              1      19       20.40       500      610      700      900      950      970     1000      129      960     1100   
                                          VAR    BASINP    GEOM    SYMINP    ZMAT    AOBASIS   BASIS     P2S    ABASIS      S 
                                         1400     1410     1420     1200     1210     1080     1600     1650     1700   
                                           T        V       ECP      H0       H01     AOSYM     SMH    MOLCAS    OPER   

              2       5        5.58       200      700     1000      520     4202   
                                        OPTIONS   GEOM     BASIS   MCVARS     RHF  

 PROGRAMS   *        TOTAL  RCCSD(T)       RHF       INT
 CPU TIMES  *        41.04     13.49      0.54     26.72
 REAL TIME  *        50.62 SEC
 DISK USED  *         3.80 GB      
 SF USED    *       440.31 MB      
 GA USED    *         0.00 MB       (max)       0.00 MB       (current)
 **********************************************************************************************************************************
 SETTING CCSD(1)        =      -127.63406525  AU                              

 DO I                   =         2.00000000   

 Running procedure=EAS2D9


 PROGRAM * RHF-SCF (OPEN SHELL)       Authors: W. Meyer, H.-J. Werner


 NUMBER OF ELECTRONS:      10+    9-    SPACE SYMMETRY=1    SPIN SYMMETRY: Doublet 
 CONVERGENCE THRESHOLDS:    1.00E-05 (Density)    1.00E-07 (Energy)
 MAX. NUMBER OF ITERATIONS:       60
 INTERPOLATION TYPE:            DIIS
 INTERPOLATION STEPS:              2 (START)      1 (STEP)
 LEVEL SHIFTS:                 -0.60 (CLOSED) -0.30 (OPEN) 

 Number of closed-shell orbitals:    9 (   3   1   1   1   1   1   1   0 )
 Number of open-shell orbitals:      1 (   1   0   0   0   0   0   0   0 )


 
 Extra symmetries of mos in symmetry 1:   1   1   3   2
 Orbital guess generated from atomic densities. Full valence occupancy:    4   1   1   1   1   1   1   0


 Molecular orbital dump at record        4202.2

 ITERATION    DDIFF          GRAD             ENERGY        2-EL.EN.            DIPOLE MOMENTS         DIIS   ORB.
    1      0.000D+00      0.000D+00      -126.85712105    208.159180    0.00000    0.00000    0.00000    0    start
    2      0.000D+00      0.460D-02      -126.86532853    207.031068    0.00000    0.00000    0.00000    1    diag,B
    3      0.220D-02      0.152D-02      -126.86817436    206.851307    0.00000    0.00000    0.00000    2    diag,B
    4      0.180D-02      0.975D-03      -126.87007269    206.488429    0.00000    0.00000    0.00000    3    diag,B
    5      0.137D-02      0.747D-03      -126.87245943    206.031425    0.00000    0.00000    0.00000    4    diag,B
    6      0.229D-02      0.481D-03      -126.87380060    205.643062    0.00000    0.00000    0.00000    5    diag,B
    7      0.260D-02      0.301D-03      -126.87447664    205.398107    0.00000    0.00000    0.00000    6    fixocc
    8      0.367D-02      0.172D-03      -126.87470292    205.271126    0.00000    0.00000    0.00000    7    diag,B
    9      0.248D-02      0.113D-03      -126.87480342    205.208893    0.00000    0.00000    0.00000    8    diag,B
   10      0.101D-02      0.848D-04      -126.87488589    205.152357    0.00000    0.00000    0.00000    9    orth
   11      0.117D-02      0.600D-04      -126.87493586    205.119544    0.00000    0.00000    0.00000    9    diag,B
   12      0.175D-02      0.337D-04      -126.87495074    205.082538    0.00000    0.00000    0.00000    9    diag,B
   13      0.119D-02      0.129D-04      -126.87495156    205.085958    0.00000    0.00000    0.00000    9    diag,B
   14      0.298D-03      0.586D-05      -126.87495170    205.081211    0.00000    0.00000    0.00000    9    diag,B
   15      0.664D-04      0.365D-05      -126.87495177    205.081130    0.00000    0.00000    0.00000    9    diag,B
   16      0.215D-04      0.313D-05      -126.87495183    205.081666    0.00000    0.00000    0.00000    9    diag,B
   17      0.585D-05      0.302D-05      -126.87495191    205.081592    0.00000    0.00000    0.00000    0    orth

 Final alpha occupancy:   4   1   1   1   1   1   1   0
 Final beta  occupancy:   3   1   1   1   1   1   1   0

 !RHF STATE 1.1 Energy               -126.874951914574
 Nuclear energy                         0.00000000
 One-electron energy                 -229.41574774
 Two-electron energy                  102.54079582
 Virial quotient                       -2.64106339
 !RHF STATE 1.1 Dipole moment           0.00000000     0.00000000     0.00000000
 Dipole moment /Debye                   0.00000000     0.00000000     0.00000000

 ELECTRON ORBITALS
 =================


   Orb  Occ    Energy  Couls-En    Coefficients

                                   1 1s      1 1s      1 1s      1 1s      1 1s      1 1s      1 1s      1 1s      1 1s      1 1s   
                                   1 1s      1 1s      1 1s      1 1s      1 1s      1 1s      1 1s      1 1s      1 1s      1 1s   
                                   1 1s      1 1s      1 1s      1 1s      1 1s      1 1s      1 1s      1 1s      1 1s      1 1s   
                                   1 3d0     1 3d2+    1 3d0     1 3d2+    1 3d0     1 3d2+    1 3d0     1 3d2+    1 3d0     1 3d2+ 
                                   1 3d0     1 3d2+    1 3d0     1 3d2+    1 3d0     1 3d2+    1 3d0     1 3d2+    1 3d0     1 3d2+ 
                                   1 3d0     1 3d2+    1 3d0     1 3d2+    1 3d0     1 3d2+    1 3d0     1 3d2+    1 3d0     1 3d2+ 
                                   1 3d0     1 3d2+    1 3d0     1 3d2+    1 5g0     1 5g4+    1 5g2+    1 5g0     1 5g4+    1 5g2+ 
                                   1 5g0     1 5g4+    1 5g2+ 

   1.1   2    -3.8073  -20.1187 -0.000000  0.000000 -0.000000  0.000000 -0.000000  0.000000 -0.000001  0.000003 -0.000010  0.000027
                                -0.000073  0.000189 -0.000485  0.001236 -0.003169  0.008312 -0.021386  0.023455  0.197990 -0.664670
                                -0.147136  0.883220  0.518196  0.030812 -0.014385  0.006942  0.046640 -0.045910 -0.002850  0.000725
                                 0.000000  0.000000 -0.000000 -0.000000  0.000000  0.000000 -0.000001 -0.000000  0.000002  0.000001
                                -0.000007  0.000000  0.000035  0.000011 -0.000106 -0.000041 -0.000191  0.000013  0.000786  0.000277
                                -0.000523  0.000286 -0.001990  0.000105 -0.001179  0.000037 -0.000211  0.000013  0.000357  0.000088
                                 0.000880  0.000125 -0.000010 -0.000000 -0.000217 -0.000000  0.000015 -0.000475 -0.000001  0.000032
                                -0.000717 -0.000002  0.000046

   2.1   2    -0.0228   -4.7460  0.000000 -0.000000  0.000000 -0.000000  0.000000 -0.000000  0.000000 -0.000001  0.000002 -0.000005
                                 0.000014 -0.000036  0.000094 -0.000240  0.000618 -0.001643  0.004337 -0.005151 -0.041382  0.155933
                                 0.046017 -0.269094 -0.225955  0.105532  0.316982  0.350697 -0.033391  0.057150  0.295486  0.127441
                                -0.000000 -0.000000  0.000000  0.000000 -0.000000 -0.000000  0.000000  0.000000 -0.000002 -0.000001
                                -0.000008 -0.000002 -0.000064 -0.000018  0.000270  0.000077 -0.000205 -0.000075 -0.001515 -0.000476
                                -0.002593 -0.000822 -0.000774 -0.000590  0.003997  0.000141  0.004853  0.000431 -0.000853 -0.000174
                                -0.001005 -0.000161  0.004153  0.000426 -0.000121 -0.000001  0.000005 -0.000270 -0.000001  0.000013
                                 0.000178  0.000000 -0.000014

   3.1   2    -0.2529  -11.2782  0.000000 -0.000000  0.000000 -0.000000  0.000000 -0.000000  0.000000 -0.000000  0.000000 -0.000000
                                 0.000000 -0.000000  0.000001 -0.000003  0.000007 -0.000019  0.000049 -0.000073 -0.000289  0.001016
                                -0.000823 -0.000478 -0.000062  0.001675  0.000564  0.000297  0.000737 -0.001859 -0.000075  0.000022
                                 0.000000  0.000000 -0.000000 -0.000002  0.000001  0.000012 -0.000002 -0.000046  0.000015  0.000291
                                 0.000050  0.000969  0.000385  0.007463 -0.001610 -0.031239  0.001742  0.033793  0.010525  0.204323
                                 0.018365  0.356389  0.017193  0.333215  0.009809  0.189687  0.002785  0.053653  0.002768  0.053676
                                 0.001791  0.034751  0.000145  0.002750  0.000052  0.000108  0.000929  0.000104  0.000165  0.001124
                                 0.000133  0.000285  0.002537

   4.1   +    -0.3352  -11.5007  0.000000 -0.000000  0.000000 -0.000000  0.000000 -0.000000  0.000000 -0.000000  0.000000 -0.000001
                                 0.000001 -0.000004  0.000010 -0.000025  0.000062 -0.000159  0.000408 -0.000749 -0.000879  0.003007
                                -0.017665  0.013141  0.014026  0.022867 -0.002363 -0.003316  0.014622 -0.034807 -0.006846 -0.002087
                                 0.000000 -0.000000 -0.000002  0.000000  0.000012 -0.000001 -0.000048  0.000002  0.000298 -0.000015
                                 0.000976 -0.000050  0.007613 -0.000394 -0.031776  0.001643  0.033694 -0.001743  0.209929 -0.010862
                                 0.368002 -0.019000  0.335809 -0.017286  0.170666 -0.008793  0.036808 -0.001921  0.053712 -0.002774
                                 0.034964 -0.001809  0.000720 -0.000051  0.002221 -0.000012  0.000074  0.003894 -0.000020  0.000123
                                 0.005499 -0.000028  0.000164

   5.1   0     0.0766   -1.1554 -0.000000  0.000000 -0.000000  0.000000 -0.000000  0.000000 -0.000000  0.000001 -0.000003  0.000008
                                -0.000020  0.000053 -0.000134  0.000337 -0.000836  0.002059 -0.005039  0.011255 -0.019659  0.103583
                                 0.386063 -0.559535 -0.243745  0.298523 -0.892794  1.695186 -0.361035  0.687764 -3.018595  2.419785
                                 0.000000  0.000000 -0.000000 -0.000000  0.000000  0.000000 -0.000000 -0.000000  0.000002  0.000000
                                 0.000006  0.000000  0.000044  0.000002 -0.000186 -0.000010  0.000154  0.000006  0.000921  0.000030
                                 0.001757  0.000069  0.001297  0.000041 -0.000459 -0.000086 -0.000946 -0.000102  0.000623  0.000051
                                 0.000732  0.000067 -0.000515 -0.000048  0.000049  0.000000 -0.000002  0.000063  0.000000 -0.000002
                                -0.000349 -0.000001  0.000025

   6.1   0     0.1607   -2.1698  0.000000 -0.000000  0.000000 -0.000000  0.000000 -0.000000  0.000000 -0.000001  0.000004 -0.000012
                                 0.000033 -0.000085  0.000217 -0.000539  0.001313 -0.003107  0.007270 -0.020999  0.089552 -0.407104
                                -0.957937  1.608077  0.822898 -0.867518  1.963479 -4.708705  0.884314 -1.690418  4.826125 -1.496748
                                 0.000000  0.000000 -0.000000 -0.000000  0.000000  0.000000 -0.000001 -0.000000  0.000006  0.000000
                                 0.000008  0.000000  0.000128  0.000008 -0.000519 -0.000031  0.000757  0.000056  0.005935  0.000468
                                 0.007337  0.000496  0.001948 -0.000027 -0.000796 -0.000172 -0.003477 -0.000379 -0.001117 -0.000158
                                -0.002227 -0.000265  0.001288  0.000172  0.000128  0.000000 -0.000005  0.000158  0.000000 -0.000004
                                -0.000965 -0.000003  0.000067

                                   1 2px     1 2px     1 2px     1 2px     1 2px     1 2px     1 2px     1 2px     1 2px     1 2px  
                                   1 2px     1 2px     1 2px     1 2px     1 2px     1 2px     1 2px     1 2px     1 2px     1 2px  
                                   1 2px     1 2px     1 2px     1 2px     1 4f1+    1 4f3+    1 4f1+    1 4f3+    1 4f1+    1 4f3+ 
                                   1 4f1+    1 4f3+ 

   1.2   2    -2.3648  -16.9903 -0.000000  0.000000 -0.000000  0.000000 -0.000001  0.000003 -0.000010  0.000032 -0.000096  0.000270
                                -0.000601 -0.000231  0.032229 -0.126544  0.036433  0.360305  0.283770  0.036611 -0.003366  0.002482
                                -0.153086  0.531916 -0.001005  0.000336  0.002946  0.000114  0.003750  0.000161  0.003221  0.000022
                                 0.000307 -0.000035

   2.2   0     0.0691   -0.9290 -0.000000  0.000000 -0.000000  0.000000 -0.000001  0.000002 -0.000008  0.000027 -0.000080  0.000215
                                -0.000546  0.001371 -0.003703  0.012369 -0.280692 -0.041473 -0.039234  0.073138 -0.177846  0.486234
                                 0.295990  0.032155 -1.204558  1.637340 -0.000004 -0.000001  0.000000 -0.000000 -0.000007 -0.000000
                                 0.000054  0.000009

   3.2   0     0.1304   -1.6860  0.000000 -0.000000  0.000000 -0.000000  0.000001 -0.000005  0.000017 -0.000055  0.000161 -0.000434
                                 0.001100 -0.002713  0.006335 -0.020389  0.555456  0.069714  0.068618 -0.137356  0.416973 -1.029807
                                -0.582440 -0.082708  2.229782 -0.890682 -0.000048 -0.000010  0.000036  0.000001 -0.000111 -0.000012
                                 0.000711  0.000115

                                   1 2py     1 2py     1 2py     1 2py     1 2py     1 2py     1 2py     1 2py     1 2py     1 2py  
                                   1 2py     1 2py     1 2py     1 2py     1 2py     1 2py     1 2py     1 2py     1 2py     1 2py  
                                   1 2py     1 2py     1 2py     1 2py     1 4f1-    1 4f3-    1 4f1-    1 4f3-    1 4f1-    1 4f3- 
                                   1 4f1-    1 4f3- 

   1.3   2    -2.3640  -16.9886 -0.000000  0.000000 -0.000000  0.000000 -0.000001  0.000003 -0.000010  0.000032 -0.000096  0.000270
                                -0.000600 -0.000233  0.032230 -0.126558  0.036859  0.360298  0.284018  0.036893 -0.003369  0.002501
                                -0.153454  0.531527 -0.001013  0.000339  0.002787  0.000127  0.003568  0.000176  0.002900  0.000041
                                 0.000224 -0.000031

   2.3   0     0.0691   -0.9290 -0.000000  0.000000 -0.000000  0.000000 -0.000001  0.000002 -0.000008  0.000027 -0.000080  0.000215
                                -0.000547  0.001372 -0.003703  0.012370 -0.280776 -0.041475 -0.039234  0.073124 -0.177901  0.486240
                                 0.296075  0.032176 -1.204778  1.637438 -0.000005 -0.000001 -0.000000 -0.000000 -0.000007 -0.000000
                                 0.000060  0.000009

   3.3   0     0.1305   -1.6837  0.000000 -0.000000  0.000000 -0.000000  0.000001 -0.000005  0.000017 -0.000055  0.000162 -0.000435
                                 0.001102 -0.002718  0.006356 -0.020466  0.556409  0.069962  0.068817 -0.137846  0.417101 -1.032406
                                -0.583476 -0.082627  2.231861 -0.891159 -0.000056 -0.000010  0.000033  0.000001 -0.000115 -0.000012
                                 0.000790  0.000112

                                   1 3d2-    1 3d2-    1 3d2-    1 3d2-    1 3d2-    1 3d2-    1 3d2-    1 3d2-    1 3d2-    1 3d2- 
                                   1 3d2-    1 3d2-    1 3d2-    1 3d2-    1 3d2-    1 3d2-    1 3d2-    1 5g2-    1 5g4-    1 5g2- 
                                   1 5g4-    1 5g2-    1 5g4- 

   1.4   2    -0.2530  -11.2785  0.000000 -0.000002  0.000012 -0.000046  0.000291  0.000970  0.007473 -0.031281  0.033838  0.204602
                                 0.356877  0.333663  0.189916  0.053699  0.053750  0.034800  0.002749  0.000926  0.000108  0.001120
                                 0.000166  0.002528  0.000286

   2.4   0     0.2168   -2.0501  0.000001 -0.000008  0.000041 -0.000165  0.000543 -0.001730  0.004290 -0.013147  0.075975  0.698764
                                 0.590530 -0.228549  0.248944 -0.564275 -0.513677 -0.777829  1.294534 -0.000018 -0.000010 -0.000049
                                -0.000027 -0.000025 -0.000008

   3.4   0     0.4809   -3.1809 -0.000003  0.000021 -0.000109  0.000443 -0.001512  0.004007 -0.014167  0.047150 -0.210987 -1.903791
                                -1.712281  0.475291 -0.801677  1.869515  1.307804  2.023536 -0.838638 -0.000050 -0.000031 -0.000247
                                -0.000123  0.000087  0.000033

                                   1 2pz     1 2pz     1 2pz     1 2pz     1 2pz     1 2pz     1 2pz     1 2pz     1 2pz     1 2pz  
                                   1 2pz     1 2pz     1 2pz     1 2pz     1 2pz     1 2pz     1 2pz     1 2pz     1 2pz     1 2pz  
                                   1 2pz     1 2pz     1 2pz     1 2pz     1 4f0     1 4f2+    1 4f0     1 4f2+    1 4f0     1 4f2+ 
                                   1 4f0     1 4f2+ 

   1.5   2    -2.3696  -17.0037 -0.000000  0.000000 -0.000000  0.000000 -0.000001  0.000003 -0.000010  0.000033 -0.000098  0.000273
                                -0.000609 -0.000215  0.032221 -0.126445  0.033104  0.360391  0.281863  0.034401 -0.003366  0.002331
                                -0.150218  0.534971 -0.000947  0.000316 -0.000982  0.000273 -0.000955  0.000349 -0.003119  0.000292
                                -0.001027  0.000026

   2.5   0     0.0691   -0.9296 -0.000000  0.000000 -0.000000  0.000000 -0.000001  0.000002 -0.000008  0.000027 -0.000080  0.000214
                                -0.000545  0.001367 -0.003698  0.012359 -0.280019 -0.041459 -0.039234  0.073266 -0.177400  0.486187
                                 0.295309  0.031974 -1.202831  1.636570 -0.000011 -0.000000 -0.000009  0.000000  0.000004 -0.000001
                                 0.000120  0.000006

   3.5   0     0.1298   -1.7059  0.000000 -0.000000  0.000000 -0.000000  0.000001 -0.000005  0.000017 -0.000055  0.000159 -0.000429
                                 0.001087 -0.002675  0.006161 -0.019756  0.547872  0.067674  0.066984 -0.133094  0.416123 -1.008701
                                -0.574182 -0.083496  2.212615 -0.886665 -0.000145 -0.000006 -0.000022  0.000003 -0.000057 -0.000012
                                 0.001596  0.000077

                                   1 3d1+    1 3d1+    1 3d1+    1 3d1+    1 3d1+    1 3d1+    1 3d1+    1 3d1+    1 3d1+    1 3d1+ 
                                   1 3d1+    1 3d1+    1 3d1+    1 3d1+    1 3d1+    1 3d1+    1 3d1+    1 5g1+    1 5g3+    1 5g1+ 
                                   1 5g3+    1 5g1+    1 5g3+ 

   1.6   2    -0.2843  -11.3651  0.000000 -0.000002  0.000012 -0.000047  0.000294  0.000975  0.007536 -0.031537  0.033911  0.206234
                                 0.360372  0.334869  0.183263  0.046894  0.054407  0.035512  0.001741  0.000940  0.000089  0.001450
                                 0.000123  0.002415  0.000237

   2.6   0     0.2162   -2.0508  0.000001 -0.000008  0.000041 -0.000165  0.000540 -0.001716  0.004288 -0.013170  0.075635  0.695293
                                 0.588227 -0.226069  0.248779 -0.559002 -0.510452 -0.773168  1.292170 -0.000075 -0.000004 -0.000223
                                -0.000012 -0.000052 -0.000003

   3.6   0     0.4776   -3.1716 -0.000003  0.000021 -0.000108  0.000438 -0.001495  0.003967 -0.013985  0.046526 -0.208579 -1.882628
                                -1.692661  0.471572 -0.788301  1.864280  1.293944  2.001841 -0.840325 -0.000250 -0.000013 -0.001054
                                -0.000057  0.000343  0.000021

                                   1 3d1-    1 3d1-    1 3d1-    1 3d1-    1 3d1-    1 3d1-    1 3d1-    1 3d1-    1 3d1-    1 3d1- 
                                   1 3d1-    1 3d1-    1 3d1-    1 3d1-    1 3d1-    1 3d1-    1 3d1-    1 5g1-    1 5g3-    1 5g1- 
                                   1 5g3-    1 5g1-    1 5g3- 

   1.7   2    -0.2807  -11.3555  0.000000 -0.000002  0.000012 -0.000047  0.000294  0.000975  0.007529 -0.031509  0.033903  0.206050
                                 0.359981  0.334747  0.184011  0.047620  0.054338  0.035438  0.001836  0.000987  0.000090  0.001535
                                 0.000123  0.002540  0.000240

   2.7   0     0.2162   -2.0507  0.000001 -0.000008  0.000041 -0.000165  0.000541 -0.001718  0.004288 -0.013168  0.075675  0.695692
                                 0.588499 -0.226338  0.248806 -0.559596 -0.510813 -0.773692  1.292439 -0.000082 -0.000004 -0.000243
                                -0.000012 -0.000059 -0.000003

   3.7   0     0.4780   -3.1725 -0.000003  0.000021 -0.000108  0.000438 -0.001497  0.003972 -0.014005  0.046595 -0.208848 -1.884992
                                -1.694853  0.471997 -0.789790  1.864873  1.295501  2.004277 -0.840132 -0.000273 -0.000013 -0.001143
                                -0.000056  0.000363  0.000020

                                   1 4f2-    1 4f2-    1 4f2-    1 4f2- 

   1.8   0     1.0343   -4.1774 -0.003063  0.131708 -0.208966  1.103328

   2.8   0     2.1828   -5.2663  0.217248 -0.046353  1.264861 -0.780480

 HOMO      1.4    -0.252985 =      -6.8841eV
 LUMO      2.5     0.069084 =       1.8799eV
 LUMO-HOMO         0.322069 =       8.7639eV


 **********************************************************************************************************************************
 DATASETS  * FILE   NREC   LENGTH (MB)   RECORD NAMES
              1      19       20.40       500      610      700      900      950      970     1000      129      960     1100   
                                          VAR    BASINP    GEOM    SYMINP    ZMAT    AOBASIS   BASIS     P2S    ABASIS      S 
                                         1400     1410     1420     1200     1210     1080     1600     1650     1700   
                                           T        V       ECP      H0       H01     AOSYM     SMH    MOLCAS    OPER   

              2       5        5.66       200      700     1000      520     4202   
                                        OPTIONS   GEOM     BASIS   MCVARS     RHF  

 PROGRAMS   *        TOTAL       RHF  RCCSD(T)       RHF       INT
 CPU TIMES  *        41.91      0.84     13.49      0.54     26.72
 REAL TIME  *        51.65 SEC
 DISK USED  *         3.80 GB      
 SF USED    *       440.31 MB      
 GA USED    *         0.00 MB       (max)       0.00 MB       (current)
 **********************************************************************************************************************************


 PROGRAM * POP (Mulliken population analysis)

 
 Density matrix read from record         4202.2  Type=RHF/CHARGE (state 1.1)
 
 Population analysis by basis function type

 Unique atom        s        p        d        f        g    Total    Charge
   1  PD      4.00003  5.99968  8.99973  0.00032  0.00023 19.00000  - 1.00000


 **********************************************************************************************************************************
 DATASETS  * FILE   NREC   LENGTH (MB)   RECORD NAMES
              1      19       20.40       500      610      700      900      950      970     1000      129      960     1100   
                                          VAR    BASINP    GEOM    SYMINP    ZMAT    AOBASIS   BASIS     P2S    ABASIS      S 
                                         1400     1410     1420     1200     1210     1080     1600     1650     1700   
                                           T        V       ECP      H0       H01     AOSYM     SMH    MOLCAS    OPER   

              2       5        5.66       200      700     1000      520     4202   
                                        OPTIONS   GEOM     BASIS   MCVARS     RHF  

 PROGRAMS   *        TOTAL       POP       RHF  RCCSD(T)       RHF       INT
 CPU TIMES  *        41.91      0.00      0.84     13.49      0.54     26.72
 REAL TIME  *        51.67 SEC
 DISK USED  *         3.80 GB      
 SF USED    *       440.31 MB      
 GA USED    *         0.00 MB       (max)       0.00 MB       (current)
 **********************************************************************************************************************************


 PROGRAM * MULTI (Direct Multiconfiguration SCF)       Authors: P.J. Knowles, H.-J. Werner (1984)     S.T. Elbert (1988)


 Number of closed-shell orbitals:   5 (   2   1   1   0   1   0   0   0 )
 Number of active  orbitals:        5 (   2   0   0   1   0   1   1   0 )
 Number of external orbitals:     232 (  69  31  31  22  31  22  22   4 )

 State symmetry 1

 Number of electrons:     9    Spin symmetry=Doublet   Space symmetry=1
 Number of states:        2
 Number of CSFs:          2   (2 determinants, 5 intermediate states)

 State symmetry 2

 Number of electrons:     9    Spin symmetry=Doublet   Space symmetry=4
 Number of states:        1
 Number of CSFs:          1   (1 determinants, 5 intermediate states)

 State symmetry 3

 Number of electrons:     9    Spin symmetry=Doublet   Space symmetry=6
 Number of states:        1
 Number of CSFs:          1   (1 determinants, 5 intermediate states)

 State symmetry 4

 Number of electrons:     9    Spin symmetry=Doublet   Space symmetry=7
 Number of states:        1
 Number of CSFs:          1   (1 determinants, 5 intermediate states)

 Molecular orbitals read from record     4202.2  Type=RHF/CANONICAL (state 1.1)
 *** IN SYMMETRY 1 ORBITAL  1 SYMMETRY CONTAMINATION OF 0.334D-02 HAS BEEN REMOVED
 *** IN SYMMETRY 1 ORBITAL  2 SYMMETRY CONTAMINATION OF 0.118D-01 HAS BEEN REMOVED
 *** IN SYMMETRY 1 ORBITAL  3 SYMMETRY CONTAMINATION OF 0.583D-01 HAS BEEN REMOVED
 *** IN SYMMETRY 1 ORBITAL  4 SYMMETRY CONTAMINATION OF 0.144D+00 HAS BEEN REMOVED

 EXTRA SYMMETRY OF MOS IN SYMMETRY 1:   1 1 3 2 1 1 2 3 1 2   3 1 2 3 1 2 3 4 6 5   2 3 1 4 6 5 2 3 1 4   6 5 2 3 1 2 3 2 3 1
                                        2 3 1 1 2 3 1 2 3 1   2 3 1 1 2 3 1 2 3 1   1 2 3 1 1 1 1 1 1 1   1 1 1
 *** IN SYMMETRY 2 ORBITAL  1 SYMMETRY CONTAMINATION OF 0.668D-02 HAS BEEN REMOVED
 EXTRA SYMMETRY OF MOS IN SYMMETRY 2:   1 1 1 1 1 1 2 3 2 3   1 2 3 1 2 3 1 1 1 1   1 1 1 1 1 1 1 1 1 1   1 1
 *** IN SYMMETRY 3 ORBITAL  1 SYMMETRY CONTAMINATION OF 0.624D-02 HAS BEEN REMOVED
 EXTRA SYMMETRY OF MOS IN SYMMETRY 3:   1 1 1 1 1 1 2 3 2 3   1 2 3 1 2 3 1 1 1 1   1 1 1 1 1 1 1 1 1 1   1 1
 *** IN SYMMETRY 4 ORBITAL  1 SYMMETRY CONTAMINATION OF 0.392D-02 HAS BEEN REMOVED
 EXTRA SYMMETRY OF MOS IN SYMMETRY 4:   1 1 1 1 1 2 3 1 2 3   1 2 3 1 1 1 1 1 1 1   1 1 1
 *** IN SYMMETRY 5 ORBITAL  1 SYMMETRY CONTAMINATION OF 0.448D-02 HAS BEEN REMOVED
 EXTRA SYMMETRY OF MOS IN SYMMETRY 5:   1 1 1 1 1 1 2 3 2 3   1 2 3 1 2 3 1 1 1 1   1 1 1 1 1 1 1 1 1 1   1 1
 *** IN SYMMETRY 6 ORBITAL  1 SYMMETRY CONTAMINATION OF 0.403D-02 HAS BEEN REMOVED
 EXTRA SYMMETRY OF MOS IN SYMMETRY 6:   1 1 1 1 1 2 3 1 2 3   1 2 3 1 1 1 1 1 1 1   1 1 1
 *** IN SYMMETRY 7 ORBITAL  1 SYMMETRY CONTAMINATION OF 0.423D-02 HAS BEEN REMOVED
 EXTRA SYMMETRY OF MOS IN SYMMETRY 7:   1 1 1 1 1 2 3 1 2 3   1 2 3 1 1 1 1 1 1 1   1 1 1

 Wavefunction dump at record             5202.2

 Convergence thresholds  0.10E-01 (gradient)  0.10E-05 (energy)  0.10E-02 (step length)

 Weight factors for state symmetry  1:    0.20000   0.20000
 Weight factors for state symmetry  2:    0.20000
 Weight factors for state symmetry  3:    0.20000
 Weight factors for state symmetry  4:    0.20000

 Number of orbital rotations:      439   (     4 Core/Active    231 Core/Virtual   0 Active/Active    204 Active/Virtual)
 Total number of variables:        446


 ITER. MIC  NCI  NEG     ENERGY(VAR)     ENERGY(PROJ)   ENERGY CHANGE     GRAD(0)  GRAD(ORB)   GRAD(CI)     STEP       TIME

   1   37   16    0    -126.87037901    -126.87136656   -0.00098755    0.04547407 0.00000000 0.00000000  0.29D-01      0.36
   2   25   20    0    -126.87136703    -126.87136718   -0.00000015    0.00029566 0.00000000 0.00000000  0.96D-03      0.65
   3   25   20    0    -126.87136718    -126.87136718   -0.00000000    0.00000012 0.00000000 0.00000000  0.42D-06      0.88

 ** WVFN ****  CONVERGENCE REACHED, FINAL GRADIENT:  0.11D-10



 Results for state 1.1
 =====================

 !MCSCF STATE 1.1 Energy             -126.871367182830
 Nuclear energy                         0.00000000
 Kinetic energy                        48.03546381
 One electron energy                 -229.41873072
 Two electron energy                  102.54736354
 Virial ratio                           3.64120209

 !MCSCF STATE 1.1 Dipole moment         0.00000000     0.00000000     0.00000000
 Dipole moment /Debye                   0.00000000     0.00000000     0.00000000

 Results for state 2.1
 =====================

 !MCSCF STATE 2.1 Energy             -126.871367182830
 Nuclear energy                         0.00000000
 Kinetic energy                        48.03546381
 One electron energy                 -229.41873072
 Two electron energy                  102.54736354
 Virial ratio                           3.64120209

 !MCSCF STATE 2.1 Dipole moment         0.00000000     0.00000000     0.00000000
 Dipole moment /Debye                   0.00000000     0.00000000     0.00000000



 Results for state 1.4
 =====================

 !MCSCF STATE 1.4 Energy             -126.871367182830
 Nuclear energy                         0.00000000
 Kinetic energy                        48.03546381
 One electron energy                 -229.41873072
 Two electron energy                  102.54736354
 Virial ratio                           3.64120209

 !MCSCF STATE 1.4 Dipole moment         0.00000000     0.00000000     0.00000000
 Dipole moment /Debye                   0.00000000     0.00000000     0.00000000



 Results for state 1.6
 =====================

 !MCSCF STATE 1.6 Energy             -126.871367182830
 Nuclear energy                         0.00000000
 Kinetic energy                        48.03546381
 One electron energy                 -229.41873072
 Two electron energy                  102.54736354
 Virial ratio                           3.64120209

 !MCSCF STATE 1.6 Dipole moment         0.00000000     0.00000000     0.00000000
 Dipole moment /Debye                   0.00000000     0.00000000     0.00000000



 Results for state 1.7
 =====================

 !MCSCF STATE 1.7 Energy             -126.871367182830
 Nuclear energy                         0.00000000
 Kinetic energy                        48.03546381
 One electron energy                 -229.41873072
 Two electron energy                  102.54736354
 Virial ratio                           3.64120209

 !MCSCF STATE 1.7 Dipole moment         0.00000000     0.00000000     0.00000000
 Dipole moment /Debye                   0.00000000     0.00000000     0.00000000

 State-averaged charge density matrix saved on record  5202.2 (density set 1)


 NATURAL ORBITALS (state averaged)
 =================================

   Orb     Occ        Energy       Coefficients

                                   1 1s      1 1s      1 1s      1 1s      1 1s      1 1s      1 1s      1 1s      1 1s      1 1s   
                                   1 1s      1 1s      1 1s      1 1s      1 1s      1 1s      1 1s      1 1s      1 1s      1 1s   
                                   1 1s      1 1s      1 1s      1 1s      1 1s      1 1s      1 1s      1 1s      1 1s      1 1s   
                                   1 3d0     1 3d2+    1 3d0     1 3d2+    1 3d0     1 3d2+    1 3d0     1 3d2+    1 3d0     1 3d2+ 
                                   1 3d0     1 3d2+    1 3d0     1 3d2+    1 3d0     1 3d2+    1 3d0     1 3d2+    1 3d0     1 3d2+ 
                                   1 3d0     1 3d2+    1 3d0     1 3d2+    1 3d0     1 3d2+    1 3d0     1 3d2+    1 3d0     1 3d2+ 
                                   1 3d0     1 3d2+    1 3d0     1 3d2+    1 5g0     1 5g4+    1 5g2+    1 5g0     1 5g4+    1 5g2+ 
                                   1 5g0     1 5g4+    1 5g2+ 

   1.1  2.00000    -3.807347    -0.000000  0.000000 -0.000000  0.000000 -0.000000  0.000000 -0.000001  0.000003 -0.000010  0.000027
                                -0.000073  0.000189 -0.000485  0.001236 -0.003169  0.008312 -0.021384  0.023451  0.197987 -0.664666
                                -0.147230  0.883355  0.518273  0.030956 -0.014397  0.006928  0.046728 -0.046177 -0.002888  0.000714
                                 0.000000  0.000000  0.000000  0.000000  0.000000  0.000000  0.000000  0.000000  0.000000  0.000000
                                 0.000000  0.000000  0.000000  0.000000  0.000000  0.000000  0.000000  0.000000  0.000000  0.000000
                                 0.000000  0.000000  0.000000  0.000000  0.000000  0.000000  0.000000  0.000000  0.000000  0.000000
                                 0.000000  0.000000  0.000000  0.000000  0.000000  0.000000  0.000000  0.000000  0.000000  0.000000
                                 0.000000  0.000000  0.000000

   2.1  2.00000    -0.022751     0.000000 -0.000000  0.000000 -0.000000  0.000000 -0.000000  0.000000 -0.000001  0.000002 -0.000005
                                 0.000014 -0.000036  0.000094 -0.000240  0.000618 -0.001643  0.004338 -0.005152 -0.041386  0.155946
                                 0.045994 -0.269101 -0.225875  0.105494  0.316788  0.350760 -0.033376  0.057117  0.295494  0.127686
                                 0.000000  0.000000  0.000000  0.000000  0.000000  0.000000  0.000000  0.000000  0.000000  0.000000
                                 0.000000  0.000000  0.000000  0.000000  0.000000  0.000000  0.000000  0.000000  0.000000  0.000000
                                 0.000000  0.000000  0.000000  0.000000  0.000000  0.000000  0.000000  0.000000  0.000000  0.000000
                                 0.000000  0.000000  0.000000  0.000000  0.000000  0.000000  0.000000  0.000000  0.000000  0.000000
                                 0.000000  0.000000  0.000000

   3.1  1.80000    -0.213822     0.000000  0.000000  0.000000  0.000000  0.000000  0.000000  0.000000  0.000000  0.000000  0.000000
                                 0.000000  0.000000  0.000000  0.000000  0.000000  0.000000  0.000000  0.000000  0.000000  0.000000
                                 0.000000  0.000000  0.000000  0.000000  0.000000  0.000000  0.000000  0.000000  0.000000  0.000000
                                 0.000000  0.000000 -0.000002  0.000000  0.000012  0.000000 -0.000047  0.000000  0.000293  0.000000
                                 0.000973  0.000000  0.007516  0.000000 -0.031449  0.000000  0.033862  0.000000  0.205849  0.000000
                                 0.359530  0.000000  0.334514  0.000000  0.185212  0.000000  0.048892  0.000000  0.054075  0.000000
                                 0.035183  0.000000  0.002018  0.000000  0.000000  0.000000  0.000000  0.000000  0.000000  0.000000
                                 0.000000  0.000000  0.000000

   4.1  1.80000    -0.213822     0.000000  0.000000  0.000000  0.000000  0.000000  0.000000  0.000000  0.000000  0.000000  0.000000
                                 0.000000  0.000000  0.000000  0.000000  0.000000  0.000000  0.000000  0.000000  0.000000  0.000000
                                 0.000000  0.000000  0.000000  0.000000  0.000000  0.000000  0.000000  0.000000  0.000000  0.000000
                                 0.000000  0.000000  0.000000 -0.000002  0.000000  0.000012  0.000000 -0.000047  0.000000  0.000293
                                 0.000000  0.000973  0.000000  0.007516  0.000000 -0.031449  0.000000  0.033862  0.000000  0.205849
                                 0.000000  0.359530  0.000000  0.334514  0.000000  0.185212  0.000000  0.048892  0.000000  0.054075
                                 0.000000  0.035183  0.000000  0.002018  0.000000  0.000000  0.000000  0.000000  0.000000  0.000000
                                 0.000000  0.000000  0.000000

                                   1 2px     1 2px     1 2px     1 2px     1 2px     1 2px     1 2px     1 2px     1 2px     1 2px  
                                   1 2px     1 2px     1 2px     1 2px     1 2px     1 2px     1 2px     1 2px     1 2px     1 2px  
                                   1 2px     1 2px     1 2px     1 2px     1 4f1+    1 4f3+    1 4f1+    1 4f3+    1 4f1+    1 4f3+ 
                                   1 4f1+    1 4f3+ 

   1.2  2.00000    -2.365944    -0.000000  0.000000 -0.000000  0.000000 -0.000001  0.000003 -0.000010  0.000033 -0.000097  0.000271
                                -0.000603 -0.000226  0.032229 -0.126524  0.035517  0.360361  0.283221  0.035975 -0.003371  0.002438
                                -0.152310  0.532808 -0.000989  0.000330  0.000000  0.000000  0.000000  0.000000  0.000000  0.000000
                                 0.000000  0.000000

                                   1 2py     1 2py     1 2py     1 2py     1 2py     1 2py     1 2py     1 2py     1 2py     1 2py  
                                   1 2py     1 2py     1 2py     1 2py     1 2py     1 2py     1 2py     1 2py     1 2py     1 2py  
                                   1 2py     1 2py     1 2py     1 2py     1 4f1-    1 4f3-    1 4f1-    1 4f3-    1 4f1-    1 4f3- 
                                   1 4f1-    1 4f3- 

   1.3  2.00000    -2.365944    -0.000000  0.000000 -0.000000  0.000000 -0.000001  0.000003 -0.000010  0.000033 -0.000097  0.000271
                                -0.000603 -0.000226  0.032229 -0.126524  0.035517  0.360361  0.283221  0.035975 -0.003371  0.002438
                                -0.152310  0.532808 -0.000989  0.000330  0.000000  0.000000  0.000000  0.000000  0.000000  0.000000
                                 0.000000  0.000000

                                   1 3d2-    1 3d2-    1 3d2-    1 3d2-    1 3d2-    1 3d2-    1 3d2-    1 3d2-    1 3d2-    1 3d2- 
                                   1 3d2-    1 3d2-    1 3d2-    1 3d2-    1 3d2-    1 3d2-    1 3d2-    1 5g2-    1 5g4-    1 5g2- 
                                   1 5g4-    1 5g2-    1 5g4- 

   1.4  1.80000    -0.213822     0.000000 -0.000002  0.000012 -0.000047  0.000293  0.000973  0.007516 -0.031449  0.033862  0.205849
                                 0.359530  0.334514  0.185212  0.048892  0.054075  0.035183  0.002018  0.000000  0.000000  0.000000
                                 0.000000  0.000000  0.000000

                                   1 2pz     1 2pz     1 2pz     1 2pz     1 2pz     1 2pz     1 2pz     1 2pz     1 2pz     1 2pz  
                                   1 2pz     1 2pz     1 2pz     1 2pz     1 2pz     1 2pz     1 2pz     1 2pz     1 2pz     1 2pz  
                                   1 2pz     1 2pz     1 2pz     1 2pz     1 4f0     1 4f2+    1 4f0     1 4f2+    1 4f0     1 4f2+ 
                                   1 4f0     1 4f2+ 

   1.5  2.00000    -2.365944    -0.000000  0.000000 -0.000000  0.000000 -0.000001  0.000003 -0.000010  0.000033 -0.000097  0.000271
                                -0.000603 -0.000226  0.032229 -0.126524  0.035517  0.360361  0.283221  0.035975 -0.003371  0.002438
                                -0.152310  0.532808 -0.000989  0.000330  0.000000  0.000000  0.000000  0.000000  0.000000  0.000000
                                 0.000000  0.000000

                                   1 3d1+    1 3d1+    1 3d1+    1 3d1+    1 3d1+    1 3d1+    1 3d1+    1 3d1+    1 3d1+    1 3d1+ 
                                   1 3d1+    1 3d1+    1 3d1+    1 3d1+    1 3d1+    1 3d1+    1 3d1+    1 5g1+    1 5g3+    1 5g1+ 
                                   1 5g3+    1 5g1+    1 5g3+ 

   1.6  1.80000    -0.213822     0.000000 -0.000002  0.000012 -0.000047  0.000293  0.000973  0.007516 -0.031449  0.033862  0.205849
                                 0.359530  0.334514  0.185212  0.048892  0.054075  0.035183  0.002018  0.000000  0.000000  0.000000
                                 0.000000  0.000000  0.000000

                                   1 3d1-    1 3d1-    1 3d1-    1 3d1-    1 3d1-    1 3d1-    1 3d1-    1 3d1-    1 3d1-    1 3d1- 
                                   1 3d1-    1 3d1-    1 3d1-    1 3d1-    1 3d1-    1 3d1-    1 3d1-    1 5g1-    1 5g3-    1 5g1- 
                                   1 5g3-    1 5g1-    1 5g3- 

   1.7  1.80000    -0.213822     0.000000 -0.000002  0.000012 -0.000047  0.000293  0.000973  0.007516 -0.031449  0.033862  0.205849
                                 0.359530  0.334514  0.185212  0.048892  0.054075  0.035183  0.002018  0.000000  0.000000  0.000000
                                 0.000000  0.000000  0.000000

 Total charge:  -1.000000000000
 

 EXTRA SYMMETRY OF MOS IN SYMMETRY 1:   1 1 2 3 1 1 3 2 1 2   3 1 2 3 1 2 3 4 5 6   2 3 1 5 4 6 2 3 1 5   6 4 2 3 1 2 3 3 2 1
                                        2 3 1 1 3 2 1 2 3 1   3 2 1 1 2 3 1 2 3 1   1 2 3 1 1 1 1 1 1 1   1 1 1
 EXTRA SYMMETRY OF MOS IN SYMMETRY 2:   1 1 1 1 1 1 3 2 3 2   1 3 2 1 3 2 1 1 1 1   1 1 1 1 1 1 1 1 1 1   1 1
 EXTRA SYMMETRY OF MOS IN SYMMETRY 3:   1 1 1 1 1 1 2 3 2 3   1 3 2 1 2 3 1 1 1 1   1 1 1 1 1 1 1 1 1 1   1 1
 EXTRA SYMMETRY OF MOS IN SYMMETRY 4:   1 1 1 1 1 2 3 1 3 2   1 3 2 1 1 1 1 1 1 1   1 1 1
 EXTRA SYMMETRY OF MOS IN SYMMETRY 5:   1 1 1 1 1 1 3 2 3 2   1 3 2 1 2 3 1 1 1 1   1 1 1 1 1 1 1 1 1 1   1 1
 EXTRA SYMMETRY OF MOS IN SYMMETRY 7:   1 1 1 1 1 3 2 1 3 2   1 3 2 1 1 1 1 1 1 1   1 1 1

 Natural orbital dump (state averaged) at molpro section  5202.2    (Orbital set 2)


 CI vector for state symmetry 1
 ==============================

 a2 2 2 2          1.0000000   0.0000000
 2a 2 2 2          0.0000000   1.0000000

 TOTAL ENERGIES                      -126.87136718  -126.87136718

 CI vector for state symmetry 2
 ==============================

 22 a 2 2          1.0000000

 TOTAL ENERGIES                      -126.87136718

 CI vector for state symmetry 3
 ==============================

 22 2 a 2          1.0000000

 TOTAL ENERGIES                      -126.87136718

 CI vector for state symmetry 4
 ==============================

 22 2 2 a          1.0000000

 TOTAL ENERGIES                      -126.87136718



 **********************************************************************************************************************************
 DATASETS  * FILE   NREC   LENGTH (MB)   RECORD NAMES
              1      20       25.81       500      610      700      900      950      970     1000      129      960     1100   
                                          VAR    BASINP    GEOM    SYMINP    ZMAT    AOBASIS   BASIS     P2S    ABASIS      S 
                                         1400     1410     1420     1200     1210     1080     1600     1650     1700     1380   
                                           T        V       ECP      H0       H01     AOSYM     SMH    MOLCAS    OPER     JKOP   

              2       6        8.52       200      700     1000      520     4202     5202   
                                        OPTIONS   GEOM     BASIS   MCVARS     RHF     MCSCF   

 PROGRAMS   *        TOTAL     MULTI       POP       RHF  RCCSD(T)       RHF       INT
 CPU TIMES  *        43.09      1.18      0.00      0.84     13.49      0.54     26.72
 REAL TIME  *        54.26 SEC
 DISK USED  *         3.80 GB      
 SF USED    *       440.31 MB      
 GA USED    *         0.00 MB       (max)       0.00 MB       (current)
 **********************************************************************************************************************************


 PROGRAM * RHF-SCF (OPEN SHELL)       Authors: W. Meyer, H.-J. Werner


 NUMBER OF ELECTRONS:      10+    9-    SPACE SYMMETRY=1    SPIN SYMMETRY: Doublet 
 CONVERGENCE THRESHOLDS:    1.00E-05 (Density)    1.00E-07 (Energy)
 MAX. NUMBER OF ITERATIONS:        0
 INTERPOLATION TYPE:            DIIS
 INTERPOLATION STEPS:              2 (START)      1 (STEP)
 LEVEL SHIFTS:                 -0.60 (CLOSED) -0.30 (OPEN) 

 Number of closed-shell orbitals:    9 (   3   1   1   1   1   1   1   0 )
 Number of open-shell orbitals:      1 (   1   0   0   0   0   0   0   0 )


 Molecular orbitals read from record     5202.2  Type=MCSCF/NATURAL (state averaged)

 Molecular orbital dump at record        2102.2

 ITERATION    DDIFF          GRAD             ENERGY        2-EL.EN.            DIPOLE MOMENTS         DIIS   ORB.
    1      0.000D+00      0.000D+00      -126.87136718    205.094727    0.00000    0.00000    0.00000    0    start

 Final alpha occupancy:   4   1   1   1   1   1   1   0
 Final beta  occupancy:   3   1   1   1   1   1   1   0

 !RHF STATE 1.1 Energy               -126.871367182830
 Nuclear energy                         0.00000000
 One-electron energy                 -229.41873072
 Two-electron energy                  102.54736354
 Virial quotient                       -2.64120209
 !RHF STATE 1.1 Dipole moment           0.00000000     0.00000000     0.00000000
 Dipole moment /Debye                   0.00000000     0.00000000     0.00000000

 Orbital energies:

         1.1          2.1          3.1          4.1          5.1          6.1
     -3.807347    -0.022751    -0.213822    -0.213822     0.076762     0.161485

         1.2          2.2          3.2
     -2.365944     0.069112     0.130267

         1.3          2.3          3.3
     -2.365944     0.069112     0.130267

         1.4          2.4          3.4
     -0.213822     0.216483     0.480198

         1.5          2.5          3.5
     -2.365944     0.069112     0.130267

         1.6          2.6          3.6
     -0.213822     0.216483     0.480198

         1.7          2.7          3.7
     -0.213822     0.216483     0.480198

         1.8          2.8
      1.036107     2.191385

 HOMO      4.1    -0.213822 =      -5.8184eV
 LUMO      2.2     0.069112 =       1.8806eV
 LUMO-HOMO         0.282934 =       7.6990eV


 **********************************************************************************************************************************
 DATASETS  * FILE   NREC   LENGTH (MB)   RECORD NAMES
              1      20       25.81       500      610      700      900      950      970     1000      129      960     1100   
                                          VAR    BASINP    GEOM    SYMINP    ZMAT    AOBASIS   BASIS     P2S    ABASIS      S 
                                         1400     1410     1420     1200     1210     1080     1600     1650     1700     1380   
                                           T        V       ECP      H0       H01     AOSYM     SMH    MOLCAS    OPER     JKOP   

              2       7       11.55       200      700     1000      520     4202     5202     2102   
                                        OPTIONS   GEOM     BASIS   MCVARS     RHF     MCSCF     RHF  

 PROGRAMS   *        TOTAL       RHF     MULTI       POP       RHF  RCCSD(T)       RHF       INT
 CPU TIMES  *        43.42      0.32      1.18      0.00      0.84     13.49      0.54     26.72
 REAL TIME  *        54.64 SEC
 DISK USED  *         3.80 GB      
 SF USED    *       440.31 MB      
 GA USED    *         0.00 MB       (max)       0.00 MB       (current)
 **********************************************************************************************************************************
 SETTING SCF(2)         =      -126.87136718  AU                              
 SETTING _CC_NORM_MAX   =         2.00000000                                  


[...]

              2      17       37.89       200      700     1000      520     4202     5202     2102     2105     5202(1)  2107   
                                        OPTIONS   GEOM     BASIS   MCVARS     RHF     MCSCF     RHF      RHF     MCSCF     RHF  
                                         2109     2111     2113     2115     2117     2119     2120   
                                          RHF      RHF      RHF      RHF      RHF      RHF      RHF  

 PROGRAMS   *        TOTAL       RHF  RCCSD(T)       RHF  RCCSD(T)       RHF  RCCSD(T)       RHF     MULTI       POP       RHF
 CPU TIMES  *       199.81      0.65      3.50      1.02      6.49      1.87      9.70      0.28      1.32      0.00      0.51
 REAL TIME  *       278.55 SEC
 DISK USED  *         4.36 GB      
 SF USED    *       496.45 MB      
 GA USED    *         0.00 MB       (max)       0.00 MB       (current)
 **********************************************************************************************************************************
 SETTING SCF(12)        =       -69.81018928  AU                              
 SETTING _CC_NORM_MAX   =         2.00000000                                  


 PROGRAM * CCSD (Restricted open-shell coupled cluster)     Authors: C. Hampel, H.-J. Werner, 1991, M. Deegan, P.J. Knowles, 1992


 Convergence thresholds:  THRVAR = 1.00D-08  THRDEN = 1.00D-06

 CCSD(T)     terms to be evaluated (factor= 1.000)


 Number of closed-shell orbitals:   1 (   1   0   0   0   0   0   0   0 )
 Number of active  orbitals:        3 (   0   1   1   0   1   0   0   0 )
 Number of external orbitals:     238 (  72  31  31  23  31  23  23   4 )

 Memory could be reduced to 19.53 Mwords without degradation in triples

 Number of N-1 electron functions:               5
 Number of N-2 electron functions:              10
 Number of singly external CSFs:               240
 Number of doubly external CSFs:             54682
 Total number of CSFs:                       54922

 Molecular orbitals read from record     2120.2  Type=RHF/CANONICAL (state 1.8)

 Integral transformation finished. Total CPU:   0.27 sec, npass=  1  Memory used:   2.49 MW

 Starting RMP2 calculation

 Wavefunction is spin-projected

 ITER.      SQ.NORM     CORR.ENERGY   TOTAL ENERGY   ENERGY CHANGE        DEN1      VAR(S)    VAR(P)  DIIS     TIME
   1      1.02014939    -0.14464839   -69.95483767    -0.14464839    -0.00011731  0.12D-07  0.18D-04  1  1     0.37
   2      1.02019391    -0.14477042   -69.95495970    -0.00012203    -0.00000001  0.33D-11  0.17D-08  2  2     0.37
   3      1.02019413    -0.14477085   -69.95496013    -0.00000043    -0.00000000  0.39D-15  0.16D-12  3  3     0.37

 Norm of t1 vector:      0.00841555      S-energy:    -0.00055585      T1 diagnostic:  0.00012570
 Norm of t2 vector:      0.14185666      P-energy:    -0.14421499
                                         Alpha-Beta:  -0.10963678
                                         Alpha-Alpha: -0.03457821
                                         Beta-Beta:    0.00000000

 Spin contamination <S**2-Sz**2-Sz>     0.00000000
  Reference energy                    -69.810189282846
  RHF-RMP2 correlation energy          -0.144770845717
 !RHF-RMP2 energy                     -69.954960128563
 (NB above energy spin projected)

 Starting RCCSD calculation

 ITER.      SQ.NORM     CORR.ENERGY   TOTAL ENERGY   ENERGY CHANGE        DEN1      VAR(S)    VAR(P)  DIIS     TIME
   1      1.02453491    -0.15710457   -69.96729385    -0.15710457    -0.00268813  0.99D-05  0.40D-03  1  1     0.44
   2      1.02578319    -0.15996083   -69.97015011    -0.00285626    -0.00003097  0.15D-07  0.41D-05  2  2     0.52
   3      1.02588633    -0.16010815   -69.97029743    -0.00014732    -0.00000038  0.67D-09  0.46D-07  3  3     0.59
   4      1.02589548    -0.16012164   -69.97031092    -0.00001349    -0.00000000  0.22D-10  0.20D-09  4  4     0.65
   5      1.02589560    -0.16012156   -69.97031085     0.00000007    -0.00000000  0.83D-13  0.12D-11  5  5     0.78

 Norm of t1 vector:      0.00883864      S-energy:    -0.00053402      T1 diagnostic:  0.00111469
                                                                       D1 diagnostic:  0.00160200
 Norm of t2 vector:      0.16067819      P-energy:    -0.15958754
                                         Alpha-Beta:  -0.12426780
                                         Alpha-Alpha: -0.03531974
                                         Beta-Beta:    0.00000000

 Spin contamination <S**2-Sz**2-Sz>     0.00000000

 Memory could be reduced to 19.88 Mwords without degradation in triples
 

  Correlated core orbitals:             1.1       1.2       1.3       1.5
  Orbital energies:                   -13.3450  -11.6428  -11.6428  -11.6428
 
  RCCSD core-core energy               -0.160121562976
 

 RESULTS
 =======

  Reference energy                    -69.810189282846
  RCCSD singles energy                 -0.000534023699
  RCCSD pair energy                    -0.159587539277
  RCCSD correlation energy             -0.160121562976
  Triples (T) contribution             -0.002971295950
  Total correlation energy             -0.163092858926
 
  RHF-RCCSD energy                    -69.970310845822
  RHF-RCCSD[T] energy                 -69.973280261773
  RHF-RCCSD-T energy                  -69.973280549454
 !RHF-RCCSD(T) energy                 -69.973282141772

 Program statistics:

 Available memory in ccsd:               511999732
 Min. memory needed in ccsd:                440371
 Max. memory used in ccsd:                  489107
 Max. memory used in cckext:                507829 ( 5 integral passes)
 Max. memory used in cckint:               2485465 ( 1 integral passes)



 **********************************************************************************************************************************
 DATASETS  * FILE   NREC   LENGTH (MB)   RECORD NAMES
              1      20       25.81       500      610      700      900      950      970     1000      129      960     1100   
                                          VAR    BASINP    GEOM    SYMINP    ZMAT    AOBASIS   BASIS     P2S    ABASIS      S 
                                         1400     1410     1420     1200     1210     1080     1600     1650     1700     1380   
                                           T        V       ECP      H0       H01     AOSYM     SMH    MOLCAS    OPER     JKOP   

              2      17       37.89       200      700     1000      520     4202     5202     2102     2105     5202(1)  2107   
                                        OPTIONS   GEOM     BASIS   MCVARS     RHF     MCSCF     RHF      RHF     MCSCF     RHF  
                                         2109     2111     2113     2115     2117     2119     2120   
                                          RHF      RHF      RHF      RHF      RHF      RHF      RHF  

 PROGRAMS   *        TOTAL  RCCSD(T)       RHF  RCCSD(T)       RHF  RCCSD(T)       RHF  RCCSD(T)       RHF     MULTI       POP
 CPU TIMES  *       201.49      1.68      0.65      3.50      1.02      6.49      1.87      9.70      0.28      1.32      0.00
 REAL TIME  *       281.02 SEC
 DISK USED  *         4.36 GB      
 SF USED    *       496.45 MB      
 GA USED    *         0.00 MB       (max)       0.00 MB       (current)
 **********************************************************************************************************************************
 SETTING CCSD(12)       =       -69.97328214  AU                              

 DO I                   =        13.00000000   

 Running procedure=XVIIS2


 PROGRAM * RHF-SCF (CLOSED SHELL)       Authors: W. Meyer, H.-J. Werner


 NUMBER OF ELECTRONS:       1+    1-    SPACE SYMMETRY=1    SPIN SYMMETRY: Singlet 
 CONVERGENCE THRESHOLDS:    1.00E-05 (Density)    1.00E-07 (Energy)
 MAX. NUMBER OF ITERATIONS:       60
 INTERPOLATION TYPE:            DIIS
 INTERPOLATION STEPS:              2 (START)      1 (STEP)
 LEVEL SHIFTS:                  0.00 (CLOSED)  0.00 (OPEN) 



 Orbital guess generated from atomic densities. Full valence occupancy:    4   1   1   1   1   1   1   0


 Molecular orbital dump at record        2121.2

 Initial occupancy:   1   0   0   0   0   0   0   0

 ITERATION    DDIFF          GRAD             ENERGY        2-EL.EN.            DIPOLE MOMENTS         DIIS   ORB.
    1      0.000D+00      0.000D+00       -31.68960003      1.874231    0.00000    0.00000    0.00000    0    start
    2      0.000D+00      0.168D+00       -32.29043527      2.100445    0.00000    0.00000    0.00000    1    diag
    3      0.355D-01      0.126D-01       -32.29371077      2.116887    0.00000    0.00000    0.00000    2    diag
    4      0.471D-02      0.767D-04       -32.29371086      2.116966    0.00000    0.00000    0.00000    3    diag
    5      0.116D-03      0.186D-05       -32.29371086      2.116964    0.00000    0.00000    0.00000    4    diag
    6      0.791D-06      0.375D-07       -32.29371086      2.116964    0.00000    0.00000    0.00000    0    orth

 Final occupancy:   1   0   0   0   0   0   0   0

 !RHF STATE 1.1 Energy                -32.293710858740
 Nuclear energy                         0.00000000
 One-electron energy                  -33.35219278
 Two-electron energy                    1.05848192
 Virial quotient                       -6.00389444
 !RHF STATE 1.1 Dipole moment           0.00000000     0.00000000     0.00000000
 Dipole moment /Debye                   0.00000000     0.00000000     0.00000000

 Orbital energies:

         1.1          2.1          3.1
    -15.617614   -10.902913   -10.902913

         1.2          2.2
    -13.378219    -8.311821

         1.3          2.3
    -13.378219    -8.311821

         1.4          2.4
    -10.902913    -6.421574

         1.5          2.5
    -13.378219    -8.311821

         1.6          2.6
    -10.902913    -6.421574

         1.7          2.7
    -10.902913    -6.421574

         1.8          2.8
     -8.311821    -5.250218

 HOMO      1.1   -15.617614 =    -424.9769eV
 LUMO      1.2   -13.378219 =    -364.0399eV
 LUMO-HOMO         2.239395 =      60.9371eV


 **********************************************************************************************************************************
 DATASETS  * FILE   NREC   LENGTH (MB)   RECORD NAMES
              1      20       25.81       500      610      700      900      950      970     1000      129      960     1100   
                                          VAR    BASINP    GEOM    SYMINP    ZMAT    AOBASIS   BASIS     P2S    ABASIS      S 
                                         1400     1410     1420     1200     1210     1080     1600     1650     1700     1380   
                                           T        V       ECP      H0       H01     AOSYM     SMH    MOLCAS    OPER     JKOP   

              2      18       40.71       200      700     1000      520     4202     5202     2102     2105     5202(1)  2107   
                                        OPTIONS   GEOM     BASIS   MCVARS     RHF     MCSCF     RHF      RHF     MCSCF     RHF  
                                         2109     2111     2113     2115     2117     2119     2120     2121   
                                          RHF      RHF      RHF      RHF      RHF      RHF      RHF      RHF  

 PROGRAMS   *        TOTAL       RHF  RCCSD(T)       RHF  RCCSD(T)       RHF  RCCSD(T)       RHF  RCCSD(T)       RHF     MULTI
 CPU TIMES  *       202.08      0.59      1.68      0.65      3.50      1.02      6.49      1.87      9.70      0.28      1.32
 REAL TIME  *       281.71 SEC
 DISK USED  *         4.36 GB      
 SF USED    *       496.45 MB      
 GA USED    *         0.00 MB       (max)       0.00 MB       (current)
 **********************************************************************************************************************************
 SETTING SCF(13)        =       -32.29371086  AU                              
 SETTING _CC_NORM_MAX   =         2.00000000                                  


 PROGRAM * CCSD (Restricted open-shell coupled cluster)     Authors: C. Hampel, H.-J. Werner, 1991, M. Deegan, P.J. Knowles, 1992


 Convergence thresholds:  THRVAR = 1.00D-08  THRDEN = 1.00D-06

 CCSD(T)     terms to be evaluated (factor= 1.000)


 Number of closed-shell orbitals:   1 (   1   0   0   0   0   0   0   0 )
 Number of external orbitals:     241 (  72  32  32  23  32  23  23   4 )

 Memory could be reduced to 14.26 Mwords without degradation in triples

 Number of N-1 electron functions:               2
 Number of N-2 electron functions:               1
 Number of singly external CSFs:               144
 Number of doubly external CSFs:              9859
 Total number of CSFs:                       10003

 Molecular orbitals read from record     2121.2  Type=RHF/CANONICAL (state 1.1)

 Integral transformation finished. Total CPU:   0.08 sec, npass=  1  Memory used:   1.01 MW

 Starting RMP2 calculation

 Wavefunction is spin-projected

 ITER.      SQ.NORM     CORR.ENERGY   TOTAL ENERGY   ENERGY CHANGE        DEN1      VAR(S)    VAR(P)  DIIS     TIME
   1      1.01144336    -0.06101556   -32.35472642    -0.06101556    -0.00008441  0.74D-19  0.18D-04  1  1     0.26
   2      1.01148143    -0.06110347   -32.35481433    -0.00008791    -0.00000000  0.34D-22  0.35D-09  2  2     0.26
   3      1.01148153    -0.06110363   -32.35481449    -0.00000016    -0.00000000  0.63D-27  0.47D-14  3  3     0.26

 Norm of t1 vector:      0.00000001      S-energy:    -0.00000000      T1 diagnostic:  0.00000001
 Norm of t2 vector:      0.10715190      P-energy:    -0.06110363
                                         Alpha-Beta:  -0.06110363
                                         Alpha-Alpha:  0.00000000
                                         Beta-Beta:    0.00000000

 Spin contamination <S**2-Sz**2-Sz>     0.00000000
  Reference energy                    -32.293710858740
  RHF-RMP2 correlation energy          -0.061103630226
 !RHF-RMP2 energy                     -32.354814488966
 (NB above energy spin projected)

 Starting RCCSD calculation

 ITER.      SQ.NORM     CORR.ENERGY   TOTAL ENERGY   ENERGY CHANGE        DEN1      VAR(S)    VAR(P)  DIIS     TIME
   1      1.01586908    -0.06879343   -32.36250429    -0.06879343    -0.00322523  0.34D-05  0.64D-03  1  1     0.29
   2      1.01866529    -0.07312594   -32.36683680    -0.00433252    -0.00003137  0.29D-07  0.40D-05  2  2     0.31
   3      1.01887318    -0.07339433   -32.36710519    -0.00026838    -0.00000019  0.52D-10  0.18D-07  3  3     0.33
   4      1.01887204    -0.07339066   -32.36710151     0.00000367    -0.00000000  0.19D-12  0.79D-10  4  4     0.34
   5      1.01887251    -0.07339132   -32.36710218    -0.00000066    -0.00000000  0.55D-14  0.10D-12  5  5     0.35

 Norm of t1 vector:      0.00240350      S-energy:    -0.00000000      T1 diagnostic:  0.00120175
                                                                       D1 diagnostic:  0.00169953
 Norm of t2 vector:      0.13735623      P-energy:    -0.07339132
                                         Alpha-Beta:  -0.07339132
                                         Alpha-Alpha:  0.00000000
                                         Beta-Beta:    0.00000000

 Doubles amplitudes (print threshold =  0.500E-01):

         I         J         SYM. A    SYM. B    A         B      T(IJ, AB) [Alpha-Beta]

         1         1         2         2         1         1     -0.07731893
         1         1         3         3         1         1     -0.07731893
         1         1         5         5         1         1     -0.07731893

 Spin contamination <S**2-Sz**2-Sz>     0.00000000

 Memory could be reduced to 13.99 Mwords without degradation in triples
 

  Correlated core orbitals:             1.1
  Orbital energies:                   -15.6176
 
  RCCSD core-core energy               -0.073391318675
 

 RESULTS
 =======

  Reference energy                    -32.293710858740
  RCCSD singles energy                 -0.000000000245
  RCCSD pair energy                    -0.073391318429
  RCCSD correlation energy             -0.073391318675
  Triples (T) contribution              0.000000000000
  Total correlation energy             -0.073391318675
 
  RHF-RCCSD energy                    -32.367102177415
  RHF-RCCSD[T] energy                 -32.367102177415
  RHF-RCCSD-T energy                  -32.367102177415
 !RHF-RCCSD(T) energy                 -32.367102177415

 Program statistics:

 Available memory in ccsd:               511999882
 Min. memory needed in ccsd:                281125
 Max. memory used in ccsd:                  281125
 Max. memory used in cckext:                369777 ( 5 integral passes)
 Max. memory used in cckint:               1009422 ( 1 integral passes)



 **********************************************************************************************************************************
 DATASETS  * FILE   NREC   LENGTH (MB)   RECORD NAMES
              1      20       25.81       500      610      700      900      950      970     1000      129      960     1100   
                                          VAR    BASINP    GEOM    SYMINP    ZMAT    AOBASIS   BASIS     P2S    ABASIS      S 
                                         1400     1410     1420     1200     1210     1080     1600     1650     1700     1380   
                                           T        V       ECP      H0       H01     AOSYM     SMH    MOLCAS    OPER     JKOP   

              2      18       40.71       200      700     1000      520     4202     5202     2102     2105     5202(1)  2107   
                                        OPTIONS   GEOM     BASIS   MCVARS     RHF     MCSCF     RHF      RHF     MCSCF     RHF  
                                         2109     2111     2113     2115     2117     2119     2120     2121   
                                          RHF      RHF      RHF      RHF      RHF      RHF      RHF      RHF  

 PROGRAMS   *        TOTAL  RCCSD(T)       RHF  RCCSD(T)       RHF  RCCSD(T)       RHF  RCCSD(T)       RHF  RCCSD(T)       RHF
 CPU TIMES  *       202.67      0.59      0.59      1.68      0.65      3.50      1.02      6.49      1.87      9.70      0.28
 REAL TIME  *       282.52 SEC
 DISK USED  *         4.36 GB      
 SF USED    *       496.45 MB      
 GA USED    *         0.00 MB       (max)       0.00 MB       (current)
 **********************************************************************************************************************************
 SETTING CCSD(13)       =       -32.36710218  AU                              
 Output type csv         
                                                                                                                                                                                                                                                                

        SCF,CCSD
   -126.87695613,   -127.63406525
   -126.87136718,   -127.64659347
   -126.87140014,   -127.60221351
   -126.79394825,   -127.52049492
   -126.63856047,   -127.32610505
   -126.54931678,   -127.21521436
   -125.99439102,   -126.61582084
   -124.84812242,   -125.41415155
   -123.15111027,   -123.66861083
   -120.90980309,   -121.37170190
    -98.65609612,    -98.97560907
    -69.81018928,    -69.97328214
    -32.29371086,    -32.36710218
                                                  

 RCCSD(T)/USERDEF energy=    -32.367102177415

        RCCSD(T)        RHF-SCF         RCCSD(T)        RHF-SCF         RCCSD(T)        RHF-SCF         RCCSD(T)        RHF-SCF 
    -32.36710218    -32.29371086    -69.97328214    -69.81018928    -98.97560907    -98.65609612   -121.37170190   -120.90980309
 **********************************************************************************************************************************
 Molpro calculation terminated
 Variable memory released
