<?xml version="1.0"?>
<molpro xmlns="http://www.molpro.net/schema/molpro-output"
  xmlns:xsd="http://www.w3.org/1999/XMLSchema"
  xmlns:cml="http://www.xml-cml.org/schema"
  xmlns:stm="http://www.xml-cml.org/schema"
  xmlns:xhtml="http://www.w3.org/1999/xhtml">
 <!--

 Nodes     nprocs
 nid01420    23
 Number of processes for MPI-2 version of Molpro:   nprocs(total)=   24   nprocs(compute)=   23   nprocs(helper)=    1

 Using customized tuning parameters: mindgm=7; mindgv=16; mindgc=1; mindgr=1; noblas=0; minvec=7
 default implementation of scratch files=sf

 --><job>
  <!--

 Variables initialized (889), CPU time= 0.04 sec
 Commands  initialized (702), CPU time= 0.01 sec, 572 directives.
 Default parameters read. Elapsed time= 0.51 sec

 Checking input...
 Passed
1


                                         ***  PROGRAM SYSTEM MOLPRO  ***
                                       Copyright, TTI GmbH Stuttgart, 2015
                                    Version 2015.1 linked Dec 29 2018 15:55:43


 **********************************************************************************************************************************
 LABEL *   Calculation for Ag atom, singlet and triplet
  64 bit mpp version                                                                     DATE: 06-Aug-20          TIME: 16:42:46
 **********************************************************************************************************************************

 SHA1:             19cd028119e0e09f93f0674bd8af7968d9b3eff6
 **********************************************************************************************************************************
  -->
  <!--

Geometry recognized as XYZ


 Variable memory set to  512000000 words,  buffer space   230000 words

 SETTING BASIS          =    USERDEF

 DO I                   =         1.00000000

 Running procedure=IDTEN
  --><jobstep command="RHF-SCF" commandset="SCFPRO">
   <!--


 Recomputing integrals since basis changed


 Using spherical harmonics



 PROGRAM * SEWARD (Integral evaluation for generally contracted gaussian basis sets)     Author: Roland Lindh, 1990

 Geometry written to block  1 of record 700

 Orientation using atomic masses
 Molecule type: Atom
 Symmetry elements: X,Y,Z
 Rotational constants:       0.0000000      0.0000000      0.0000000 GHz  (calculated with average atomic masses)

 Point group  D2h


   --><cml:molecule>
    <cml:symmetry pointGroup="D2h"/>
    <cml:atomArray>
     <cml:atom id="a1" elementType="Pd" x3="0.0" y3="0.0" z3="0.0"/>
    </cml:atomArray>
    <cml:bondArray>
    </cml:bondArray>
   </cml:molecule><!--

 ATOMIC COORDINATES

 NR  ATOM    CHARGE       X              Y              Z

   1  PD     18.00    0.000000000    0.000000000    0.000000000

 NUCLEAR CHARGE:                   18
 NUMBER OF PRIMITIVE AOS:         285
 NUMBER OF SYMMETRY AOS:          238
 NUMBER OF CONTRACTIONS:          238   (  72Ag  +  31B3u +  31B2u +  23B1g +  31B1u +  23B2g +  23B3g +   4Au  )
 NUMBER OF CORE ORBITALS:           4   (   1Ag  +   1B3u +   1B2u +   0B1g +   1B1u +   0B2g +   0B3g +   0Au  )
 NUMBER OF VALENCE ORBITALS:        6   (   3Ag  +   0B3u +   0B2u +   1B1g +   0B1u +   1B2g +   1B3g +   0Au  )


 NUCLEAR REPULSION ENERGY    0.00000000

 EXTRA SYMMETRY OF AOS IN SYMMETRY 1:   1 1 1 1 1 1 1 1 1 1   1 1 1 1 1 1 1 1 1 1   1 1 1 1 1 1 1 1 1 2   3 2 3 2 3 2 3 2 3 2
                                        3 2 3 2 3 2 3 2 3 2   3 2 3 2 3 2 3 2 3 2   3 2 3 4 5 6 4 5 6 4   5 6
 EXTRA SYMMETRY OF AOS IN SYMMETRY 2:   1 1 1 1 1 1 1 1 1 1   1 1 1 1 1 1 1 1 1 1   1 1 1 2 3 2 3 2 3 2   3
 EXTRA SYMMETRY OF AOS IN SYMMETRY 3:   1 1 1 1 1 1 1 1 1 1   1 1 1 1 1 1 1 1 1 1   1 1 1 2 3 2 3 2 3 2   3
 EXTRA SYMMETRY OF AOS IN SYMMETRY 4:   1 1 1 1 1 1 1 1 1 1   1 1 1 1 1 1 1 2 3 2   3 2 3
 EXTRA SYMMETRY OF AOS IN SYMMETRY 5:   1 1 1 1 1 1 1 1 1 1   1 1 1 1 1 1 1 1 1 1   1 1 1 2 3 2 3 2 3 2   3
 EXTRA SYMMETRY OF AOS IN SYMMETRY 6:   1 1 1 1 1 1 1 1 1 1   1 1 1 1 1 1 1 2 3 2   3 2 3
 EXTRA SYMMETRY OF AOS IN SYMMETRY 7:   1 1 1 1 1 1 1 1 1 1   1 1 1 1 1 1 1 2 3 2   3 2 3

 Eigenvalues of metric

         1 0.199E-05 0.951E-05 0.951E-05 0.294E-04 0.121E-03 0.307E-03 0.307E-03 0.364E-03
         2 0.984E-06 0.472E-03 0.163E-02 0.409E-02 0.952E-02 0.187E-01 0.302E-01 0.519E-01
         3 0.984E-06 0.472E-03 0.163E-02 0.409E-02 0.952E-02 0.187E-01 0.302E-01 0.519E-01
         4 0.951E-05 0.307E-03 0.302E-02 0.107E-01 0.287E-01 0.531E-01 0.105E+00 0.148E+00
         5 0.984E-06 0.472E-03 0.163E-02 0.409E-02 0.952E-02 0.187E-01 0.302E-01 0.519E-01
         6 0.951E-05 0.307E-03 0.302E-02 0.107E-01 0.287E-01 0.531E-01 0.105E+00 0.148E+00
         7 0.951E-05 0.307E-03 0.302E-02 0.107E-01 0.287E-01 0.531E-01 0.105E+00 0.148E+00
         8 0.941E-01 0.387E+00 0.119E+01 0.233E+01


 Contracted 2-electron integrals neglected if value below      1.0D-13
 AO integral compression algorithm  1   Integral accuracy      1.0D-13

     392.430 MB (compressed) written to integral file ( 46.2%)

     Node minimum: 0.524 MB, node maximum: 55.050 MB


 NUMBER OF SORTED TWO-ELECTRON INTEGRALS:    2289096.     BUFFER LENGTH:  32768
 NUMBER OF SEGMENTS:   1  SEGMENT LENGTH:    2289096      RECORD LENGTH: 524288

 Memory used in sort:       2.85 MW

 SORT1 READ   105933892. AND WROTE     1491586. INTEGRALS IN      5 RECORDS. CPU TIME:     2.40 SEC, REAL TIME:     2.46 SEC
 SORT2 READ    34215741. AND WROTE    53264680. INTEGRALS IN   1679 RECORDS. CPU TIME:     0.22 SEC, REAL TIME:     0.30 SEC

 Node minimum:     2288883.  Node maximum:     2342907. integrals

 OPERATOR DM      FOR CENTER  0  COORDINATES:    0.000000    0.000000    0.000000


 **********************************************************************************************************************************
 DATASETS  * FILE   NREC   LENGTH (MB)   RECORD NAMES
              1      19       20.35       500      610      700      900      950      970     1000      129      960     1100
                                          VAR    BASINP    GEOM    SYMINP    ZMAT    AOBASIS   BASIS     P2S    ABASIS      S
                                         1400     1410     1420     1200     1210     1080     1600     1650     1700
                                           T        V       ECP      H0       H01     AOSYM     SMH    MOLCAS    OPER

 PROGRAMS   *        TOTAL       INT
 CPU TIMES  *        23.02     22.18
 REAL TIME  *        24.45 SEC
 DISK USED  *       848.77 MB
 GA USED    *         0.00 MB       (max)       0.00 MB       (current)
 **********************************************************************************************************************************


 PROGRAM * RHF-SCF (CLOSED SHELL)       Authors: W. Meyer, H.-J. Werner


 NUMBER OF ELECTRONS:       9+    9-    SPACE SYMMETRY=1    SPIN SYMMETRY: Singlet
 CONVERGENCE THRESHOLDS:    1.00E-05 (Density)    1.00E-07 (Energy)
 MAX. NUMBER OF ITERATIONS:       60
 INTERPOLATION TYPE:            DIIS
 INTERPOLATION STEPS:              2 (START)      1 (STEP)
 LEVEL SHIFTS:                  0.00 (CLOSED)  0.00 (OPEN)

 Number of closed-shell orbitals:    9 (   3   1   1   1   1   1   1   0 )



 Extra symmetries of mos in symmetry 1:   1   3   2
 Orbital guess generated from atomic densities. Full valence occupancy:    4   1   1   1   1   1   1   0


 Molecular orbital dump at record        4202.2

 ITERATION    DDIFF          GRAD             ENERGY        2-EL.EN.            DIPOLE MOMENTS         DIIS   ORB.
    1      0.000D+00      0.000D+00      -126.82109723    204.476126    0.00000    0.00000    0.00000    0    start
    2      0.000D+00      0.830D-02      -126.82753020    198.828096    0.00000    0.00000    0.00000    1    diag
    3      0.375D-02      0.808D-02      -126.83879172    201.218525    0.00000    0.00000    0.00000    2    diag
    4      0.136D-02      0.391D-03      -126.83881584    201.246087    0.00000    0.00000    0.00000    3    diag
    5      0.190D-03      0.754D-04      -126.83881693    201.260125    0.00000    0.00000    0.00000    4    diag
    6      0.670D-04      0.284D-05      -126.83881694    201.259856    0.00000    0.00000    0.00000    5    diag
    7      0.515D-05      0.445D-06      -126.83881694    201.260005    0.00000    0.00000    0.00000    0    orth

 Final occupancy:   3   1   1   1   1   1   1   0

 !RHF STATE 1.1 Energy               -126.838816940839
   --><property name="Energy" method="RHF" principal="true" stateSymmetry="1" stateNumber="1"
     value="-126.838816940839"/><!--
 Nuclear energy                         0.00000000
 One-electron energy                 -227.46881939
 Two-electron energy                  100.63000245
 Virial quotient                       -2.58659521
 !RHF STATE 1.1 Dipole moment           0.00000000     0.00000000     0.00000000
 Dipole moment /Debye                   0.00000000     0.00000000     0.00000000
   --><property name="Dipole moment" method="RHF" principal="true" stateSymmetry="1"
     stateNumber="1" value="0.0 0.0 0.0"/><!--

 ELECTRON ORBITALS
 =================


   Orb  Occ    Energy  Couls-En    Coefficients

                                   1 1s      1 1s      1 1s      1 1s      1 1s      1 1s      1 1s      1 1s      1 1s      1 1s
                                   1 1s      1 1s      1 1s      1 1s      1 1s      1 1s      1 1s      1 1s      1 1s      1 1s
                                   1 1s      1 1s      1 1s      1 1s      1 1s      1 1s      1 1s      1 1s      1 1s      1 3d0
                                   1 3d2+    1 3d0     1 3d2+    1 3d0     1 3d2+    1 3d0     1 3d2+    1 3d0     1 3d2+    1 3d0
                                   1 3d2+    1 3d0     1 3d2+    1 3d0     1 3d2+    1 3d0     1 3d2+    1 3d0     1 3d2+    1 3d0
                                   1 3d2+    1 3d0     1 3d2+    1 3d0     1 3d2+    1 3d0     1 3d2+    1 3d0     1 3d2+    1 3d0
                                   1 3d2+    1 3d0     1 3d2+    1 5g0     1 5g4+    1 5g2+    1 5g0     1 5g4+    1 5g2+    1 5g0
                                   1 5g4+    1 5g2+

   1.1   2    -3.9416  -20.2576 -0.000000  0.000000 -0.000000  0.000000 -0.000000  0.000000 -0.000002  0.000005 -0.000015  0.000043
                                -0.000115  0.000298 -0.000763  0.001942 -0.004977  0.013125 -0.033407  0.033136  0.264117 -0.872949
                                -0.263958  0.988861  0.533586  0.030945 -0.012477  0.004983  0.253422 -0.130444 -0.001304 -0.000000
                                 0.000000  0.000000 -0.000000 -0.000000 -0.000000  0.000000 -0.000000 -0.000000  0.000000  0.000000
                                -0.000000 -0.000000  0.000000  0.000000 -0.000000 -0.000000  0.000000 -0.000000  0.000000 -0.000000
                                 0.000000 -0.000000 -0.000000  0.000000 -0.000000 -0.000000 -0.000000  0.000000 -0.000000  0.000000
                                -0.000000  0.000000  0.000000  0.000000 -0.000000  0.000000  0.000000  0.000000  0.000000 -0.000000
                                 0.000000 -0.000000

   2.1   2    -0.3322  -11.0615 -0.000000  0.000000 -0.000000  0.000000 -0.000000  0.000000 -0.000000  0.000000 -0.000000  0.000000
                                 0.000000 -0.000000  0.000000 -0.000000  0.000000 -0.000000  0.000000 -0.000000  0.000000 -0.000000
                                -0.000000  0.000000  0.000000 -0.000000  0.000000 -0.000000  0.000000 -0.000000  0.000000 -0.000000
                                 0.000000  0.000000 -0.000000 -0.000001  0.000002  0.000008 -0.000013 -0.000016  0.000024  0.000358
                                -0.000546  0.003229 -0.004920 -0.032419  0.049403  0.011343 -0.017285  0.110263 -0.168027  0.192540
                                -0.293406  0.181834 -0.277091  0.118556 -0.180663  0.041276 -0.062899  0.030129 -0.045912  0.016892
                                -0.025741  0.001300 -0.001980  0.000000 -0.000000 -0.000000 -0.000000  0.000000  0.000000  0.000000
                                -0.000000 -0.000000

   3.1   2    -0.3322  -11.0615 -0.000000  0.000000 -0.000000  0.000000 -0.000000  0.000000 -0.000000  0.000000 -0.000000  0.000000
                                -0.000000  0.000000 -0.000000  0.000000 -0.000000  0.000000 -0.000000  0.000000  0.000000  0.000000
                                 0.000000 -0.000000 -0.000000  0.000000 -0.000000  0.000000 -0.000000  0.000000 -0.000000 -0.000000
                                -0.000000  0.000000  0.000000 -0.000002 -0.000001  0.000013  0.000008 -0.000024 -0.000016  0.000546
                                 0.000358  0.004920  0.003229 -0.049403 -0.032420  0.017285  0.011343  0.168027  0.110263  0.293406
                                 0.192540  0.277091  0.181834  0.180663  0.118556  0.062899  0.041276  0.045912  0.030129  0.025741
                                 0.016892  0.001980  0.001300 -0.000000  0.000000 -0.000000  0.000000  0.000000  0.000000 -0.000000
                                 0.000000 -0.000000

   4.1   0     0.0093   -3.0621  0.000000 -0.000000  0.000000 -0.000000  0.000000 -0.000000  0.000000 -0.000001  0.000003 -0.000008
                                 0.000020 -0.000052  0.000133 -0.000336  0.000847 -0.002167  0.005462 -0.008732 -0.012824  0.029144
                                -0.164839  0.170338  0.040643 -0.144703  0.506335 -0.725322  0.148779 -0.320181  1.378226  0.000000
                                -0.000000 -0.000000  0.000000  0.000000 -0.000000 -0.000000  0.000000  0.000000 -0.000000 -0.000000
                                 0.000000  0.000000 -0.000000 -0.000000  0.000000  0.000000 -0.000000  0.000000 -0.000000  0.000000
                                 0.000000 -0.000000  0.000000 -0.000000  0.000000  0.000000  0.000000 -0.000000  0.000000 -0.000000
                                 0.000000 -0.000000  0.000000  0.000000 -0.000000 -0.000000 -0.000000  0.000000  0.000000  0.000000
                                -0.000000 -0.000000

   5.1   0     0.0604   -3.2911  0.000000 -0.000000  0.000000 -0.000000  0.000000 -0.000000  0.000000 -0.000001  0.000002 -0.000006
                                 0.000016 -0.000040  0.000101 -0.000245  0.000565 -0.001192  0.002519 -0.013120  0.090464 -0.389606
                                -0.774725  1.338282  0.698963 -0.636502  1.477562 -3.546836  0.725606 -1.341165  2.300037  0.000000
                                -0.000000 -0.000000  0.000000  0.000000 -0.000000 -0.000000  0.000000  0.000000 -0.000000 -0.000000
                                 0.000000  0.000000 -0.000000  0.000000 -0.000000  0.000000 -0.000000  0.000000 -0.000000  0.000000
                                -0.000000 -0.000000  0.000000 -0.000000 -0.000000 -0.000000  0.000000 -0.000000  0.000000 -0.000000
                                 0.000000  0.000000 -0.000000 -0.000000 -0.000000 -0.000000  0.000000  0.000000  0.000000  0.000000
                                 0.000000 -0.000000

                                   1 2px     1 2px     1 2px     1 2px     1 2px     1 2px     1 2px     1 2px     1 2px     1 2px
                                   1 2px     1 2px     1 2px     1 2px     1 2px     1 2px     1 2px     1 2px     1 2px     1 2px
                                   1 2px     1 2px     1 2px     1 4f1+    1 4f3+    1 4f1+    1 4f3+    1 4f1+    1 4f3+    1 4f1+
                                   1 4f3+

   1.2   2    -2.5007  -17.0912  0.000000 -0.000000  0.000000 -0.000000  0.000002 -0.000008  0.000028 -0.000091  0.000274 -0.000792
                                 0.002653 -0.013518  0.079685 -0.175797 -0.500554  0.358917  0.280830  0.039829 -0.004584  0.002394
                                 0.356213  0.543295 -0.000734  0.000000  0.000000  0.000000  0.000000  0.000000  0.000000 -0.000000
                                -0.000000

   2.2   0     0.0273   -1.8323  0.000000 -0.000000  0.000000 -0.000000  0.000001 -0.000002  0.000009 -0.000027  0.000079 -0.000210
                                 0.000516 -0.001134  0.001969 -0.008533  0.311089  0.034120  0.034148 -0.073544  0.220385 -0.528887
                                -0.324017 -0.050704  1.308909  0.000000 -0.000000  0.000000 -0.000000  0.000000 -0.000000  0.000000
                                -0.000000

   3.2   0     0.0980   -2.8742 -0.000000  0.000000 -0.000000  0.000000 -0.000002  0.000008 -0.000027  0.000089 -0.000257  0.000690
                                -0.001798  0.005084 -0.017333  0.051029 -0.789925 -0.154292 -0.146130  0.255481 -0.576484  2.030691
                                 0.846392  0.048027 -1.162692 -0.000000 -0.000000  0.000000  0.000000 -0.000000 -0.000000  0.000000
                                 0.000000

                                   1 2py     1 2py     1 2py     1 2py     1 2py     1 2py     1 2py     1 2py     1 2py     1 2py
                                   1 2py     1 2py     1 2py     1 2py     1 2py     1 2py     1 2py     1 2py     1 2py     1 2py
                                   1 2py     1 2py     1 2py     1 4f1-    1 4f3-    1 4f1-    1 4f3-    1 4f1-    1 4f3-    1 4f1-
                                   1 4f3-

   1.3   2    -2.5007  -17.0912  0.000000 -0.000000  0.000000 -0.000000  0.000002 -0.000008  0.000028 -0.000091  0.000274 -0.000792
                                 0.002653 -0.013518  0.079685 -0.175797 -0.500554  0.358917  0.280830  0.039829 -0.004584  0.002394
                                 0.356213  0.543295 -0.000734 -0.000000  0.000000 -0.000000  0.000000 -0.000000 -0.000000  0.000000
                                 0.000000

   2.3   0     0.0273   -1.8323  0.000000 -0.000000  0.000000 -0.000000  0.000001 -0.000002  0.000009 -0.000027  0.000079 -0.000210
                                 0.000516 -0.001134  0.001969 -0.008533  0.311089  0.034120  0.034148 -0.073544  0.220385 -0.528887
                                -0.324017 -0.050704  1.308909 -0.000000 -0.000000  0.000000 -0.000000 -0.000000 -0.000000  0.000000
                                -0.000000

   3.3   0     0.0980   -2.8742 -0.000000  0.000000 -0.000000  0.000000 -0.000002  0.000008 -0.000027  0.000089 -0.000257  0.000690
                                -0.001798  0.005084 -0.017333  0.051029 -0.789925 -0.154292 -0.146130  0.255481 -0.576484  2.030691
                                 0.846392  0.048027 -1.162692 -0.000000 -0.000000 -0.000000  0.000000 -0.000000 -0.000000 -0.000000
                                 0.000000

                                   1 3d2-    1 3d2-    1 3d2-    1 3d2-    1 3d2-    1 3d2-    1 3d2-    1 3d2-    1 3d2-    1 3d2-
                                   1 3d2-    1 3d2-    1 3d2-    1 3d2-    1 3d2-    1 3d2-    1 3d2-    1 5g2-    1 5g4-    1 5g2-
                                   1 5g4-    1 5g2-    1 5g4-

   1.4   2    -0.3322  -11.0615 -0.000000  0.000000 -0.000002  0.000015 -0.000029  0.000653  0.005885 -0.059090  0.020674  0.200975
                                 0.350940  0.331426  0.216089  0.075233  0.054915  0.030788  0.002369 -0.000000  0.000000  0.000000
                                 0.000000  0.000000  0.000000

   2.4   0     0.1009   -2.2222  0.000001 -0.000006  0.000033 -0.000131  0.000431 -0.001325  0.003167 -0.006679  0.058957  0.537118
                                 0.448949 -0.190454  0.186301 -0.476946 -0.401581 -0.607221  1.256323 -0.000000  0.000000 -0.000000
                                 0.000000  0.000000 -0.000000

   3.4   0     0.3437   -3.3090 -0.000003  0.000020 -0.000103  0.000409 -0.001357  0.003855 -0.013351  0.054319 -0.201474 -1.851116
                                -1.674248  0.454954 -0.828619  1.898399  1.265112  1.965078 -0.891005 -0.000000  0.000000 -0.000000
                                -0.000000 -0.000000 -0.000000

                                   1 2pz     1 2pz     1 2pz     1 2pz     1 2pz     1 2pz     1 2pz     1 2pz     1 2pz     1 2pz
                                   1 2pz     1 2pz     1 2pz     1 2pz     1 2pz     1 2pz     1 2pz     1 2pz     1 2pz     1 2pz
                                   1 2pz     1 2pz     1 2pz     1 4f0     1 4f2+    1 4f0     1 4f2+    1 4f0     1 4f2+    1 4f0
                                   1 4f2+

   1.5   2    -2.5007  -17.0912  0.000000 -0.000000  0.000000 -0.000000  0.000002 -0.000008  0.000028 -0.000091  0.000274 -0.000792
                                 0.002653 -0.013518  0.079685 -0.175797 -0.500554  0.358917  0.280830  0.039829 -0.004584  0.002394
                                 0.356213  0.543295 -0.000734 -0.000000  0.000000  0.000000  0.000000 -0.000000 -0.000000  0.000000
                                 0.000000

   2.5   0     0.0273   -1.8323  0.000000 -0.000000  0.000000 -0.000000  0.000001 -0.000002  0.000009 -0.000027  0.000079 -0.000210
                                 0.000516 -0.001134  0.001969 -0.008533  0.311089  0.034120  0.034148 -0.073544  0.220385 -0.528887
                                -0.324017 -0.050704  1.308909 -0.000000 -0.000000  0.000000 -0.000000 -0.000000 -0.000000  0.000000
                                -0.000000

   3.5   0     0.0980   -2.8742 -0.000000  0.000000 -0.000000  0.000000 -0.000002  0.000008 -0.000027  0.000089 -0.000257  0.000690
                                -0.001798  0.005084 -0.017333  0.051029 -0.789925 -0.154292 -0.146130  0.255481 -0.576484  2.030691
                                 0.846392  0.048027 -1.162692 -0.000000 -0.000000 -0.000000  0.000000 -0.000000 -0.000000  0.000000
                                 0.000000

                                   1 3d1+    1 3d1+    1 3d1+    1 3d1+    1 3d1+    1 3d1+    1 3d1+    1 3d1+    1 3d1+    1 3d1+
                                   1 3d1+    1 3d1+    1 3d1+    1 3d1+    1 3d1+    1 3d1+    1 3d1+    1 5g1+    1 5g3+    1 5g1+
                                   1 5g3+    1 5g1+    1 5g3+

   1.6   2    -0.3322  -11.0615 -0.000000  0.000000 -0.000002  0.000015 -0.000029  0.000653  0.005885 -0.059090  0.020674  0.200975
                                 0.350940  0.331426  0.216089  0.075233  0.054915  0.030788  0.002369 -0.000000  0.000000  0.000000
                                 0.000000 -0.000000  0.000000

   2.6   0     0.1009   -2.2222  0.000001 -0.000006  0.000033 -0.000131  0.000431 -0.001325  0.003167 -0.006679  0.058957  0.537118
                                 0.448949 -0.190454  0.186301 -0.476946 -0.401581 -0.607221  1.256323 -0.000000  0.000000 -0.000000
                                 0.000000  0.000000 -0.000000

   3.6   0     0.3437   -3.3090 -0.000003  0.000020 -0.000103  0.000409 -0.001357  0.003855 -0.013351  0.054319 -0.201474 -1.851116
                                -1.674248  0.454954 -0.828619  1.898399  1.265112  1.965078 -0.891005 -0.000000  0.000000 -0.000000
                                -0.000000 -0.000000  0.000000

                                   1 3d1-    1 3d1-    1 3d1-    1 3d1-    1 3d1-    1 3d1-    1 3d1-    1 3d1-    1 3d1-    1 3d1-
                                   1 3d1-    1 3d1-    1 3d1-    1 3d1-    1 3d1-    1 3d1-    1 3d1-    1 5g1-    1 5g3-    1 5g1-
                                   1 5g3-    1 5g1-    1 5g3-

   1.7   2    -0.3322  -11.0615 -0.000000  0.000000 -0.000002  0.000015 -0.000029  0.000653  0.005885 -0.059090  0.020674  0.200975
                                 0.350940  0.331426  0.216089  0.075233  0.054915  0.030788  0.002369  0.000000  0.000000  0.000000
                                 0.000000  0.000000  0.000000

   2.7   0     0.1009   -2.2222  0.000001 -0.000006  0.000033 -0.000131  0.000431 -0.001325  0.003167 -0.006679  0.058957  0.537118
                                 0.448949 -0.190454  0.186301 -0.476946 -0.401581 -0.607221  1.256323  0.000000  0.000000 -0.000000
                                 0.000000 -0.000000 -0.000000

   3.7   0     0.3437   -3.3090 -0.000003  0.000020 -0.000103  0.000409 -0.001357  0.003855 -0.013351  0.054319 -0.201474 -1.851116
                                -1.674248  0.454954 -0.828619  1.898399  1.265112  1.965078 -0.891005  0.000000  0.000000 -0.000000
                                -0.000000 -0.000000  0.000000

                                   1 4f2-    1 4f2-    1 4f2-    1 4f2-

   1.8   0     0.8900   -4.2659 -0.010162  0.134839 -0.233947  1.118324

   2.8   0     2.1196   -5.1948  0.180371 -0.049518  1.287970 -0.770717

 HOMO      3.1    -0.332172 =      -9.0389eV
 LUMO      4.1     0.009260 =       0.2520eV
 LUMO-HOMO         0.341432 =       9.2908eV


 **********************************************************************************************************************************
 DATASETS  * FILE   NREC   LENGTH (MB)   RECORD NAMES
              1      19       20.38       500      610      700      900      950      970     1000      129      960     1100
                                          VAR    BASINP    GEOM    SYMINP    ZMAT    AOBASIS   BASIS     P2S    ABASIS      S
                                         1400     1410     1420     1200     1210     1080     1600     1650     1700
                                           T        V       ECP      H0       H01     AOSYM     SMH    MOLCAS    OPER

              2       5        5.57       200      700     1000      520     4202
                                        OPTIONS   GEOM     BASIS   MCVARS     RHF

 PROGRAMS   *        TOTAL       RHF       INT
 CPU TIMES  *        23.55      0.52     22.18
 REAL TIME  *        25.05 SEC
 DISK USED  *         1.46 GB
 SF USED    *         0.04 MB
 GA USED    *         0.00 MB       (max)       0.00 MB       (current)
 **********************************************************************************************************************************
   -->
   <time start="16:42:46" end="16:43:10" cpu="23.55" system="1.01" real="25.05"/>
   <storage units="megabyte" memory="4097.84" sf="0.04" df="611.11" eaf="848.77" ga="0.0"/>
  </jobstep><!--
 SETTING SCF(1)         =      -126.83881694  AU
 SETTING _CC_NORM_MAX   =         2.00000000
  --><jobstep command="RCCSD(T)" commandset="CCSD">
   <!--


 PROGRAM * CCSD (Restricted open-shell coupled cluster)     Authors: C. Hampel, H.-J. Werner, 1991, M. Deegan, P.J. Knowles, 1992


 Convergence thresholds:  THRVAR = 1.00D-08  THRDEN = 1.00D-06

 CCSD(T)     terms to be evaluated (factor= 1.000)


 Number of closed-shell orbitals:   9 (   3   1   1   1   1   1   1   0 )
 Number of external orbitals:     229 (  69  30  30  22  30  22  22   4 )

 Memory could be reduced to 28.23 Mwords without degradation in triples

 Number of N-1 electron functions:              18
 Number of N-2 electron functions:             153
 Number of singly external CSFs:               726
 Number of doubly external CSFs:            785643
 Total number of CSFs:                      786369

 Molecular orbitals read from record     4202.2  Type=RHF/CANONICAL (state 1.1)

 Integral transformation finished. Total CPU:   1.35 sec, npass=  1  Memory used:   4.56 MW

 Starting RMP2 calculation

 Wavefunction is spin-projected

 ITER.      SQ.NORM     CORR.ENERGY   TOTAL ENERGY   ENERGY CHANGE        DEN1      VAR(S)    VAR(P)  DIIS     TIME
   1      1.13482455    -0.73639451  -127.57521145    -0.73639451    -0.00127735  0.14D-11  0.48D-03  1  1     1.97
   2      1.13595005    -0.73774087  -127.57655781    -0.00134635    -0.00000334  0.59D-13  0.23D-05  2  2     2.12
   3      1.13601419    -0.73777905  -127.57659599    -0.00003818    -0.00000001  0.17D-14  0.10D-07  3  3     2.28
   4      1.13601593    -0.73777936  -127.57659630    -0.00000031    -0.00000000  0.35D-16  0.51D-10  4  4     2.49

 Norm of t1 vector:      0.00000690      S-energy:    -0.00000000      T1 diagnostic:  0.00000115
 Norm of t2 vector:      0.36880338      P-energy:    -0.73777936
                                         Alpha-Beta:  -0.50992625
                                         Alpha-Alpha: -0.11392655
                                         Beta-Beta:   -0.11392655

 Spin contamination <S**2-Sz**2-Sz>     0.00000000
  Reference energy                   -126.838816940839
   --><property name="energy" method="Reference" stateSymmetry="1" stateNumber="1"
     value="-126.838816940839"/><!--
  RHF-RMP2 correlation energy          -0.737779356812
   --><property name="energy" method="RHF-RMP2 correlation" stateSymmetry="1" stateNumber="1"
     value="-0.737779356811756"/><!--
 !RHF-RMP2 energy                    -127.576596297650
   --><property name="energy" method="RHF-RMP2" principal="true" stateSymmetry="1"
     stateNumber="1" value="-127.57659629765"/><!--
 (NB above energy spin projected)

 Starting RCCSD calculation

 ITER.      SQ.NORM     CORR.ENERGY   TOTAL ENERGY   ENERGY CHANGE        DEN1      VAR(S)    VAR(P)  DIIS     TIME
   1      1.10862502    -0.68464606  -127.52346300    -0.68464606    -0.01451640  0.22D-02  0.26D-02  1  1     3.29
   2      1.11557327    -0.69729989  -127.53611683    -0.01265383    -0.00074367  0.27D-04  0.27D-03  2  2     3.81
   3      1.11646540    -0.69735191  -127.53616885    -0.00005202    -0.00007470  0.53D-04  0.15D-04  3  3     4.33
   4      1.11709707    -0.69760628  -127.53642322    -0.00025438    -0.00000773  0.32D-05  0.26D-05  4  4     4.90
   5      1.11744452    -0.69769835  -127.53651529    -0.00009207    -0.00000068  0.58D-06  0.18D-06  5  5     5.48
   6      1.11752007    -0.69770514  -127.53652208    -0.00000679    -0.00000008  0.28D-07  0.30D-07  6  6     6.74
   7      1.11753951    -0.69770540  -127.53652234    -0.00000027    -0.00000001  0.18D-07  0.18D-08  6  1     8.22
   8      1.11754391    -0.69770634  -127.53652328    -0.00000094    -0.00000000  0.16D-08  0.17D-09  6  2     8.83

 Norm of t1 vector:      0.05154273      S-energy:    -0.00000013      T1 diagnostic:  0.00859045
                                                                       D1 diagnostic:  0.01594924
 Norm of t2 vector:      0.33895023      P-energy:    -0.69770621
                                         Alpha-Beta:  -0.50051423
                                         Alpha-Alpha: -0.09859599
                                         Beta-Beta:   -0.09859599

 Spin contamination <S**2-Sz**2-Sz>     0.00000000

 Memory could be reduced to 28.46 Mwords without degradation in triples


  Correlated core orbitals:             1.1       1.2       1.3       1.5
  Orbital energies:                    -3.9416   -2.5007   -2.5007   -2.5007

  RCCSD core-core energy               -0.109804900291
   --><property name="core-core energy" method="RCCSD" stateSymmetry="1" stateNumber="1"
     value="-0.109804900290515"/><!--
  RCCSD core-valence energy            -0.247131382466
   --><property name="core-valence energy" method="RCCSD" stateSymmetry="1" stateNumber="1"
     value="-0.247131382466387"/><!--
  RCCSD valence correlation energy     -0.340770060927
   --><property name="valence correlation energy" method="RCCSD" stateSymmetry="1"
     stateNumber="1" value="-0.340770060926763"/><!--


 RESULTS
 =======

  Reference energy                   -126.838816940839
   --><property name="energy" method="Reference" stateSymmetry="1" stateNumber="1"
     value="-126.838816940839"/><!--
  RCCSD singles energy                 -0.000000130196
   --><property name="energy" method="RCCSD singles" stateSymmetry="1" stateNumber="1"
     value="-0.130196263214977E-06"/><!--
  RCCSD pair energy                    -0.697706213487
   --><property name="energy" method="RCCSD pair" stateSymmetry="1" stateNumber="1"
     value="-0.697706213487401"/><!--
  RCCSD correlation energy             -0.697706343684
   --><property name="energy" method="RCCSD correlation" stateSymmetry="1" stateNumber="1"
     value="-0.697706343683664"/><!--
  Triples (T) contribution             -0.027338931069
   --><property name="contribution" method="Triples (T)" stateSymmetry="1" stateNumber="1"
     value="-0.27338931069271E-01"/><!--
  Total correlation energy             -0.725045274753
   --><property name="energy" method="Total correlation" stateSymmetry="1" stateNumber="1"
     value="-0.725045274752935"/><!--

  RHF-RCCSD energy                   -127.536523284522
   --><property name="energy" method="RHF-RCCSD" stateSymmetry="1" stateNumber="1"
     value="-127.536523284522"/><!--
  RHF-RCCSD[T] energy                -127.564835176428
   --><property name="energy" method="RHF-RCCSD[T]" stateSymmetry="1" stateNumber="1"
     value="-127.564835176428"/><!--
  RHF-RCCSD-T energy                 -127.563684664950
   --><property name="energy" method="RHF-RCCSD-T" stateSymmetry="1" stateNumber="1"
     value="-127.56368466495"/><!--
 !RHF-RCCSD(T) energy                -127.563862215592
   --><property name="energy" method="RHF-RCCSD(T)" principal="true" stateSymmetry="1"
     stateNumber="1" value="-127.563862215592"/><!--

 Program statistics:

 Available memory in ccsd:               511999162
 Min. memory needed in ccsd:               2366167
 Max. memory used in ccsd:                 3316864
 Max. memory used in cckext:               2577033 ( 8 integral passes)
 Max. memory used in cckint:               4564618 ( 1 integral passes)



 **********************************************************************************************************************************
 DATASETS  * FILE   NREC   LENGTH (MB)   RECORD NAMES
              1      19       20.38       500      610      700      900      950      970     1000      129      960     1100
                                          VAR    BASINP    GEOM    SYMINP    ZMAT    AOBASIS   BASIS     P2S    ABASIS      S
                                         1400     1410     1420     1200     1210     1080     1600     1650     1700
                                           T        V       ECP      H0       H01     AOSYM     SMH    MOLCAS    OPER

              2       5        5.57       200      700     1000      520     4202
                                        OPTIONS   GEOM     BASIS   MCVARS     RHF

 PROGRAMS   *        TOTAL  RCCSD(T)       RHF       INT
 CPU TIMES  *        39.94     16.28      0.52     22.18
 REAL TIME  *        44.99 SEC
 DISK USED  *         3.70 GB
 SF USED    *       418.43 MB
 GA USED    *         0.00 MB       (max)       0.00 MB       (current)
 **********************************************************************************************************************************
   -->
   <time start="16:43:10" end="16:43:30" cpu="16.39" system="1.84" real="19.94"/>
   <storage units="megabyte" memory="4097.84" sf="418.43" df="2855.76" eaf="848.77"
     ga="0.0"/>
  </jobstep><!--
 SETTING CCSD(1)        =      -127.56386222  AU

 DO I                   =         2.00000000

 Running procedure=EAS2D9
  --><jobstep command="RHF-SCF" commandset="SCFPRO">
   <!--


 PROGRAM * RHF-SCF (OPEN SHELL)       Authors: W. Meyer, H.-J. Werner


 NUMBER OF ELECTRONS:      10+    9-    SPACE SYMMETRY=1    SPIN SYMMETRY: Doublet
 CONVERGENCE THRESHOLDS:    1.00E-05 (Density)    1.00E-07 (Energy)
 MAX. NUMBER OF ITERATIONS:       60
 INTERPOLATION TYPE:            DIIS
 INTERPOLATION STEPS:              2 (START)      1 (STEP)
 LEVEL SHIFTS:                 -0.60 (CLOSED) -0.30 (OPEN)

 Number of closed-shell orbitals:    9 (   3   1   1   1   1   1   1   0 )
 Number of open-shell orbitals:      1 (   1   0   0   0   0   0   0   0 )



 Extra symmetries of mos in symmetry 1:   1   1   3   2
 Orbital guess generated from atomic densities. Full valence occupancy:    4   1   1   1   1   1   1   0


 Molecular orbital dump at record        4202.2

 ITERATION    DDIFF          GRAD             ENERGY        2-EL.EN.            DIPOLE MOMENTS         DIIS   ORB.
    1      0.000D+00      0.000D+00      -126.80883853    204.625884    0.00000    0.00000    0.00000    0    start
    2      0.000D+00      0.793D-02      -126.82072307    205.950867    0.00000    0.00000    0.00000    1    diag,B
    3      0.465D-02      0.214D-02      -126.82343049    205.205296    0.00000    0.00000    0.00000    2    diag,B
    4      0.147D-02      0.102D-02      -126.82535498    204.991379    0.00000    0.00000    0.00000    3    diag,B
    5      0.142D-02      0.771D-03      -126.82795987    204.468259    0.00000    0.00000    0.00000    4    diag,B
    6      0.253D-02      0.474D-03      -126.82928573    204.082951    0.00000    0.00000    0.00000    5    diag,B
    7      0.258D-02      0.297D-03      -126.82994350    203.836958    0.00000    0.00000    0.00000    6    fixocc
    8      0.434D-02      0.158D-03      -126.83013037    203.696914    0.00000    0.00000    0.00000    7    diag,B
    9      0.391D-02      0.655D-04      -126.83015581    203.642659    0.00000    0.00000    0.00000    8    diag,B
   10      0.190D-02      0.205D-04      -126.83015744    203.633582    0.00000    0.00000    0.00000    9    orth
   11      0.272D-03      0.105D-04      -126.83015797    203.634185    0.00000    0.00000    0.00000    9    diag,B
   12      0.214D-04      0.841D-05      -126.83015840    203.633321    0.00000    0.00000    0.00000    9    diag,B
   13      0.144D-04      0.815D-05      -126.83015882    203.633627    0.00000    0.00000    0.00000    9    diag,B
   14      0.442D-05      0.809D-05      -126.83015964    203.633466    0.00000    0.00000    0.00000    9    diag,B
   15      0.689D-05      0.802D-05      -126.83016167    203.633317    0.00000    0.00000    0.00000    9    diag,B
   16      0.165D-04      0.790D-05      -126.83016647    203.633049    0.00000    0.00000    0.00000    9    diag,B
   17      0.391D-04      0.765D-05      -126.83017394    203.633288    0.00000    0.00000    0.00000    9    diag,B
   18      0.645D-04      0.718D-05      -126.83018684    203.633530    0.00000    0.00000    0.00000    9    diag,B
   19      0.127D-03      0.897D-05      -126.83018906    203.634030    0.00000    0.00000    0.00000    9    diag,B
   20      0.323D-04      0.131D-04      -126.83020282    203.629901    0.00000    0.00000    0.00000    9    orth
   21      0.238D-03      0.431D-04      -126.83018990    203.632975    0.00000    0.00000    0.00000    9    diag,B
   22      0.217D-03      0.919D-05      -126.83019881    203.632484    0.00000    0.00000    0.00000    9    diag,B
   23      0.125D-03      0.201D-04      -126.83019237    203.632919    0.00000    0.00000    0.00000    9    diag,B
   24      0.955D-04      0.159D-04      -126.83019991    203.634301    0.00000    0.00000    0.00000    9    diag,B
   25      0.111D-03      0.124D-04      -126.83020707    203.631940    0.00000    0.00000    0.00000    9    diag,B
   26      0.214D-03      0.348D-04      -126.83020674    203.632903    0.00000    0.00000    0.00000    9    diag,B
   27      0.399D-04      0.136D-04      -126.83020764    203.632628    0.00000    0.00000    0.00000    9    diag,B
   28      0.754D-04      0.188D-04      -126.83020383    203.632443    0.00000    0.00000    0.00000    9    diag,B
   29      0.167D-03      0.311D-04      -126.83020661    203.634016    0.00000    0.00000    0.00000    9    diag,B
   30      0.114D-03      0.277D-04      -126.83020758    203.632122    0.00000    0.00000    0.00000    9    orth
   31      0.108D-03      0.275D-04      -126.83020774    203.632812    0.00000    0.00000    0.00000    9    diag,B
   32      0.321D-04      0.343D-05      -126.83020778    203.632692    0.00000    0.00000    0.00000    9    diag,B
   33      0.202D-04      0.485D-05      -126.83020775    203.632543    0.00000    0.00000    0.00000    9    diag,B
   34      0.997D-05      0.113D-04      -126.83020778    203.632826    0.00000    0.00000    0.00000    9    diag,B
   35      0.125D-04      0.274D-06      -126.83020778    203.632806    0.00000    0.00000    0.00000    9    diag,B
   36      0.192D-05      0.332D-06      -126.83020778    203.632812    0.00000    0.00000    0.00000    0    orth

 Final alpha occupancy:   4   1   1   1   1   1   1   0
 Final beta  occupancy:   3   1   1   1   1   1   1   0

 !RHF STATE 1.1 Energy               -126.830207781563
   --><property name="Energy" method="RHF" principal="true" stateSymmetry="1" stateNumber="1"
     value="-126.830207781563"/><!--
 Nuclear energy                         0.00000000
 One-electron energy                 -228.64661380
 Two-electron energy                  101.81640602
 Virial quotient                       -2.62142394
 !RHF STATE 1.1 Dipole moment           0.00000000     0.00000000     0.00000000
 Dipole moment /Debye                   0.00000000     0.00000000     0.00000000
   --><property name="Dipole moment" method="RHF" principal="true" stateSymmetry="1"
     stateNumber="1" value="0.0 0.0 0.0"/><!--

 ELECTRON ORBITALS
 =================


   Orb  Occ    Energy  Couls-En    Coefficients

                                   1 1s      1 1s      1 1s      1 1s      1 1s      1 1s      1 1s      1 1s      1 1s      1 1s
                                   1 1s      1 1s      1 1s      1 1s      1 1s      1 1s      1 1s      1 1s      1 1s      1 1s
                                   1 1s      1 1s      1 1s      1 1s      1 1s      1 1s      1 1s      1 1s      1 1s      1 3d0
                                   1 3d2+    1 3d0     1 3d2+    1 3d0     1 3d2+    1 3d0     1 3d2+    1 3d0     1 3d2+    1 3d0
                                   1 3d2+    1 3d0     1 3d2+    1 3d0     1 3d2+    1 3d0     1 3d2+    1 3d0     1 3d2+    1 3d0
                                   1 3d2+    1 3d0     1 3d2+    1 3d0     1 3d2+    1 3d0     1 3d2+    1 3d0     1 3d2+    1 3d0
                                   1 3d2+    1 3d0     1 3d2+    1 5g0     1 5g4+    1 5g2+    1 5g0     1 5g4+    1 5g2+    1 5g0
                                   1 5g4+    1 5g2+

   1.1   2    -3.9007  -20.2349 -0.000000  0.000000 -0.000000  0.000000 -0.000000  0.000000 -0.000002  0.000005 -0.000016  0.000043
                                -0.000116  0.000301 -0.000772  0.001964 -0.005034  0.013268 -0.033766  0.033781  0.264276 -0.872207
                                -0.250135  0.970786  0.514568  0.025646 -0.010468  0.004128  0.239857 -0.093352 -0.001024  0.000000
                                 0.000000 -0.000000 -0.000000  0.000000  0.000000 -0.000001 -0.000000  0.000002  0.000000 -0.000006
                                -0.000000  0.000037 -0.000000 -0.000147  0.000000 -0.000181 -0.000000  0.000757 -0.000000 -0.000616
                                -0.000000 -0.001998 -0.000000 -0.001160 -0.000000 -0.000205 -0.000000  0.000411 -0.000000  0.000966
                                -0.000000 -0.000010 -0.000000 -0.000171  0.000000 -0.000000 -0.000505  0.000000 -0.000000 -0.000701
                                 0.000000 -0.000000

   2.1   2    -0.0220   -4.7803  0.000000 -0.000000  0.000000 -0.000000  0.000000 -0.000000  0.000000 -0.000001  0.000003 -0.000009
                                 0.000024 -0.000062  0.000160 -0.000408  0.001046 -0.002770  0.007165 -0.008216 -0.051493  0.184088
                                 0.035732 -0.230087 -0.200042  0.080241  0.389996  0.213032 -0.041985  0.001733  0.485957  0.000000
                                -0.000000 -0.000000  0.000000  0.000000 -0.000000 -0.000000  0.000000  0.000000 -0.000000 -0.000008
                                 0.000000 -0.000067 -0.000000  0.000668  0.000000 -0.000142 -0.000000 -0.001972 -0.000003 -0.003493
                                -0.000002 -0.001658  0.000001  0.003550 -0.000001  0.004663  0.000002 -0.001072  0.000002 -0.001180
                                 0.000003  0.004212 -0.000008 -0.000129  0.000000 -0.000000 -0.000292  0.000000 -0.000000  0.000174
                                -0.000000  0.000000

   3.1   2    -0.2540  -11.1900 -0.000000  0.000000 -0.000000  0.000000 -0.000000  0.000000 -0.000000  0.000000 -0.000000  0.000000
                                -0.000000  0.000000 -0.000000  0.000000 -0.000000  0.000000 -0.000000  0.000000  0.000000 -0.000000
                                 0.000000 -0.000000 -0.000000 -0.000000  0.000001 -0.000001 -0.000000  0.000000  0.000000  0.000000
                                -0.000000 -0.000000  0.000000  0.000000 -0.000003 -0.000000  0.000017  0.000000 -0.000034 -0.000000
                                 0.000690 -0.000000  0.006058  0.000001 -0.061196 -0.000000  0.021416 -0.000003  0.206165 -0.000005
                                 0.362743 -0.000004  0.336367 -0.000003  0.190028 -0.000001  0.053179 -0.000001  0.058747 -0.000000
                                 0.034782 -0.000000  0.002709 -0.000000 -0.000000  0.000878 -0.000000 -0.000000  0.001189 -0.000000
                                -0.000000  0.002557

   4.1   +    -0.3371  -11.4089  0.000000 -0.000000  0.000000 -0.000000  0.000000 -0.000000  0.000000 -0.000000  0.000000 -0.000001
                                 0.000002 -0.000005  0.000014 -0.000035  0.000089 -0.000231  0.000593 -0.000946 -0.001831  0.006214
                                -0.017135  0.011874  0.014550  0.025436 -0.003020 -0.000835  0.012938 -0.036478 -0.009480 -0.000000
                                -0.000000  0.000000  0.000000 -0.000003 -0.000000  0.000017  0.000000 -0.000032 -0.000000  0.000692
                                 0.000000  0.006189  0.000000 -0.062180 -0.000001  0.021026  0.000000  0.211779  0.000003  0.374661
                                 0.000005  0.339104  0.000004  0.170968  0.000002  0.036415  0.000000  0.058741  0.000001  0.034876
                                 0.000000  0.000719  0.000000  0.002110  0.000000 -0.000000  0.004148  0.000000 -0.000000  0.005611
                                 0.000000 -0.000000

   5.1   0     0.1372   -2.1180  0.000000 -0.000000  0.000000 -0.000000  0.000000 -0.000000  0.000000 -0.000001  0.000004 -0.000010
                                 0.000028 -0.000072  0.000182 -0.000448  0.001073 -0.002470  0.005694 -0.018962  0.091279 -0.407338
                                -0.928747  1.537320  0.775176 -0.790729  1.659681 -3.515420  0.867372 -1.611863  2.663740  0.000000
                                 0.000000 -0.000000 -0.000000  0.000000  0.000000 -0.000000 -0.000000  0.000001  0.000000  0.000004
                                -0.000000  0.000105  0.000000 -0.000942 -0.000000  0.000542  0.000000  0.005682  0.000002  0.007225
                                 0.000002  0.002260 -0.000001 -0.000535  0.000001 -0.002999 -0.000001 -0.000872 -0.000001 -0.001942
                                -0.000002  0.000504  0.000003  0.000116 -0.000000  0.000000  0.000158  0.000000  0.000000 -0.000905
                                 0.000000 -0.000000

   6.1   0     0.2168   -2.0471 -0.000000  0.000000 -0.000000  0.000000 -0.000000  0.000000 -0.000000  0.000000 -0.000000  0.000000
                                -0.000001  0.000002 -0.000004  0.000010 -0.000026  0.000067 -0.000170  0.000276  0.000360 -0.000829
                                 0.005352 -0.005467 -0.002055  0.001154 -0.013787  0.008837 -0.004741  0.010505 -0.004959  0.000001
                                -0.000000 -0.000008  0.000000  0.000042 -0.000000 -0.000167  0.000000  0.000550 -0.000000 -0.001659
                                 0.000000  0.004356 -0.000000 -0.011643  0.000001  0.076506 -0.000006  0.696713 -0.000054  0.590497
                                -0.000046 -0.224252  0.000018  0.251038 -0.000019 -0.557078  0.000044 -0.510325  0.000040 -0.773417
                                 0.000060  1.291247 -0.000100 -0.000086 -0.000000  0.000000 -0.000318 -0.000000  0.000000 -0.000065
                                -0.000000  0.000000

                                   1 2px     1 2px     1 2px     1 2px     1 2px     1 2px     1 2px     1 2px     1 2px     1 2px
                                   1 2px     1 2px     1 2px     1 2px     1 2px     1 2px     1 2px     1 2px     1 2px     1 2px
                                   1 2px     1 2px     1 2px     1 4f1+    1 4f3+    1 4f1+    1 4f3+    1 4f1+    1 4f3+    1 4f1+
                                   1 4f3+

   1.2   2    -2.4449  -17.0589  0.000000 -0.000000  0.000000 -0.000000  0.000002 -0.000008  0.000028 -0.000090  0.000271 -0.000784
                                 0.002638 -0.013522  0.079994 -0.176411 -0.516743  0.359697  0.273629  0.034884 -0.003408  0.002248
                                 0.372270  0.551446 -0.000591  0.002321 -0.000000  0.003984 -0.000000  0.002798  0.000000  0.000331
                                 0.000000

   2.2   0     0.1165   -1.5787  0.000000 -0.000000  0.000000 -0.000000  0.000001 -0.000005  0.000017 -0.000054  0.000155 -0.000413
                                 0.001032 -0.002468  0.005779 -0.020793  0.569829  0.074186  0.071626 -0.139251  0.388789 -0.888206
                                -0.597596 -0.078629  1.487301 -0.000032  0.000000  0.000024  0.000000 -0.000085  0.000000  0.000533
                                -0.000000

   3.2   0     0.2114   -2.9171 -0.000000  0.000000 -0.000000  0.000000 -0.000002  0.000009 -0.000034  0.000110 -0.000318  0.000854
                                -0.002216  0.006189 -0.020650  0.061487 -0.994622 -0.187804 -0.177681  0.325468 -0.636665  1.994136
                                 1.063436  0.066509 -0.982796 -0.000135  0.000000  0.000092  0.000000 -0.000228 -0.000000  0.002733
                                -0.000000

                                   1 2py     1 2py     1 2py     1 2py     1 2py     1 2py     1 2py     1 2py     1 2py     1 2py
                                   1 2py     1 2py     1 2py     1 2py     1 2py     1 2py     1 2py     1 2py     1 2py     1 2py
                                   1 2py     1 2py     1 2py     1 4f1-    1 4f3-    1 4f1-    1 4f3-    1 4f1-    1 4f3-    1 4f1-
                                   1 4f3-

   1.3   2    -2.4449  -17.0589  0.000000 -0.000000  0.000000 -0.000000  0.000002 -0.000008  0.000028 -0.000090  0.000271 -0.000784
                                 0.002638 -0.013522  0.079994 -0.176411 -0.516743  0.359697  0.273629  0.034884 -0.003408  0.002248
                                 0.372270  0.551447 -0.000591  0.002321 -0.000000  0.003984 -0.000000  0.002798 -0.000000  0.000331
                                -0.000000

   2.3   0     0.1165   -1.5787  0.000000 -0.000000  0.000000 -0.000000  0.000001 -0.000005  0.000017 -0.000054  0.000155 -0.000413
                                 0.001032 -0.002468  0.005779 -0.020793  0.569828  0.074186  0.071626 -0.139251  0.388788 -0.888203
                                -0.597595 -0.078629  1.487300 -0.000032  0.000000  0.000024  0.000000 -0.000085  0.000000  0.000533
                                -0.000000

   3.3   0     0.2114   -2.9171 -0.000000  0.000000 -0.000000  0.000000 -0.000002  0.000009 -0.000034  0.000110 -0.000318  0.000854
                                -0.002216  0.006189 -0.020650  0.061487 -0.994622 -0.187804 -0.177681  0.325468 -0.636664  1.994136
                                 1.063436  0.066508 -0.982798 -0.000135  0.000000  0.000092  0.000000 -0.000228 -0.000000  0.002733
                                -0.000000

                                   1 3d2-    1 3d2-    1 3d2-    1 3d2-    1 3d2-    1 3d2-    1 3d2-    1 3d2-    1 3d2-    1 3d2-
                                   1 3d2-    1 3d2-    1 3d2-    1 3d2-    1 3d2-    1 3d2-    1 3d2-    1 5g2-    1 5g4-    1 5g2-
                                   1 5g4-    1 5g2-    1 5g4-

   1.4   2    -0.2540  -11.1900 -0.000000  0.000000 -0.000003  0.000017 -0.000034  0.000690  0.006058 -0.061196  0.021416  0.206165
                                 0.362743  0.336367  0.190028  0.053179  0.058747  0.034782  0.002709  0.000878 -0.000000  0.001189
                                -0.000000  0.002557 -0.000000

   2.4   0     0.2179   -2.0465  0.000001 -0.000008  0.000042 -0.000169  0.000556 -0.001685  0.004351 -0.011217  0.077125  0.702417
                                 0.593709 -0.229724  0.250338 -0.567330 -0.516409 -0.781955  1.295916 -0.000017  0.000000 -0.000051
                                 0.000000 -0.000026  0.000000

   3.4   0     0.4834   -3.1668 -0.000003  0.000021 -0.000107  0.000425 -0.001407  0.004013 -0.013674  0.054678 -0.208309 -1.911829
                                -1.721294  0.477088 -0.806530  1.872039  1.312220  2.033182 -0.837577 -0.000045  0.000000 -0.000255
                                 0.000000  0.000087 -0.000000

                                   1 2pz     1 2pz     1 2pz     1 2pz     1 2pz     1 2pz     1 2pz     1 2pz     1 2pz     1 2pz
                                   1 2pz     1 2pz     1 2pz     1 2pz     1 2pz     1 2pz     1 2pz     1 2pz     1 2pz     1 2pz
                                   1 2pz     1 2pz     1 2pz     1 4f0     1 4f2+    1 4f0     1 4f2+    1 4f0     1 4f2+    1 4f0
                                   1 4f2+

   1.5   2    -2.4507  -17.0736  0.000000 -0.000000  0.000000 -0.000000  0.000002 -0.000008  0.000028 -0.000090  0.000270 -0.000782
                                 0.002635 -0.013524  0.080038 -0.176314 -0.521341  0.359845  0.271440  0.032569 -0.003416  0.002107
                                 0.376267  0.554795 -0.000558 -0.000690 -0.000000 -0.001000 -0.000000 -0.003051 -0.000000 -0.001021
                                -0.000000

   2.5   0     0.1160   -1.5906  0.000000 -0.000000  0.000000 -0.000000  0.000001 -0.000005  0.000016 -0.000053  0.000153 -0.000407
                                 0.001016 -0.002416  0.005568 -0.020226  0.564298  0.072654  0.070369 -0.136104  0.388072 -0.874012
                                -0.591498 -0.079141  1.479422 -0.000086  0.000000 -0.000022 -0.000000 -0.000046  0.000000  0.001122
                                -0.000000

   3.5   0     0.2078   -2.9729 -0.000000  0.000000 -0.000000  0.000000 -0.000002  0.000009 -0.000033  0.000107 -0.000310  0.000830
                                -0.002161  0.006088 -0.020628  0.060953 -0.956315 -0.184923 -0.174284  0.324078 -0.596103  1.959921
                                 1.024091  0.057682 -0.982799 -0.000378  0.000000 -0.000165  0.000000  0.000179 -0.000000  0.005770
                                -0.000000

                                   1 3d1+    1 3d1+    1 3d1+    1 3d1+    1 3d1+    1 3d1+    1 3d1+    1 3d1+    1 3d1+    1 3d1+
                                   1 3d1+    1 3d1+    1 3d1+    1 3d1+    1 3d1+    1 3d1+    1 3d1+    1 5g1+    1 5g3+    1 5g1+
                                   1 5g3+    1 5g1+    1 5g3+

   1.6   2    -0.2836  -11.2697 -0.000000  0.000000 -0.000003  0.000017 -0.000034  0.000693  0.006109 -0.061632  0.021372  0.207659
                                 0.366103  0.337575  0.183823  0.046816  0.059375  0.035429  0.001775  0.000915 -0.000000  0.001586
                                -0.000000  0.002511 -0.000000

   2.6   0     0.2173   -2.0472  0.000001 -0.000008  0.000042 -0.000168  0.000553 -0.001673  0.004344 -0.011341  0.076757  0.699094
                                 0.591494 -0.227392  0.250142 -0.562360 -0.513317 -0.777508  1.293694 -0.000072  0.000000 -0.000242
                                 0.000000 -0.000058  0.000000

   3.6   0     0.4803   -3.1585 -0.000003  0.000020 -0.000106  0.000420 -0.001392  0.003975 -0.013513  0.053904 -0.206103 -1.891766
                                -1.702715  0.473486 -0.793957  1.867147  1.299116  2.012613 -0.839176 -0.000239  0.000000 -0.001143
                                 0.000000  0.000347 -0.000000

                                   1 3d1-    1 3d1-    1 3d1-    1 3d1-    1 3d1-    1 3d1-    1 3d1-    1 3d1-    1 3d1-    1 3d1-
                                   1 3d1-    1 3d1-    1 3d1-    1 3d1-    1 3d1-    1 3d1-    1 3d1-    1 5g1-    1 5g3-    1 5g1-
                                   1 5g3-    1 5g1-    1 5g3-

   1.7   2    -0.2836  -11.2697 -0.000000  0.000000 -0.000003  0.000017 -0.000034  0.000693  0.006109 -0.061632  0.021372  0.207659
                                 0.366103  0.337575  0.183822  0.046815  0.059375  0.035429  0.001775  0.000915 -0.000000  0.001586
                                -0.000000  0.002511 -0.000000

   2.7   0     0.2173   -2.0472  0.000001 -0.000008  0.000042 -0.000168  0.000553 -0.001673  0.004344 -0.011341  0.076757  0.699095
                                 0.591494 -0.227392  0.250142 -0.562359 -0.513317 -0.777508  1.293694 -0.000072  0.000000 -0.000242
                                 0.000000 -0.000058  0.000000

   3.7   0     0.4803   -3.1585 -0.000003  0.000020 -0.000106  0.000420 -0.001392  0.003975 -0.013513  0.053904 -0.206102 -1.891765
                                -1.702714  0.473486 -0.793956  1.867147  1.299116  2.012612 -0.839176 -0.000239  0.000000 -0.001143
                                 0.000000  0.000347  0.000000

                                   1 4f2-    1 4f2-    1 4f2-    1 4f2-

   1.8   0     1.0373   -4.1704 -0.006776  0.134350 -0.210870  1.104247

   2.8   0     2.2088   -5.1209  0.181449 -0.031617  1.270996 -0.782996

 HOMO      1.4    -0.254002 =      -6.9117eV
 LUMO      2.5     0.116046 =       3.1578eV
 LUMO-HOMO         0.370048 =      10.0695eV


 **********************************************************************************************************************************
 DATASETS  * FILE   NREC   LENGTH (MB)   RECORD NAMES
              1      19       20.38       500      610      700      900      950      970     1000      129      960     1100
                                          VAR    BASINP    GEOM    SYMINP    ZMAT    AOBASIS   BASIS     P2S    ABASIS      S
                                         1400     1410     1420     1200     1210     1080     1600     1650     1700
                                           T        V       ECP      H0       H01     AOSYM     SMH    MOLCAS    OPER

              2       5        5.65       200      700     1000      520     4202
                                        OPTIONS   GEOM     BASIS   MCVARS     RHF

 PROGRAMS   *        TOTAL       RHF  RCCSD(T)       RHF       INT
 CPU TIMES  *        41.18      1.17     16.28      0.52     22.18
 REAL TIME  *        46.51 SEC
 DISK USED  *         3.70 GB
 SF USED    *       418.43 MB
 GA USED    *         0.00 MB       (max)       0.00 MB       (current)
 **********************************************************************************************************************************
   -->
   <time start="16:43:30" end="16:43:32" cpu="1.24" system="0.15" real="1.52"/>
   <storage units="megabyte" memory="4097.84" sf="418.43" df="2855.76" eaf="848.77"
     ga="0.0"/>
  </jobstep><!--
  --><jobstep command="POP" commandset="POP">
   <!--


 PROGRAM * POP (Mulliken population analysis)


 Density matrix read from record         4202.2  Type=RHF/CHARGE (state 1.1)

 Population analysis by basis function type

 Unique atom        s        p        d        f        g    Total    Charge
   1  PD      4.00007  5.99971  8.99969  0.00029  0.00024 19.00000  - 1.00000


 **********************************************************************************************************************************
 DATASETS  * FILE   NREC   LENGTH (MB)   RECORD NAMES
              1      19       20.38       500      610      700      900      950      970     1000      129      960     1100
                                          VAR    BASINP    GEOM    SYMINP    ZMAT    AOBASIS   BASIS     P2S    ABASIS      S
                                         1400     1410     1420     1200     1210     1080     1600     1650     1700
                                           T        V       ECP      H0       H01     AOSYM     SMH    MOLCAS    OPER

              2       5        5.65       200      700     1000      520     4202
                                        OPTIONS   GEOM     BASIS   MCVARS     RHF

 PROGRAMS   *        TOTAL       POP       RHF  RCCSD(T)       RHF       INT
 CPU TIMES  *        41.19      0.00      1.17     16.28      0.52     22.18
 REAL TIME  *        46.52 SEC
 DISK USED  *         3.70 GB
 SF USED    *       418.43 MB
 GA USED    *         0.00 MB       (max)       0.00 MB       (current)
 **********************************************************************************************************************************
   -->
   <time start="16:43:32" end="16:43:32" cpu="0.01" system="0.0" real="0.01"/>
   <storage units="megabyte" memory="4097.84" sf="418.43" df="2855.76" eaf="848.77"
     ga="0.0"/>
  </jobstep><!--
  --><jobstep command="MULTI" commandset="MULTI">
   <!--


 PROGRAM * MULTI (Direct Multiconfiguration SCF)       Authors: P.J. Knowles, H.-J. Werner (1984)     S.T. Elbert (1988)


 Number of closed-shell orbitals:   5 (   2   1   1   0   1   0   0   0 )
 Number of active  orbitals:        5 (   2   0   0   1   0   1   1   0 )
 Number of external orbitals:     228 (  68  30  30  22  30  22  22   4 )

 State symmetry 1

 Number of electrons:     9    Spin symmetry=Doublet   Space symmetry=1
 Number of states:        2
 Number of CSFs:          2   (2 determinants, 5 intermediate states)

 State symmetry 2

 Number of electrons:     9    Spin symmetry=Doublet   Space symmetry=4
 Number of states:        1
 Number of CSFs:          1   (1 determinants, 5 intermediate states)

 State symmetry 3

 Number of electrons:     9    Spin symmetry=Doublet   Space symmetry=6
 Number of states:        1
 Number of CSFs:          1   (1 determinants, 5 intermediate states)

 State symmetry 4

 Number of electrons:     9    Spin symmetry=Doublet   Space symmetry=7
 Number of states:        1
 Number of CSFs:          1   (1 determinants, 5 intermediate states)

 Molecular orbitals read from record     4202.2  Type=RHF/CANONICAL (state 1.1)
 *** IN SYMMETRY 1 ORBITAL  1 SYMMETRY CONTAMINATION OF 0.236D-02 HAS BEEN REMOVED
 *** IN SYMMETRY 1 ORBITAL  2 SYMMETRY CONTAMINATION OF 0.119D-01 HAS BEEN REMOVED
 *** IN SYMMETRY 1 ORBITAL  3 SYMMETRY CONTAMINATION OF 0.347D-02 HAS BEEN REMOVED
 *** IN SYMMETRY 1 ORBITAL  4 SYMMETRY CONTAMINATION OF 0.104D+00 HAS BEEN REMOVED

 EXTRA SYMMETRY OF MOS IN SYMMETRY 1:   1 1 3 2 1 2 3 1 2 3   1 2 3 1 2 3 4 6 5 2   3 1 4 6 5 2 3 1 1 6   5 2 3 1 2 3 1 2 3 2
                                        3 1 1 2 3 1 2 3 1 2   3 1 1 2 3 1 2 3 1 1   2 3 1 1 1 1 1 1 1 1   1 4
 *** IN SYMMETRY 2 ORBITAL  1 SYMMETRY CONTAMINATION OF 0.393D-02 HAS BEEN REMOVED
 EXTRA SYMMETRY OF MOS IN SYMMETRY 2:   1 1 1 1 1 2 3 2 3 1   2 3 1 2 3 1 1 1 1 1   1 1 1 1 1 1 1 1 1 1   1
 *** IN SYMMETRY 3 ORBITAL  1 SYMMETRY CONTAMINATION OF 0.393D-02 HAS BEEN REMOVED
 EXTRA SYMMETRY OF MOS IN SYMMETRY 3:   1 1 1 1 1 2 3 2 3 1   2 3 1 2 3 1 1 1 1 1   1 1 1 1 1 1 1 1 1 1   1
 *** IN SYMMETRY 4 ORBITAL  1 SYMMETRY CONTAMINATION OF 0.345D-02 HAS BEEN REMOVED
 EXTRA SYMMETRY OF MOS IN SYMMETRY 4:   1 1 1 1 1 2 3 1 2 3   1 2 3 1 1 1 1 1 1 1   1 1 1
 *** IN SYMMETRY 5 ORBITAL  1 SYMMETRY CONTAMINATION OF 0.240D-02 HAS BEEN REMOVED
 EXTRA SYMMETRY OF MOS IN SYMMETRY 5:   1 1 1 1 1 2 3 2 3 1   2 3 1 2 3 1 1 1 1 1   1 1 1 1 1 1 1 1 1 1   1
 *** IN SYMMETRY 6 ORBITAL  1 SYMMETRY CONTAMINATION OF 0.376D-02 HAS BEEN REMOVED
 EXTRA SYMMETRY OF MOS IN SYMMETRY 6:   1 1 1 1 1 2 3 1 2 3   1 2 3 1 1 1 1 1 1 1   1 1 1
 *** IN SYMMETRY 7 ORBITAL  1 SYMMETRY CONTAMINATION OF 0.376D-02 HAS BEEN REMOVED
 EXTRA SYMMETRY OF MOS IN SYMMETRY 7:   1 1 1 1 1 2 3 1 2 3   1 2 3 1 1 1 1 1 1 1   1 1 1

 Wavefunction dump at record             5202.2

 Convergence thresholds  0.10E-01 (gradient)  0.10E-05 (energy)  0.10E-02 (step length)

 Weight factors for state symmetry  1:    0.20000   0.20000
 Weight factors for state symmetry  2:    0.20000
 Weight factors for state symmetry  3:    0.20000
 Weight factors for state symmetry  4:    0.20000

 Number of orbital rotations:      432   (     4 Core/Active    226 Core/Virtual   0 Active/Active    202 Active/Virtual)
 Total number of variables:        439


 ITER. MIC  NCI  NEG     ENERGY(VAR)     ENERGY(PROJ)   ENERGY CHANGE     GRAD(0)  GRAD(ORB)   GRAD(CI)     STEP       TIME

   1   47   16    0    -126.82563156    -126.82664008   -0.00100853    7.22087741 0.00000000 0.00000000  0.28D-01      0.31
   2   19   20    0    -126.82275496    -126.82662105   -0.00386609   *********** 0.00005531 0.00000000  0.73D-03      0.64
   3   33   20    0    -126.82662105    -126.82662105   -0.00000000    0.00005531 0.00000000 0.00000000  0.27D-06      0.98

 ** WVFN ****  CONVERGENCE REACHED, FINAL GRADIENT:  0.30D-10



 Results for state 1.1
 =====================

 !MCSCF STATE 1.1 Energy             -126.826621048363
   --><property name="Energy" method="MCSCF" principal="true" stateSymmetry="1" stateNumber="1"
     value="-126.826621048363"/><!--
 Nuclear energy                         0.00000000
 Kinetic energy                        48.37849848
 One electron energy                 -228.65012409
 Two electron energy                  101.82350305
 Virial ratio                           3.62154935

 !MCSCF STATE 1.1 Dipole moment         0.00000000     0.00000000     0.00000000
 Dipole moment /Debye                   0.00000000     0.00000000     0.00000000
   --><property name="Dipole moment" method="MCSCF" principal="true" stateSymmetry="1"
     stateNumber="1" value="0.0 0.0 0.0"/><!--

 Results for state 2.1
 =====================

 !MCSCF STATE 2.1 Energy             -126.826621048363
   --><property name="Energy" method="MCSCF" principal="true" stateSymmetry="1" stateNumber="2"
     value="-126.826621048363"/><!--
 Nuclear energy                         0.00000000
 Kinetic energy                        48.37849848
 One electron energy                 -228.65012409
 Two electron energy                  101.82350305
 Virial ratio                           3.62154935

 !MCSCF STATE 2.1 Dipole moment         0.00000000     0.00000000     0.00000000
 Dipole moment /Debye                   0.00000000     0.00000000     0.00000000
   --><property name="Dipole moment" method="MCSCF" principal="true" stateSymmetry="1"
     stateNumber="2" value="0.0 0.0 0.0"/><!--



 Results for state 1.4
 =====================

 !MCSCF STATE 1.4 Energy             -126.826621048363
   --><property name="Energy" method="MCSCF" principal="true" stateSymmetry="4" stateNumber="1"
     value="-126.826621048363"/><!--
 Nuclear energy                         0.00000000
 Kinetic energy                        48.37849848
 One electron energy                 -228.65012409
 Two electron energy                  101.82350305
 Virial ratio                           3.62154935

 !MCSCF STATE 1.4 Dipole moment         0.00000000     0.00000000     0.00000000
 Dipole moment /Debye                   0.00000000     0.00000000     0.00000000
   --><property name="Dipole moment" method="MCSCF" principal="true" stateSymmetry="4"
     stateNumber="1" value="0.0 0.0 0.0"/><!--



 Results for state 1.6
 =====================

 !MCSCF STATE 1.6 Energy             -126.826621048363
   --><property name="Energy" method="MCSCF" principal="true" stateSymmetry="6" stateNumber="1"
     value="-126.826621048363"/><!--
 Nuclear energy                         0.00000000
 Kinetic energy                        48.37849848
 One electron energy                 -228.65012409
 Two electron energy                  101.82350305
 Virial ratio                           3.62154935

 !MCSCF STATE 1.6 Dipole moment         0.00000000     0.00000000     0.00000000
 Dipole moment /Debye                   0.00000000     0.00000000     0.00000000
   --><property name="Dipole moment" method="MCSCF" principal="true" stateSymmetry="6"
     stateNumber="1" value="0.0 0.0 0.0"/><!--



 Results for state 1.7
 =====================

 !MCSCF STATE 1.7 Energy             -126.826621048363
   --><property name="Energy" method="MCSCF" principal="true" stateSymmetry="7" stateNumber="1"
     value="-126.826621048363"/><!--
 Nuclear energy                         0.00000000
 Kinetic energy                        48.37849848
 One electron energy                 -228.65012409
 Two electron energy                  101.82350305
 Virial ratio                           3.62154935

 !MCSCF STATE 1.7 Dipole moment         0.00000000     0.00000000     0.00000000
 Dipole moment /Debye                   0.00000000     0.00000000     0.00000000
   --><property name="Dipole moment" method="MCSCF" principal="true" stateSymmetry="7"
     stateNumber="1" value="0.0 0.0 0.0"/><!--

 State-averaged charge density matrix saved on record  5202.2 (density set 1)


 NATURAL ORBITALS (state averaged)
 =================================

   Orb     Occ        Energy       Coefficients

                                   1 1s      1 1s      1 1s      1 1s      1 1s      1 1s      1 1s      1 1s      1 1s      1 1s
                                   1 1s      1 1s      1 1s      1 1s      1 1s      1 1s      1 1s      1 1s      1 1s      1 1s
                                   1 1s      1 1s      1 1s      1 1s      1 1s      1 1s      1 1s      1 1s      1 1s      1 3d0
                                   1 3d2+    1 3d0     1 3d2+    1 3d0     1 3d2+    1 3d0     1 3d2+    1 3d0     1 3d2+    1 3d0
                                   1 3d2+    1 3d0     1 3d2+    1 3d0     1 3d2+    1 3d0     1 3d2+    1 3d0     1 3d2+    1 3d0
                                   1 3d2+    1 3d0     1 3d2+    1 3d0     1 3d2+    1 3d0     1 3d2+    1 3d0     1 3d2+    1 3d0
                                   1 3d2+    1 3d0     1 3d2+    1 5g0     1 5g4+    1 5g2+    1 5g0     1 5g4+    1 5g2+    1 5g0
                                   1 5g4+    1 5g2+

   1.1  2.00000    -3.900736    -0.000000  0.000000 -0.000000  0.000000 -0.000000  0.000000 -0.000002  0.000005 -0.000016  0.000043
                                -0.000116  0.000301 -0.000772  0.001964 -0.005033  0.013267 -0.033763  0.033776  0.264269 -0.872188
                                -0.250225  0.970914  0.514648  0.025801 -0.010485  0.004126  0.239937 -0.093627 -0.001076  0.000000
                                 0.000000  0.000000  0.000000  0.000000  0.000000  0.000000  0.000000  0.000000  0.000000  0.000000
                                 0.000000  0.000000  0.000000  0.000000  0.000000  0.000000  0.000000  0.000000  0.000000  0.000000
                                 0.000000  0.000000  0.000000  0.000000  0.000000  0.000000  0.000000  0.000000  0.000000  0.000000
                                 0.000000  0.000000  0.000000  0.000000  0.000000  0.000000  0.000000  0.000000  0.000000  0.000000
                                 0.000000  0.000000

   2.1  2.00000    -0.021919     0.000000 -0.000000  0.000000 -0.000000  0.000000 -0.000000  0.000000 -0.000001  0.000003 -0.000009
                                 0.000024 -0.000063  0.000160 -0.000408  0.001047 -0.002771  0.007168 -0.008221 -0.051501  0.184111
                                 0.035623 -0.229998 -0.199908  0.080193  0.389987  0.212840 -0.041898  0.001530  0.486265  0.000000
                                 0.000000  0.000000  0.000000  0.000000  0.000000  0.000000  0.000000  0.000000  0.000000  0.000000
                                 0.000000  0.000000  0.000000  0.000000  0.000000  0.000000  0.000000  0.000000  0.000000  0.000000
                                 0.000000  0.000000  0.000000  0.000000  0.000000  0.000000  0.000000  0.000000  0.000000  0.000000
                                 0.000000  0.000000  0.000000  0.000000  0.000000  0.000000  0.000000  0.000000  0.000000  0.000000
                                 0.000000  0.000000

   3.1  1.80000    -0.215524     0.000000  0.000000  0.000000  0.000000  0.000000  0.000000  0.000000  0.000000  0.000000  0.000000
                                 0.000000  0.000000  0.000000  0.000000  0.000000  0.000000  0.000000  0.000000  0.000000  0.000000
                                 0.000000  0.000000  0.000000  0.000000  0.000000  0.000000  0.000000  0.000000  0.000000 -0.000000
                                 0.000000  0.000000  0.000000 -0.000003  0.000000  0.000017  0.000000 -0.000034  0.000000  0.000692
                                 0.000000  0.006095  0.000000 -0.061502  0.000000  0.021357  0.000000  0.207398  0.000000  0.365458
                                 0.000000  0.337261  0.000000  0.185347  0.000000  0.048412  0.000000  0.059072  0.000000  0.035143
                                 0.000000  0.001995  0.000000  0.000000  0.000000  0.000000  0.000000  0.000000  0.000000  0.000000
                                 0.000000  0.000000

   4.1  1.80000    -0.215524     0.000000  0.000000  0.000000  0.000000  0.000000  0.000000  0.000000  0.000000  0.000000  0.000000
                                 0.000000  0.000000  0.000000  0.000000  0.000000  0.000000  0.000000  0.000000  0.000000  0.000000
                                 0.000000  0.000000  0.000000  0.000000  0.000000  0.000000  0.000000  0.000000  0.000000  0.000000
                                -0.000000  0.000000  0.000000  0.000000 -0.000003  0.000000  0.000017  0.000000 -0.000034  0.000000
                                 0.000692  0.000000  0.006095  0.000000 -0.061502  0.000000  0.021357  0.000000  0.207398  0.000000
                                 0.365458  0.000000  0.337261  0.000000  0.185347  0.000000  0.048412  0.000000  0.059072  0.000000
                                 0.035143  0.000000  0.001995  0.000000  0.000000  0.000000  0.000000  0.000000  0.000000  0.000000
                                 0.000000  0.000000

                                   1 2px     1 2px     1 2px     1 2px     1 2px     1 2px     1 2px     1 2px     1 2px     1 2px
                                   1 2px     1 2px     1 2px     1 2px     1 2px     1 2px     1 2px     1 2px     1 2px     1 2px
                                   1 2px     1 2px     1 2px     1 4f1+    1 4f3+    1 4f1+    1 4f3+    1 4f1+    1 4f3+    1 4f1+
                                   1 4f3+

   1.2  2.00000    -2.446601     0.000000 -0.000000  0.000000 -0.000000  0.000002 -0.000008  0.000028 -0.000090  0.000270 -0.000784
                                 0.002637 -0.013523  0.080013 -0.176388 -0.518241  0.359775  0.272904  0.034119 -0.003414  0.002201
                                 0.373560  0.552565 -0.000580  0.000000  0.000000  0.000000  0.000000  0.000000  0.000000  0.000000
                                 0.000000

                                   1 2py     1 2py     1 2py     1 2py     1 2py     1 2py     1 2py     1 2py     1 2py     1 2py
                                   1 2py     1 2py     1 2py     1 2py     1 2py     1 2py     1 2py     1 2py     1 2py     1 2py
                                   1 2py     1 2py     1 2py     1 4f1-    1 4f3-    1 4f1-    1 4f3-    1 4f1-    1 4f3-    1 4f1-
                                   1 4f3-

   1.3  2.00000    -2.446601     0.000000 -0.000000  0.000000 -0.000000  0.000002 -0.000008  0.000028 -0.000090  0.000270 -0.000784
                                 0.002637 -0.013523  0.080013 -0.176388 -0.518241  0.359775  0.272904  0.034119 -0.003414  0.002201
                                 0.373560  0.552565 -0.000580  0.000000  0.000000  0.000000  0.000000  0.000000  0.000000  0.000000
                                 0.000000

                                   1 3d2-    1 3d2-    1 3d2-    1 3d2-    1 3d2-    1 3d2-    1 3d2-    1 3d2-    1 3d2-    1 3d2-
                                   1 3d2-    1 3d2-    1 3d2-    1 3d2-    1 3d2-    1 3d2-    1 3d2-    1 5g2-    1 5g4-    1 5g2-
                                   1 5g4-    1 5g2-    1 5g4-

   1.4  1.80000    -0.215524    -0.000000  0.000000 -0.000003  0.000017 -0.000034  0.000692  0.006095 -0.061502  0.021357  0.207398
                                 0.365458  0.337261  0.185347  0.048412  0.059072  0.035143  0.001995  0.000000  0.000000  0.000000
                                 0.000000  0.000000  0.000000

                                   1 2pz     1 2pz     1 2pz     1 2pz     1 2pz     1 2pz     1 2pz     1 2pz     1 2pz     1 2pz
                                   1 2pz     1 2pz     1 2pz     1 2pz     1 2pz     1 2pz     1 2pz     1 2pz     1 2pz     1 2pz
                                   1 2pz     1 2pz     1 2pz     1 4f0     1 4f2+    1 4f0     1 4f2+    1 4f0     1 4f2+    1 4f0
                                   1 4f2+

   1.5  2.00000    -2.446601     0.000000 -0.000000  0.000000 -0.000000  0.000002 -0.000008  0.000028 -0.000090  0.000270 -0.000784
                                 0.002637 -0.013523  0.080013 -0.176388 -0.518241  0.359775  0.272904  0.034119 -0.003414  0.002201
                                 0.373560  0.552565 -0.000580  0.000000  0.000000  0.000000  0.000000  0.000000  0.000000  0.000000
                                 0.000000

                                   1 3d1+    1 3d1+    1 3d1+    1 3d1+    1 3d1+    1 3d1+    1 3d1+    1 3d1+    1 3d1+    1 3d1+
                                   1 3d1+    1 3d1+    1 3d1+    1 3d1+    1 3d1+    1 3d1+    1 3d1+    1 5g1+    1 5g3+    1 5g1+
                                   1 5g3+    1 5g1+    1 5g3+

   1.6  1.80000    -0.215524    -0.000000  0.000000 -0.000003  0.000017 -0.000034  0.000692  0.006095 -0.061502  0.021357  0.207398
                                 0.365458  0.337261  0.185347  0.048412  0.059072  0.035143  0.001995  0.000000  0.000000  0.000000
                                 0.000000  0.000000  0.000000

                                   1 3d1-    1 3d1-    1 3d1-    1 3d1-    1 3d1-    1 3d1-    1 3d1-    1 3d1-    1 3d1-    1 3d1-
                                   1 3d1-    1 3d1-    1 3d1-    1 3d1-    1 3d1-    1 3d1-    1 3d1-    1 5g1-    1 5g3-    1 5g1-
                                   1 5g3-    1 5g1-    1 5g3-

   1.7  1.80000    -0.215524    -0.000000  0.000000 -0.000003  0.000017 -0.000034  0.000692  0.006095 -0.061502  0.021357  0.207398
                                 0.365458  0.337261  0.185347  0.048412  0.059072  0.035143  0.001995  0.000000  0.000000  0.000000
                                 0.000000  0.000000  0.000000

 Total charge:  -1.000000000000


 EXTRA SYMMETRY OF MOS IN SYMMETRY 1:   1 1 2 3 1 3 2 1 2 3   1 3 2 1 2 3 5 4 6 2   3 1 5 6 4 2 3 1 6 4   5 3 2 1 2 3 1 3 2 2
                                        3 1 1 2 3 1 2 3 1 2   3 1 1 2 3 1 2 3 1 1   3 2 1 1 1 1 1 1 1 1   1 1
 EXTRA SYMMETRY OF MOS IN SYMMETRY 2:   1 1 1 1 1 2 3 2 3 1   2 3 1 3 2 1 1 1 1 1   1 1 1 1 1 1 1 1 1 1   1
 EXTRA SYMMETRY OF MOS IN SYMMETRY 3:   1 1 1 1 1 2 3 3 2 1   2 3 1 3 2 1 1 1 1 1   1 1 1 1 1 1 1 1 1 1   1
 EXTRA SYMMETRY OF MOS IN SYMMETRY 4:   1 1 1 1 1 3 2 1 3 2   1 3 2 1 1 1 1 1 1 1   1 1 1
 EXTRA SYMMETRY OF MOS IN SYMMETRY 5:   1 1 1 1 1 3 2 3 2 1   2 3 1 3 2 1 1 1 1 1   1 1 1 1 1 1 1 1 1 1   1
 EXTRA SYMMETRY OF MOS IN SYMMETRY 6:   1 1 1 1 1 2 3 1 3 2   1 2 3 1 1 1 1 1 1 1   1 1 1

 Natural orbital dump (state averaged) at molpro section  5202.2    (Orbital set 2)


 CI vector for state symmetry 1
 ==============================

 a2 2 2 2          1.0000000   0.0000000
 2a 2 2 2          0.0000000   1.0000000

 TOTAL ENERGIES                      -126.82662105  -126.82662105

 CI vector for state symmetry 2
 ==============================

 22 a 2 2          1.0000000

 TOTAL ENERGIES                      -126.82662105

 CI vector for state symmetry 3
 ==============================

 22 2 a 2          1.0000000

 TOTAL ENERGIES                      -126.82662105

 CI vector for state symmetry 4
 ==============================

 22 2 2 a          1.0000000

 TOTAL ENERGIES                      -126.82662105



 **********************************************************************************************************************************
 DATASETS  * FILE   NREC   LENGTH (MB)   RECORD NAMES
              1      20       25.62       500      610      700      900      950      970     1000      129      960     1100
[...]
   19      0.140D-03      0.171D-04      -126.83004067    196.597698    0.00000    0.00000    0.00000    9    diag,B
   20      0.250D-04      0.462D-05      -126.83004449    196.596844    0.00000    0.00000    0.00000    9    orth
   21      0.158D-03      0.198D-04      -126.83004449    196.596835    0.00000    0.00000    0.00000    9    diag,B
   22      0.473D-05      0.144D-04      -126.83004480    196.596469    0.00000    0.00000    0.00000    9    diag,B
   23      0.597D-04      0.181D-04      -126.83004377    196.597315    0.00000    0.00000    0.00000    9    diag,B
   24      0.104D-03      0.159D-04      -126.83004436    196.596749    0.00000    0.00000    0.00000    9    diag,B
   25      0.460D-04      0.280D-04      -126.83004411    196.596998    0.00000    0.00000    0.00000    9    diag,B
   26      0.669D-05      0.382D-04      -126.83004464    196.596497    0.00000    0.00000    0.00000    9    diag,B
   27      0.413D-04      0.278D-04      -126.83004472    196.596539    0.00000    0.00000    0.00000    9    diag,B
   28      0.188D-05      0.209D-04      -126.83004485    196.596632    0.00000    0.00000    0.00000    9    diag,B
   29      0.183D-04      0.967D-05      -126.83004488    196.596775    0.00000    0.00000    0.00000    9    diag,B
   30      0.454D-05      0.114D-05      -126.83004488    196.596788    0.00000    0.00000    0.00000    0    orth

 Final alpha occupancy:   4   1   1   1   1   1   1   0
 Final beta  occupancy:   2   1   1   1   1   1   1   0

 !RHF STATE 1.1 Energy               -126.830044877767
   --><property name="Energy" method="RHF" principal="true" stateSymmetry="1" stateNumber="1"
     value="-126.830044877767"/><!--
 Nuclear energy                         0.00000000
 One-electron energy                 -225.12843876
 Two-electron energy                   98.29839388
 Virial quotient                       -2.61927193
 !RHF STATE 1.1 Dipole moment           0.00000000     0.00000000     0.00000000
 Dipole moment /Debye                   0.00000000     0.00000000     0.00000000
   --><property name="Dipole moment" method="RHF" principal="true" stateSymmetry="1"
     stateNumber="1" value="0.0 0.0 0.0"/><!--

 ELECTRON ORBITALS
 =================


   Orb  Occ    Energy  Couls-En    Coefficients

                                   1 1s      1 1s      1 1s      1 1s      1 1s      1 1s      1 1s      1 1s      1 1s      1 1s
                                   1 1s      1 1s      1 1s      1 1s      1 1s      1 1s      1 1s      1 1s      1 1s      1 1s
                                   1 1s      1 1s      1 1s      1 1s      1 1s      1 1s      1 1s      1 1s      1 1s      1 3d0
                                   1 3d2+    1 3d0     1 3d2+    1 3d0     1 3d2+    1 3d0     1 3d2+    1 3d0     1 3d2+    1 3d0
                                   1 3d2+    1 3d0     1 3d2+    1 3d0     1 3d2+    1 3d0     1 3d2+    1 3d0     1 3d2+    1 3d0
                                   1 3d2+    1 3d0     1 3d2+    1 3d0     1 3d2+    1 3d0     1 3d2+    1 3d0     1 3d2+    1 3d0
                                   1 3d2+    1 3d0     1 3d2+    1 5g0     1 5g4+    1 5g2+    1 5g0     1 5g4+    1 5g2+    1 5g0
                                   1 5g4+    1 5g2+

   1.1   2    -4.0950  -20.4280 -0.000000  0.000000 -0.000000  0.000000 -0.000000  0.000000 -0.000002  0.000005 -0.000016  0.000043
                                -0.000116  0.000301 -0.000771  0.001962 -0.005030  0.013257 -0.033738  0.033730  0.264258 -0.872225
                                -0.251194  0.971719  0.516295  0.025731 -0.010646  0.004108  0.240882 -0.095796 -0.001075  0.000000
                                 0.000000 -0.000000 -0.000000  0.000000  0.000000 -0.000001 -0.000000  0.000002  0.000000 -0.000006
                                 0.000000  0.000038  0.000000 -0.000156 -0.000000 -0.000180  0.000000  0.000801  0.000002 -0.000595
                                 0.000002 -0.002017  0.000001 -0.001189  0.000000 -0.000186  0.000000  0.000417  0.000001  0.000989
                                 0.000001  0.000000 -0.000000 -0.000172  0.000000  0.000000 -0.000520  0.000000  0.000000 -0.000699
                                 0.000000  0.000000

   2.1   2    -0.4495  -11.4112  0.000000 -0.000000  0.000000 -0.000000  0.000000 -0.000000  0.000000 -0.000000  0.000000 -0.000000
                                 0.000000 -0.000000  0.000000 -0.000000  0.000000 -0.000000  0.000000 -0.000000 -0.000001  0.000003
                                -0.000007  0.000005  0.000007  0.000004 -0.000005 -0.000008  0.000005 -0.000015 -0.000001 -0.000000
                                -0.000000  0.000000  0.000000 -0.000000 -0.000003  0.000000  0.000017 -0.000000 -0.000035  0.000000
                                 0.000693  0.000002  0.006067 -0.000020 -0.061331  0.000007  0.021386  0.000068  0.205763  0.000120
                                 0.362745  0.000112  0.338353  0.000063  0.190368  0.000015  0.044979  0.000020  0.059519  0.000012
                                 0.035842 -0.000001 -0.000707  0.000000  0.000001  0.000888  0.000001  0.000001  0.001216  0.000001
                                 0.000002  0.002578

   3.1   +    -0.5358  -11.5895  0.000000 -0.000000  0.000000 -0.000000  0.000000 -0.000000  0.000000 -0.000000  0.000000 -0.000001
                                 0.000002 -0.000006  0.000016 -0.000040  0.000102 -0.000266  0.000685 -0.001029 -0.002703  0.009452
                                -0.015016  0.005886  0.009294  0.026025  0.004451  0.002141  0.010869 -0.032750 -0.000524 -0.000000
                                 0.000000  0.000000 -0.000000 -0.000003  0.000000  0.000017 -0.000000 -0.000033  0.000000  0.000692
                                -0.000000  0.006159 -0.000002 -0.061902  0.000020  0.020718 -0.000007  0.208833 -0.000069  0.370343
                                -0.000122  0.340278 -0.000112  0.176227 -0.000058  0.033612 -0.000011  0.060029 -0.000020  0.037071
                                -0.000012 -0.000934  0.000000  0.002120  0.000000  0.000000  0.004093  0.000000  0.000001  0.005758
                                 0.000000  0.000001

   4.1   +    -0.2382   -6.0667  0.000000 -0.000000  0.000000 -0.000000  0.000000 -0.000000  0.000000 -0.000001  0.000004 -0.000011
                                 0.000029 -0.000076  0.000195 -0.000497  0.001280 -0.003413  0.008874 -0.009396 -0.072138  0.263220
                                 0.105974 -0.400306 -0.320368  0.173591  0.612371  0.363360 -0.109319  0.112030  0.014546  0.000000
                                -0.000000 -0.000000  0.000000  0.000000 -0.000000 -0.000000  0.000000  0.000000 -0.000000 -0.000023
                                 0.000000 -0.000240  0.000000  0.002359 -0.000001 -0.000774  0.000000 -0.008752  0.000001 -0.013779
                                 0.000003 -0.007555  0.000006  0.003463  0.000008  0.005966  0.000005 -0.002124  0.000001 -0.001588
                                 0.000000  0.001234 -0.000002 -0.000290 -0.000000  0.000000 -0.000425  0.000000  0.000000  0.002477
                                -0.000000 -0.000001

   5.1   0     0.0318   -1.9338  0.000000 -0.000000  0.000000 -0.000000  0.000000 -0.000000  0.000000 -0.000001  0.000002 -0.000006
                                 0.000015 -0.000039  0.000098 -0.000242  0.000576 -0.001311  0.002990 -0.010612  0.054953 -0.243712
                                -0.540678  0.906655  0.468114 -0.470280  0.923563 -2.494024  0.504779 -0.943932  2.397703  0.000000
                                 0.000000 -0.000000 -0.000000  0.000000  0.000000 -0.000001 -0.000000  0.000002  0.000000 -0.000003
                                -0.000000  0.000068  0.000000 -0.000525 -0.000000  0.000503  0.000000  0.005023  0.000003  0.005462
                                 0.000003  0.000165 -0.000001 -0.000421 -0.000000 -0.003307 -0.000003 -0.001933 -0.000002 -0.003242
                                -0.000003  0.005888  0.000005  0.000072  0.000000 -0.000000  0.000084 -0.000000 -0.000000 -0.000645
                                 0.000000  0.000000

   6.1   0     0.0961   -2.2593 -0.000000  0.000000 -0.000000  0.000000 -0.000000  0.000000 -0.000000  0.000000 -0.000000  0.000000
                                -0.000001  0.000002 -0.000006  0.000016 -0.000039  0.000099 -0.000246  0.000449  0.000007  0.000982
                                 0.011619 -0.014939 -0.006528  0.006304 -0.032113  0.037497 -0.010496  0.021824 -0.020860  0.000001
                                -0.000000 -0.000006  0.000000  0.000030 -0.000000 -0.000122  0.000000  0.000401 -0.000000 -0.001228
                                 0.000000  0.002993 -0.000001 -0.006666  0.000002  0.055088 -0.000020  0.502116 -0.000180  0.421012
                                -0.000151 -0.175015  0.000063  0.182232 -0.000065 -0.409646  0.000148 -0.373875  0.000135 -0.566176
                                 0.000204  1.222376 -0.000439 -0.000102 -0.000000 -0.000000 -0.000426 -0.000000 -0.000000 -0.000004
                                -0.000000  0.000000

                                   1 2px     1 2px     1 2px     1 2px     1 2px     1 2px     1 2px     1 2px     1 2px     1 2px
                                   1 2px     1 2px     1 2px     1 2px     1 2px     1 2px     1 2px     1 2px     1 2px     1 2px
                                   1 2px     1 2px     1 2px     1 4f1+    1 4f3+    1 4f1+    1 4f3+    1 4f1+    1 4f3+    1 4f1+
                                   1 4f3+

   1.2   2    -2.6400  -17.2535  0.000000 -0.000000  0.000000 -0.000000  0.000002 -0.000008  0.000028 -0.000090  0.000271 -0.000785
                                 0.002639 -0.013522  0.079979 -0.176382 -0.515974  0.359568  0.274518  0.034710 -0.003884  0.002045
                                 0.371543  0.550963 -0.000617  0.002351  0.000001  0.004040  0.000001  0.002829  0.000000  0.000302
                                -0.000000

   2.2   0     0.0205   -2.2896  0.000000 -0.000000  0.000000 -0.000000  0.000000 -0.000001  0.000005 -0.000015  0.000044 -0.000114
                                 0.000249 -0.000198 -0.002290  0.002502  0.241379  0.005504  0.007389 -0.028490  0.250104 -0.216657
                                -0.244154 -0.065573  1.067624 -0.000107 -0.000000  0.000054 -0.000000 -0.000221 -0.000000  0.001926
                                 0.000002

   3.2   0     0.0696   -2.9978 -0.000000  0.000000 -0.000000  0.000000 -0.000001  0.000006 -0.000022  0.000072 -0.000209  0.000563
                                -0.001498  0.004569 -0.017538  0.048909 -0.572660 -0.139389 -0.131675  0.228411 -0.254360  1.734703
                                 0.623074 -0.000084 -1.300327 -0.000188 -0.000000  0.000085 -0.000000 -0.000308 -0.000000  0.003623
                                 0.000004

                                   1 2py     1 2py     1 2py     1 2py     1 2py     1 2py     1 2py     1 2py     1 2py     1 2py
                                   1 2py     1 2py     1 2py     1 2py     1 2py     1 2py     1 2py     1 2py     1 2py     1 2py
                                   1 2py     1 2py     1 2py     1 4f1-    1 4f3-    1 4f1-    1 4f3-    1 4f1-    1 4f3-    1 4f1-
                                   1 4f3-

   1.3   2    -2.6400  -17.2535  0.000000 -0.000000  0.000000 -0.000000  0.000002 -0.000008  0.000028 -0.000090  0.000271 -0.000785
                                 0.002639 -0.013522  0.079979 -0.176382 -0.515970  0.359568  0.274520  0.034712 -0.003884  0.002045
                                 0.371539  0.550961 -0.000617  0.002350  0.000001  0.004039  0.000001  0.002827  0.000000  0.000302
                                -0.000000

   2.3   0     0.0205   -2.2895  0.000000 -0.000000  0.000000 -0.000000  0.000000 -0.000001  0.000005 -0.000015  0.000044 -0.000114
                                 0.000249 -0.000198 -0.002289  0.002500  0.241391  0.005509  0.007393 -0.028500  0.250098 -0.216708
                                -0.244167 -0.065569  1.067669 -0.000107 -0.000000  0.000054  0.000000 -0.000221 -0.000000  0.001928
                                 0.000002

   3.3   0     0.0696   -2.9978 -0.000000  0.000000 -0.000000  0.000000 -0.000001  0.000006 -0.000022  0.000072 -0.000209  0.000563
                                -0.001498  0.004569 -0.017538  0.048910 -0.572685 -0.139391 -0.131677  0.228411 -0.254394  1.734745
                                 0.623100 -0.000078 -1.300303 -0.000188 -0.000000  0.000085 -0.000000 -0.000308 -0.000000  0.003626
                                 0.000004

                                   1 3d2-    1 3d2-    1 3d2-    1 3d2-    1 3d2-    1 3d2-    1 3d2-    1 3d2-    1 3d2-    1 3d2-
                                   1 3d2-    1 3d2-    1 3d2-    1 3d2-    1 3d2-    1 3d2-    1 3d2-    1 5g2-    1 5g4-    1 5g2-
                                   1 5g4-    1 5g2-    1 5g4-

   1.4   2    -0.4495  -11.4112 -0.000000  0.000000 -0.000003  0.000017 -0.000035  0.000693  0.006067 -0.061331  0.021386  0.205763
                                 0.362745  0.338353  0.190367  0.044979  0.059519  0.035842 -0.000707  0.000888  0.000001  0.001216
                                 0.000001  0.002578  0.000002

   2.4   0     0.0975   -2.2509  0.000001 -0.000006  0.000031 -0.000124  0.000409 -0.001254  0.003028 -0.006564  0.055990  0.510598
                                 0.427610 -0.179463  0.182478 -0.424340 -0.380957 -0.576538  1.230069 -0.000018 -0.000000 -0.000068
                                -0.000000 -0.000010 -0.000000

   3.4   0     0.3210   -3.3029 -0.000002  0.000018 -0.000094  0.000374 -0.001240  0.003517 -0.012255  0.050233 -0.184661 -1.695350
                                -1.533676  0.411041 -0.728274  1.855723  1.156861  1.795863 -0.912461 -0.000044 -0.000000 -0.000282
                                -0.000001  0.000120  0.000000

                                   1 2pz     1 2pz     1 2pz     1 2pz     1 2pz     1 2pz     1 2pz     1 2pz     1 2pz     1 2pz
                                   1 2pz     1 2pz     1 2pz     1 2pz     1 2pz     1 2pz     1 2pz     1 2pz     1 2pz     1 2pz
                                   1 2pz     1 2pz     1 2pz     1 4f0     1 4f2+    1 4f0     1 4f2+    1 4f0     1 4f2+    1 4f0
                                   1 4f2+

   1.5   2    -2.6460  -17.2685  0.000000 -0.000000  0.000000 -0.000000  0.000002 -0.000008  0.000028 -0.000090  0.000270 -0.000783
                                 0.002635 -0.013524  0.080025 -0.176287 -0.520716  0.359725  0.272222  0.032361 -0.003835  0.001925
                                 0.375674  0.554406 -0.000580 -0.000701  0.000001 -0.001014  0.000002 -0.003087  0.000002 -0.000953
                                 0.000000

   2.5   0     0.0184   -2.4371  0.000000 -0.000000  0.000000 -0.000000  0.000000 -0.000001  0.000004 -0.000012  0.000036 -0.000090
                                 0.000182  0.000042 -0.003400  0.005342  0.225068 -0.001844  0.000888 -0.013226  0.258923 -0.143425
                                -0.225165 -0.070507  1.000391 -0.000282 -0.000000 -0.000097  0.000000  0.000154 -0.000000  0.004645
                                 0.000001

   3.5   0     0.0649   -2.9655 -0.000000  0.000000 -0.000000  0.000000 -0.000001  0.000006 -0.000021  0.000069 -0.000201  0.000543
                                -0.001450  0.004476 -0.017461  0.048324 -0.541102 -0.136708 -0.128532  0.230353 -0.212888  1.678811
                                 0.590592 -0.007439 -1.335916 -0.000448 -0.000000 -0.000182  0.000000  0.000458 -0.000000  0.007836
                                 0.000002

                                   1 3d1+    1 3d1+    1 3d1+    1 3d1+    1 3d1+    1 3d1+    1 3d1+    1 3d1+    1 3d1+    1 3d1+
                                   1 3d1+    1 3d1+    1 3d1+    1 3d1+    1 3d1+    1 3d1+    1 3d1+    1 5g1+    1 5g3+    1 5g1+
                                   1 5g3+    1 5g1+    1 5g3+

   1.6   2    -0.4794  -11.4881 -0.000000  0.000000 -0.000003  0.000017 -0.000035  0.000697  0.006116 -0.061744  0.021298  0.206886
                                 0.365769  0.339538  0.183799  0.039312  0.060362  0.036824 -0.000879  0.000927  0.000001  0.001612
                                 0.000001  0.002550  0.000002

   2.6   0     0.0967   -2.2547  0.000001 -0.000006  0.000031 -0.000123  0.000405 -0.001241  0.003008 -0.006604  0.055489  0.506028
                                 0.424099 -0.177143  0.181911 -0.416991 -0.377188 -0.570984  1.226323 -0.000078 -0.000000 -0.000309
                                -0.000000  0.000002  0.000000

   3.6   0     0.3176   -3.2963 -0.000002  0.000018 -0.000093  0.000369 -0.001224  0.003475 -0.012092  0.049489 -0.182331 -1.674143
                                -1.514210  0.406670 -0.714604  1.849891  1.142754  1.773743 -0.915396 -0.000231 -0.000000 -0.001214
                                -0.000000  0.000501  0.000000

                                   1 3d1-    1 3d1-    1 3d1-    1 3d1-    1 3d1-    1 3d1-    1 3d1-    1 3d1-    1 3d1-    1 3d1-
                                   1 3d1-    1 3d1-    1 3d1-    1 3d1-    1 3d1-    1 3d1-    1 3d1-    1 5g1-    1 5g3-    1 5g1-
                                   1 5g3-    1 5g1-    1 5g3-

   1.7   2    -0.4794  -11.4880 -0.000000  0.000000 -0.000003  0.000017 -0.000035  0.000697  0.006116 -0.061744  0.021298  0.206885
                                 0.365767  0.339537  0.183804  0.039316  0.060362  0.036824 -0.000880  0.000927  0.000001  0.001613
                                 0.000001  0.002550  0.000002

   2.7   0     0.0967   -2.2547  0.000001 -0.000006  0.000031 -0.000123  0.000405 -0.001241  0.003008 -0.006604  0.055489  0.506032
                                 0.424102 -0.177145  0.181912 -0.416997 -0.377191 -0.570989  1.226326 -0.000079 -0.000000 -0.000310
                                -0.000000  0.000002  0.000000

   3.7   0     0.3176   -3.2963 -0.000002  0.000018 -0.000093  0.000369 -0.001224  0.003475 -0.012092  0.049489 -0.182333 -1.674159
                                -1.514225  0.406674 -0.714614  1.849896  1.142766  1.773760 -0.915394 -0.000231 -0.000000 -0.001214
                                -0.000000  0.000502  0.000000

                                   1 4f2-    1 4f2-    1 4f2-    1 4f2-

   1.8   0     0.8404   -4.3773 -0.006001  0.132571 -0.204848  1.100913

   2.8   0     2.0114   -5.3065  0.181297 -0.032495  1.272239 -0.787028

 HOMO      4.1    -0.238242 =      -6.4829eV
 LUMO      2.5     0.018420 =       0.5012eV
 LUMO-HOMO         0.256662 =       6.9841eV


 **********************************************************************************************************************************
 DATASETS  * FILE   NREC   LENGTH (MB)   RECORD NAMES
              1      20       25.62       500      610      700      900      950      970     1000      129      960     1100
                                          VAR    BASINP    GEOM    SYMINP    ZMAT    AOBASIS   BASIS     P2S    ABASIS      S
                                         1400     1410     1420     1200     1210     1080     1600     1650     1700     1380
                                           T        V       ECP      H0       H01     AOSYM     SMH    MOLCAS    OPER     JKOP

              2       7       11.50       200      700     1000      520     4202     5202     2102
                                        OPTIONS   GEOM     BASIS   MCVARS     RHF     MCSCF     RHF

 PROGRAMS   *        TOTAL       RHF  RCCSD(T)       RHF     MULTI       POP       RHF  RCCSD(T)       RHF       INT
 CPU TIMES  *        64.15      1.09     20.02      0.04      1.51      0.00      1.17     16.28      0.52     22.18
 REAL TIME  *        73.24 SEC
 DISK USED  *         4.25 GB
 SF USED    *       471.77 MB
 GA USED    *         0.00 MB       (max)       0.00 MB       (current)
