
 Primary working directories    : /global/cscratch1/sd/bkincaid
 Secondary working directories  : /global/cscratch1/sd/bkincaid
 Wavefunction directory         : /global/homes/b/bkincaid/wfu/
 Main file repository           : /global/cscratch1/sd/bkincaid/

 SHA1      : 19cd028119e0e09f93f0674bd8af7968d9b3eff6
 NAME      : 2015.1.36
 ARCHNAME  : linux/x86_64
 FC        : /opt/cray/pe/craype/2.5.14/bin/ftn
 BLASLIB   : -L/opt/intel/compilers_and_libraries_2018.1.163/linux/mkl/lib/intel64 -Wl,-_start-group -lmkl_intel_ilp64 -lmkl_intel_thread -lmkl_core -Wl,-_end-group -liomp5
 id        : lbl

 Nodes     nprocs
 nid12958    23
 Number of processes for MPI-2 version of Molpro:   nprocs(total)=   24   nprocs(compute)=   23   nprocs(helper)=    1

 Using customized tuning parameters: mindgm=7; mindgv=16; mindgc=1; mindgr=1; noblas=0; minvec=7
 default implementation of scratch files=sf  

 ***,Calculation for PdH groundstate
 memory,512,m
 gthresh,twoint=1.0E-12
 gthresh,throvl=1.0E-12
                                                                                 !symmetry,nosym
 
 set,dkroll=1,dkho=10,dkhp=4
 
 basis={
 
 Including file /global/u1/b/bkincaid/molpro/Pd/molecules/PdH/5z/ae/1.679/c-Pd-aug-cc-pwCVTZ.basis
 
 Including file /global/u1/b/bkincaid/molpro/Pd/molecules/PdH/5z/ae/1.679/c-H-aug-cc-pVTZ.basis
 }
 
 ne = 47
 
 geometry={
 2
 PdH
 Pd 0.0 0.0 0.0
 H 0.0 0.0 1.679
 }
 
 A1=12
 B1=5
 B2=5
 A2=2
 
 {rks,pbe0
 wf,nele=ne,spin=1,sym=1
 occ,A1,B1,B2,A2
 closed,A1-1,B1,B2,A2
 }
 {rhf
 wf,nelec=ne,spin=1,sym=1
 occ,A1,B1,B2,A2
 closed,A1-1,B1,B2,A2
 }
 
 
 basis={
 
 Including file /global/u1/b/bkincaid/molpro/Pd/molecules/PdH/5z/ae/1.679/5z.basis
 
 Including file /global/u1/b/bkincaid/molpro/Pd/molecules/PdH/5z/ae/1.679/H-aug-cc-pV5Z.basis
 }
 
 {rhf
 wf,nelec=ne,spin=1,sym=1
 occ,A1,B1,B2,A2
 closed,A1-1,B1,B2,A2
 }
 E_Pd = -5044.366379
 E_H = -0.49982785
 
 scf=energy
 _CC_NORM_MAX=2.0
 {rccsd(t);maxit,100;core}
 ccsd=energy
 BE = ccsd - E_Pd - E_H
 
 table,scf,ccsd,BE
 save
 type,csv

 Variables initialized (889), CPU time= 0.01 sec
 Commands  initialized (702), CPU time= 0.02 sec, 572 directives.
 Default parameters read. Elapsed time= 0.20 sec

 Checking input...
 Passed
1


                                         ***  PROGRAM SYSTEM MOLPRO  ***
                                       Copyright, TTI GmbH Stuttgart, 2015
                                    Version 2015.1 linked Dec 29 2018 15:55:43


 **********************************************************************************************************************************
 LABEL *   Calculation for PdH groundstate                                               
  64 bit mpp version                                                                     DATE: 14-Dec-20          TIME: 12:35:39  
 **********************************************************************************************************************************

 SHA1:             19cd028119e0e09f93f0674bd8af7968d9b3eff6
 **********************************************************************************************************************************

 THRESHOLDS:

 ZERO    =  1.00D-12  ONEINT  =  1.00D-12  TWOINT  =  1.00D-12  PREFAC  =  1.00D-14  LOCALI  =  1.00D-09  EORDER  =  1.00D-04
 ENERGY  =  0.00D+00  ETEST   =  0.00D+00  EDENS   =  0.00D+00  THRDEDEF=  1.00D-06  GRADIENT=  1.00D-02  STEP    =  1.00D-03
 ORBITAL =  1.00D-05  CIVEC   =  1.00D-05  COEFF   =  1.00D-04  PRINTCI =  5.00D-02  PUNCHCI =  9.90D+01  OPTGRAD =  3.00D-04
 OPTENERG=  1.00D-06  OPTSTEP =  3.00D-04  THRGRAD =  1.00D-10  COMPRESS=  1.00D-11  VARMIN  =  1.00D-07  VARMAX  =  1.00D-03
 THRDOUB =  0.00D+00  THRDIV  =  1.00D-05  THRRED  =  1.00D-07  THRPSP  =  1.00D+00  THRDC   =  1.00D-10  THRCS   =  1.00D-10
 THRNRM  =  1.00D-08  THREQ   =  0.00D+00  THRDE   =  1.00D+00  THRREF  =  1.00D-05  SPARFAC =  1.00D+00  THRDLP  =  1.00D-07
 THRDIA  =  1.00D-10  THRDLS  =  1.00D-07  THRGPS  =  0.00D+00  THRKEX  =  0.00D+00  THRDIS  =  2.00D-01  THRVAR  =  1.00D-10
 THRLOC  =  1.00D-06  THRGAP  =  1.00D-06  THRLOCT = -1.00D+00  THRGAPT = -1.00D+00  THRORB  =  1.00D-06  THRMLTP =  0.00D+00
 THRCPQCI=  1.00D-10  KEXTA   =  0.00D+00  THRCOARS=  0.00D+00  SYMTOL  =  1.00D-06  GRADTOL =  1.00D-06  THROVL  =  1.00D-08
 THRORTH =  1.00D-08  GRID    =  1.00D-06  GRIDMAX =  1.00D-03  DTMAX   =  0.00D+00  THROCCDE=  1.00D-01  THROCCDE=  1.00D-01



 THRESHOLDS:

 ZERO    =  1.00D-12  ONEINT  =  1.00D-12  TWOINT  =  1.00D-12  PREFAC  =  1.00D-14  LOCALI  =  1.00D-09  EORDER  =  1.00D-04
 ENERGY  =  0.00D+00  ETEST   =  0.00D+00  EDENS   =  0.00D+00  THRDEDEF=  1.00D-06  GRADIENT=  1.00D-02  STEP    =  1.00D-03
 ORBITAL =  1.00D-05  CIVEC   =  1.00D-05  COEFF   =  1.00D-04  PRINTCI =  5.00D-02  PUNCHCI =  9.90D+01  OPTGRAD =  3.00D-04
 OPTENERG=  1.00D-06  OPTSTEP =  3.00D-04  THRGRAD =  1.00D-10  COMPRESS=  1.00D-11  VARMIN  =  1.00D-07  VARMAX  =  1.00D-03
 THRDOUB =  0.00D+00  THRDIV  =  1.00D-05  THRRED  =  1.00D-07  THRPSP  =  1.00D+00  THRDC   =  1.00D-10  THRCS   =  1.00D-10
 THRNRM  =  1.00D-08  THREQ   =  0.00D+00  THRDE   =  1.00D+00  THRREF  =  1.00D-05  SPARFAC =  1.00D+00  THRDLP  =  1.00D-07
 THRDIA  =  1.00D-10  THRDLS  =  1.00D-07  THRGPS  =  0.00D+00  THRKEX  =  0.00D+00  THRDIS  =  2.00D-01  THRVAR  =  1.00D-10
 THRLOC  =  1.00D-06  THRGAP  =  1.00D-06  THRLOCT = -1.00D+00  THRGAPT = -1.00D+00  THRORB  =  1.00D-06  THRMLTP =  0.00D+00
 THRCPQCI=  1.00D-10  KEXTA   =  0.00D+00  THRCOARS=  0.00D+00  SYMTOL  =  1.00D-06  GRADTOL =  1.00D-06  THROVL  =  1.00D-12
 THRORTH =  1.00D-08  GRID    =  1.00D-06  GRIDMAX =  1.00D-03  DTMAX   =  0.00D+00  THROCCDE=  1.00D-01  THROCCDE=  1.00D-01


 SETTING DKROLL         =         1.00000000                                  
 SETTING DKHO           =        10.00000000                                  
 SETTING DKHP           =         4.00000000                                  

 Variable memory set to  512000000 words,  buffer space   230000 words

 SETTING BASIS          =    USERDEF
 SETTING NE             =        47.00000000                                  

Geometry recognized as XYZ

 SETTING A1             =        12.00000000                                  
 SETTING B1             =         5.00000000                                  
 SETTING B2             =         5.00000000                                  
 SETTING A2             =         2.00000000                                  


 Recomputing integrals since basis changed


 Using spherical harmonics



 PROGRAM * SEWARD (Integral evaluation for generally contracted gaussian basis sets)     Author: Roland Lindh, 1990

 Geometry written to block  1 of record 700


 Point group  C2v 



 ATOMIC COORDINATES

 NR  ATOM    CHARGE       X              Y              Z

   1  PD     46.00    0.000000000    0.000000000    0.000000000
   2  H       1.00    0.000000000    0.000000000    3.172850163

 Bond lengths in Bohr (Angstrom)

 1-2  3.172850163
     ( 1.679000000)

 NUCLEAR CHARGE:                   47
 NUMBER OF PRIMITIVE AOS:         315
 NUMBER OF SYMMETRY AOS:          266
 NUMBER OF CONTRACTIONS:          159   (  65A1  +  37B1  +  37B2  +  20A2  )
 NUMBER OF CORE ORBITALS:          18   (   9A1  +   4B1  +   4B2  +   1A2  )
 NUMBER OF VALENCE ORBITALS:        7   (   4A1  +   1B1  +   1B2  +   1A2  )


 NUCLEAR REPULSION ENERGY   14.49800578

 One-electron integrals computed with SEWARD

 10nd-order Douglas-Kroll-Hess method activated. McWeeny DKH parametrization is used.

 Computing Douglas-Kroll / X2C integrals

 AO integral compression algorithm  1   Integral accuracy      1.0D-12

     95.420 MB (compressed) written to integral file ( 52.7%)

     Node minimum: 1.573 MB, node maximum: 6.291 MB


 NUMBER OF SORTED TWO-ELECTRON INTEGRALS:     906300.     BUFFER LENGTH:  32768
 NUMBER OF SEGMENTS:   1  SEGMENT LENGTH:     906300      RECORD LENGTH: 524288

 Memory used in sort:       1.46 MW

 SORT1 READ    22613812. AND WROTE      510137. INTEGRALS IN      2 RECORDS. CPU TIME:     0.43 SEC, REAL TIME:     0.49 SEC
 SORT2 READ    11896672. AND WROTE    20925119. INTEGRALS IN    437 RECORDS. CPU TIME:     0.04 SEC, REAL TIME:     0.08 SEC

 Node minimum:      897627.  Node maximum:      932430. integrals

 OPERATOR DM      FOR CENTER  0  COORDINATES:    0.000000    0.000000    0.000000

 EXTRA SYMMETRY OF AOS IN SYMMETRY 1:   1 1 1 1 1 1 1 1 1 1   1 1 1 1 1 1 1 1 1 1   1 1 2 1 2 1 2 1 2 1   2 1 2 1 2 1 2 1 2 1
                                        2 1 2 1 2 1 3 2 1 3   2 1 3 2 1 1 1 1 1 1   1 1 2 1 2
 EXTRA SYMMETRY OF AOS IN SYMMETRY 2:   1 1 1 1 1 1 1 1 1 1   1 1 1 1 1 1 1 1 1 2   1 2 1 2 1 2 1 2 1 2   1 2 1 1 1 1 1
 EXTRA SYMMETRY OF AOS IN SYMMETRY 3:   1 1 1 1 1 1 1 1 1 1   1 1 1 1 1 1 1 1 1 2   1 2 1 2 1 2 1 2 1 2   1 2 1 1 1 1 1
 EXTRA SYMMETRY OF AOS IN SYMMETRY 4:   1 1 1 1 1 1 1 1 1 1   1 1 1 2 1 2 1 2 1 1

 Eigenvalues of metric

         1 0.111E-03 0.197E-03 0.550E-03 0.777E-03 0.145E-02 0.156E-02 0.158E-02 0.393E-02
         2 0.642E-03 0.157E-02 0.207E-02 0.162E-01 0.294E-01 0.499E-01 0.640E-01 0.941E-01
         3 0.642E-03 0.157E-02 0.207E-02 0.162E-01 0.294E-01 0.499E-01 0.640E-01 0.941E-01
         4 0.158E-02 0.224E-01 0.879E-01 0.105E+00 0.142E+00 0.148E+00 0.275E+00 0.403E+00


 **********************************************************************************************************************************
 DATASETS  * FILE   NREC   LENGTH (MB)   RECORD NAMES
              1      22       20.70       500      610      700      900      950      970     1000      129      960     1700   
                                          VAR    BASINP    GEOM    SYMINP    ZMAT    AOBASIS   BASIS     P2S    ABASIS    OPER   
                                         1101     1401     1411     1412     1650     1100     1400     1410     1200     1210   
                                          SR      EKINR    POTR     PVPR    MOLCAS      S      EKIN      POT      H0       H01  
                                         1080     1600   
                                         AOSYM     SMH  

 PROGRAMS   *        TOTAL       INT
 CPU TIMES  *         7.09      6.53
 REAL TIME  *         9.68 SEC
 DISK USED  *       265.35 MB      
 GA USED    *         0.00 MB       (max)       0.00 MB       (current)
 **********************************************************************************************************************************

 Density functional group PBE0=PBEX+PBEC
 Functional: PBEX(Automatically generated (new) PBEX)                          Gradient terms: 1
 Functional: PBEC(Automatically generated (new) PBEC)                          Gradient terms: 1
 Use grid at  1800.2
 

 Exact exchange will be calculated, factor:  0.2500

 Functional: PBEX                      Factor:  0.7500
 Functional: PBEC                      Factor:  1.0000
 
 Generated new metagrid on record  1800.2 with target accuracy 1.0D-06 and 3832 points in CPU time    0.0
 Computed new grid on record 1800.1 in CPU time    0.0
  133744 words reserved for DFT integration

 PROGRAM * RKS-SCF (Restricted open shell Kohn-Sham)     Authors: W. Meyer, H.-J. Werner, P.J. Knowles, 1993

 NUMBER OF ELECTRONS:      24+   23-    SPACE SYMMETRY=1    SPIN SYMMETRY: Doublet 
 CONVERGENCE THRESHOLDS:    1.00E-05 (Density)    1.00E-06 (Energy)
 MAX. NUMBER OF ITERATIONS:       60
 INTERPOLATION TYPE:            DIIS
 INTERPOLATION STEPS:              2 (START)      1 (STEP)
 LEVEL SHIFTS:                 -0.60 (CLOSED) -0.30 (OPEN) 

 Number of closed-shell orbitals:   23 (  11   5   5   2 )
 Number of open-shell orbitals:      1 (   1   0   0   0 )


 Use fine grid record 1800.2 for energy threshold  1.0D-06
 Orbital guess generated from atomic densities. Full valence occupancy:   13   5   5   2

 Molecular orbital dump at record        2100.2

 ITERATION    DDIFF          GRAD             ENERGY        2-EL.EN.            DIPOLE MOMENTS         DIIS   ORB.
    1      0.000D+00      0.000D+00     -5022.24080498   3514.415868    0.00000    0.00000   -4.15757    0    start
    2      0.000D+00      0.820D-01     -5034.46930094   4461.605188    0.00000    0.00000    2.80310    1    diag,B
    3      0.233D+01      0.181D+00     -5040.53938813   4329.755631    0.00000    0.00000    2.12652    2    diag,B
    4      0.295D-01      0.104D+00     -5043.90010301   4225.188653    0.00000    0.00000    1.11077    3    diag,B
    5      0.224D-01      0.564D-01     -5045.16028978   4154.414880    0.00000    0.00000    0.20699    4    diag,B
    6      0.159D-01      0.275D-01     -5045.61247015   4091.309463    0.00000    0.00000   -0.61347    5    diag,B
    7      0.117D-01      0.428D-02     -5045.64102254   4075.431753    0.00000    0.00000   -0.92855    6    fixocc
    8      0.650D-02      0.150D-02     -5045.64628620   4074.974478    0.00000    0.00000   -0.92021    7    diag,B
    9      0.260D-02      0.926D-03     -5045.64914317   4074.556587    0.00000    0.00000   -0.93797    8    diag,B
   10      0.180D-02      0.599D-03     -5045.65105860   4074.806980    0.00000    0.00000   -0.92064    9    orth
   11      0.167D-02      0.219D-03     -5045.65201985   4074.688473    0.00000    0.00000   -0.90049    9    diag,B
   12      0.132D-02      0.824D-04     -5045.65212540   4074.465118    0.00000    0.00000   -0.89947    9    diag,B
   13      0.502D-03      0.331D-04     -5045.65213787   4074.373141    0.00000    0.00000   -0.89988    9    diag,B
   14      0.253D-03      0.110D-04     -5045.65213886   4074.367138    0.00000    0.00000   -0.90038    9    diag,B
   15      0.639D-04      0.370D-05     -5045.65213896   4074.366523    0.00000    0.00000   -0.90056    9    diag,B
   16      0.474D-04      0.165D-05     -5045.65213899   4074.367543    0.00000    0.00000   -0.90067    9    diag,B
   17      0.153D-04      0.792D-06     -5045.65213900   4074.367305    0.00000    0.00000   -0.90081    9    diag,B
   18      0.401D-05      0.405D-06     -5045.65213900   4074.367681    0.00000    0.00000   -0.90082    0    orth

 Final alpha occupancy:  12   5   5   2
 Final beta  occupancy:  11   5   5   2

 !RKS STATE 1.1 Energy              -5045.652138998346
 Nuclear energy                        14.49800578
 One-electron energy                -6987.73262453
 Two-electron energy                 2037.18384030
 Density functional                  -109.60136055     PBEX=-142.89712253 PBEC=  -2.42851865
 Virial quotient                       -0.88630112
 !RKS STATE 1.1 Dipole moment           0.00000000     0.00000000    -0.90082221
 Dipole moment /Debye                   0.00000000     0.00000000    -2.28951172

 Orbital energies:

         1.1          2.1          3.1          4.1          5.1          6.1          7.1          8.1          9.1         10.1
   -889.926820  -130.800705  -117.268639   -23.994438   -19.516946   -12.369739   -12.358196    -3.407591    -2.116921    -0.334116

        11.1         12.1         13.1         14.1
     -0.262934    -0.238824    -0.066871     0.015427

         1.2          2.2          3.2          4.2          5.2          6.2          7.2
   -117.262588   -19.502610   -12.366850    -2.098324    -0.277532    -0.007786     0.041167

         1.3          2.3          3.3          4.3          5.3          6.3          7.3
   -117.262588   -19.502610   -12.366850    -2.098324    -0.277532    -0.007786     0.041167

         1.4          2.4          3.4          4.4
    -12.358194    -0.262936     0.071424     0.263948

 HOMO     12.1    -0.238824 =      -6.4987eV
 LUMO     13.1    -0.066871 =      -1.8196eV
 LUMO-HOMO         0.171953 =       4.6791eV


 **********************************************************************************************************************************
 DATASETS  * FILE   NREC   LENGTH (MB)   RECORD NAMES
              1      23       20.70       500      610      700      900      950      970     1000      129      960     1700   
                                          VAR    BASINP    GEOM    SYMINP    ZMAT    AOBASIS   BASIS     P2S    ABASIS    OPER   
                                         1101     1401     1411     1412     1650     1100     1400     1410     1200     1210   
                                          SR      EKINR    POTR     PVPR    MOLCAS      S      EKIN      POT      H0       H01  
                                         1080     1600     1800   
                                         AOSYM     SMH     GRID   

              2       5        3.01       700     1000      520     1800     2100   
                                         GEOM     BASIS   MCVARS    GRID      RKS  

 PROGRAMS   *        TOTAL       RKS       INT
 CPU TIMES  *         7.60      0.52      6.53
 REAL TIME  *        10.56 SEC
 DISK USED  *       837.19 MB      
 SF USED    *         0.03 MB      
 GA USED    *         0.19 MB       (max)       0.19 MB       (current)
 **********************************************************************************************************************************


 PROGRAM * RHF-SCF (OPEN SHELL)       Authors: W. Meyer, H.-J. Werner


 NUMBER OF ELECTRONS:      24+   23-    SPACE SYMMETRY=1    SPIN SYMMETRY: Doublet 
 CONVERGENCE THRESHOLDS:    1.00E-05 (Density)    1.00E-07 (Energy)
 MAX. NUMBER OF ITERATIONS:       60
 INTERPOLATION TYPE:            DIIS
 INTERPOLATION STEPS:              2 (START)      1 (STEP)
 LEVEL SHIFTS:                 -0.60 (CLOSED) -0.30 (OPEN) 

 Number of closed-shell orbitals:   23 (  11   5   5   2 )
 Number of open-shell orbitals:      1 (   1   0   0   0 )


 Molecular orbitals read from record     2100.2  Type=RKS/CANONICAL (state 1.1)

 Molecular orbital dump at record        2101.2

 ITERATION    DDIFF          GRAD             ENERGY        2-EL.EN.            DIPOLE MOMENTS         DIIS   ORB.
    1      0.000D+00      0.000D+00     -5043.37295866   3859.723320    0.00000    0.00000   -0.90082    0    start
    2      0.000D+00      0.131D-01     -5043.39003513   3859.367962    0.00000    0.00000   -1.06144    1    diag,B
    3      0.785D-02      0.131D-02     -5043.39315479   3860.033962    0.00000    0.00000   -1.16493    2    diag,B
    4      0.116D-02      0.614D-03     -5043.39528040   3859.377166    0.00000    0.00000   -1.27683    3    diag,B
    5      0.806D-03      0.439D-03     -5043.39646299   3859.556571    0.00000    0.00000   -1.34623    4    diag,B
    6      0.564D-03      0.305D-03     -5043.39770912   3859.208720    0.00000    0.00000   -1.44045    5    diag,B
    7      0.808D-03      0.207D-03     -5043.39847280   3858.958307    0.00000    0.00000   -1.51031    6    diag,B
    8      0.806D-03      0.125D-03     -5043.39877249   3858.790051    0.00000    0.00000   -1.54396    7    orth
    9      0.626D-03      0.599D-04     -5043.39882505   3858.724076    0.00000    0.00000   -1.55021    8    diag,B
   10      0.270D-03      0.256D-04     -5043.39883192   3858.702384    0.00000    0.00000   -1.55166    9    diag,B
   11      0.918D-04      0.129D-04     -5043.39883318   3858.701147    0.00000    0.00000   -1.55120    9    diag,B
   12      0.652D-04      0.460D-05     -5043.39883330   3858.700564    0.00000    0.00000   -1.55112    9    diag,B
   13      0.253D-04      0.193D-05     -5043.39883333   3858.700574    0.00000    0.00000   -1.55110    9    diag,B
   14      0.145D-04      0.722D-06     -5043.39883333   3858.700245    0.00000    0.00000   -1.55113    9    diag,B
   15      0.573D-05      0.312D-06     -5043.39883333   3858.699965    0.00000    0.00000   -1.55115    0    orth

 Final alpha occupancy:  12   5   5   2
 Final beta  occupancy:  11   5   5   2

 !RHF STATE 1.1 Energy              -5043.398833334642
 Nuclear energy                        14.49800578
 One-electron energy                -6987.24682157
 Two-electron energy                 1929.34998245
 Virial quotient                       -0.88565813
 !RHF STATE 1.1 Dipole moment           0.00000000     0.00000000    -1.55115191
 Dipole moment /Debye                   0.00000000     0.00000000    -3.94237668

 Orbital energies:

         1.1          2.1          3.1          4.1          5.1          6.1          7.1          8.1          9.1         10.1
   -899.559719  -134.518074  -120.411911   -25.671132   -20.916044   -13.326727   -13.326687    -3.973205    -2.526430    -0.432364

        11.1         12.1         13.1         14.1
     -0.403844    -0.408284     0.000583     0.031340

         1.2          2.2          3.2          4.2          5.2          6.2          7.2
   -120.407311   -20.899642   -13.337498    -2.523194    -0.454369     0.023617     0.080542

         1.3          2.3          3.3          4.3          5.3          6.3          7.3
   -120.407311   -20.899642   -13.337498    -2.523194    -0.454369     0.023617     0.080542

         1.4          2.4          3.4          4.4
    -13.326687    -0.432364     0.098228     0.332699

 HOMO     12.1    -0.408284 =     -11.1100eV
 LUMO     13.1     0.000583 =       0.0159eV
 LUMO-HOMO         0.408867 =      11.1258eV


 **********************************************************************************************************************************
 DATASETS  * FILE   NREC   LENGTH (MB)   RECORD NAMES
              1      23       20.70       500      610      700      900      950      970     1000      129      960     1700   
                                          VAR    BASINP    GEOM    SYMINP    ZMAT    AOBASIS   BASIS     P2S    ABASIS    OPER   
                                         1101     1401     1411     1412     1650     1100     1400     1410     1200     1210   
                                          SR      EKINR    POTR     PVPR    MOLCAS      S      EKIN      POT      H0       H01  
                                         1080     1600     1800   
                                         AOSYM     SMH     GRID   

              2       6        5.80       700     1000      520     1800     2100     2101   
                                         GEOM     BASIS   MCVARS    GRID      RKS      RHF  

 PROGRAMS   *        TOTAL       RHF       RKS       INT
 CPU TIMES  *         7.83      0.21      0.52      6.53
 REAL TIME  *        10.93 SEC
 DISK USED  *       901.44 MB      
 SF USED    *         0.03 MB      
 GA USED    *         0.19 MB       (max)       0.19 MB       (current)
 **********************************************************************************************************************************
 SETTING BASIS          =    USERDEF


 Recomputing integrals since basis changed


 Using spherical harmonics



 PROGRAM * SEWARD (Integral evaluation for generally contracted gaussian basis sets)     Author: Roland Lindh, 1990

 Geometry written to block  1 of record 700


 Point group  C2v 



 ATOMIC COORDINATES

 NR  ATOM    CHARGE       X              Y              Z

   1  PD     46.00    0.000000000    0.000000000    0.000000000
   2  H       1.00    0.000000000    0.000000000    3.172850163

 Bond lengths in Bohr (Angstrom)

 1-2  3.172850163
     ( 1.679000000)

 NUCLEAR CHARGE:                   47
 NUMBER OF PRIMITIVE AOS:         541
 NUMBER OF SYMMETRY AOS:          400
 NUMBER OF CONTRACTIONS:          393   ( 156A1  +  92B1  +  92B2  +  53A2  )
 NUMBER OF CORE ORBITALS:          18   (   9A1  +   4B1  +   4B2  +   1A2  )
 NUMBER OF VALENCE ORBITALS:        7   (   4A1  +   1B1  +   1B2  +   1A2  )


 NUCLEAR REPULSION ENERGY   14.49800578

 One-electron integrals computed with SEWARD

 10nd-order Douglas-Kroll-Hess method activated. McWeeny DKH parametrization is used.

 Computing Douglas-Kroll / X2C integrals

 AO integral compression algorithm  1   Integral accuracy      1.0D-12

     1751.122 MB (compressed) written to integral file ( 28.2%)

     Node minimum: 45.613 MB, node maximum: 118.489 MB


 NUMBER OF SORTED TWO-ELECTRON INTEGRALS:   33156503.     BUFFER LENGTH:  32768
 NUMBER OF SEGMENTS:   2  SEGMENT LENGTH:   31993991      RECORD LENGTH: 524288

 Memory used in sort:      32.55 MW

 SORT1 READ   776790331. AND WROTE    11556178. INTEGRALS IN     34 RECORDS. CPU TIME:    15.02 SEC, REAL TIME:    18.82 SEC
 SORT2 READ   299531252. AND WROTE   762796761. INTEGRALS IN   7981 RECORDS. CPU TIME:     1.03 SEC, REAL TIME:     1.49 SEC

 Node minimum:    33144911.  Node maximum:    33215193. integrals

 OPERATOR DM      FOR CENTER  0  COORDINATES:    0.000000    0.000000    0.000000

 EXTRA SYMMETRY OF AOS IN SYMMETRY 1:   1 1 1 1 1 1 1 1 1 1   1 1 1 1 1 1 1 1 1 1   1 1 1 1 1 1 1 1 1 1   1 1 1 1 1 1 1 1 1 1
                                        1 1 1 1 1 1 1 1 1 1   1 1 1 2 1 2 1 2 1 2   1 2 1 2 1 2 1 2 1 2   1 2 1 2 1 2 1 2 1 2
                                        1 2 1 2 1 2 1 2 1 2   1 2 1 2 1 2 1 3 2 1   3 2 1 3 2 1 3 2 2 3   1 2 3 1 2 3 1 4 3 2
                                        1 4 3 2 1 1 1 1 1 1   1 1 1 1 1 1 1 2 1 2   1 2 1 2 1 2 1 2 1 2   1 3 2 1 3 2
 EXTRA SYMMETRY OF AOS IN SYMMETRY 2:   1 1 1 1 1 1 1 1 1 1   1 1 1 1 1 1 1 1 1 1   1 1 1 1 1 1 1 1 1 1   1 1 1 1 1 1 1 1 1 1
                                        1 2 1 2 1 2 1 2 1 2   1 2 1 2 1 2 1 2 1 2   3 1 2 3 1 2 3 3 2 1   3 2 1 1 1 1 1 1 1 1
                                        1 1 1 2 1 2 1 2 1 2   1 2
 EXTRA SYMMETRY OF AOS IN SYMMETRY 3:   1 1 1 1 1 1 1 1 1 1   1 1 1 1 1 1 1 1 1 1   1 1 1 1 1 1 1 1 1 1   1 1 1 1 1 1 1 1 1 1
                                        1 2 1 2 1 2 1 2 1 2   1 2 1 2 1 2 1 2 1 2   3 1 2 3 1 2 3 3 2 1   3 2 1 1 1 1 1 1 1 1
                                        1 1 1 2 1 2 1 2 1 2   1 2
 EXTRA SYMMETRY OF AOS IN SYMMETRY 4:   1 1 1 1 1 1 1 1 1 1   1 1 1 1 1 1 1 1 1 1   1 1 1 2 1 2 1 2 1 2   2 1 2 1 2 1 1 3 2 1
                                        3 2 1 1 1 1 1 1 1 1   2 1 2

 Eigenvalues of metric

         1 0.870E-06 0.177E-05 0.753E-05 0.947E-05 0.157E-04 0.240E-04 0.922E-04 0.121E-03
         2 0.967E-06 0.900E-05 0.260E-03 0.467E-03 0.587E-03 0.159E-02 0.281E-02 0.397E-02
         3 0.967E-06 0.900E-05 0.260E-03 0.467E-03 0.587E-03 0.159E-02 0.281E-02 0.397E-02
         4 0.947E-05 0.305E-03 0.301E-02 0.107E-01 0.168E-01 0.287E-01 0.509E-01 0.538E-01


 **********************************************************************************************************************************
 DATASETS  * FILE   NREC   LENGTH (MB)   RECORD NAMES
              1      22       22.96       500      610      700      900      950      970     1001      129      960     1700   
                                          VAR    BASINP    GEOM    SYMINP    ZMAT    AOBASIS   BASIS     P2S    ABASIS    OPER   
                                         1101     1401     1411     1412     1650     1100     1400     1410     1200     1210   
                                          SR      EKINR    POTR     PVPR    MOLCAS      S      EKIN      POT      H0       H01  
                                         1080     1600   
                                         AOSYM     SMH  

              2       7        5.97       700     1000      520     1800     2100     2101     1001   
                                         GEOM     BASIS   MCVARS    GRID      RKS      RHF     BASIS   

 PROGRAMS   *        TOTAL       INT       RHF       RKS       INT
 CPU TIMES  *        54.75     46.92      0.21      0.52      6.53
 REAL TIME  *        62.52 SEC
 DISK USED  *         6.01 GB      
 SF USED    *         0.03 MB      
 GA USED    *         0.19 MB       (max)       0.00 MB       (current)
 **********************************************************************************************************************************


 PROGRAM * RHF-SCF (OPEN SHELL)       Authors: W. Meyer, H.-J. Werner


 NUMBER OF ELECTRONS:      24+   23-    SPACE SYMMETRY=1    SPIN SYMMETRY: Doublet 
 CONVERGENCE THRESHOLDS:    1.00E-05 (Density)    1.00E-07 (Energy)
 MAX. NUMBER OF ITERATIONS:       60
 INTERPOLATION TYPE:            DIIS
 INTERPOLATION STEPS:              2 (START)      1 (STEP)
 LEVEL SHIFTS:                 -0.60 (CLOSED) -0.30 (OPEN) 

 Number of closed-shell orbitals:   23 (  11   5   5   2 )
 Number of open-shell orbitals:      1 (   1   0   0   0 )


 Molecular orbitals read from record     2101.2  Type=RHF/CANONICAL (state 1.1)
 
 Present basis size:     156  92  92  53
 Previous basis size:     65  37  37  20
 Previous occupation:     12   5   5   2
 Previous closed-shells:  11   5   5   2
 Previous core-orbitals:   9   4   4   1
 Present occupation:      12   5   5   2
 Present closed-shells:   11   5   5   2
 Present core-orbitals:    9   4   4   1
 Wavefunction symmetry:    1   Doublet 

 Orbital overlap <old|new>:  < 1.1| 1.1> = 1.000000   < 2.1| 2.1> = 1.000000   < 3.1| 3.1> = 1.000000   < 4.1| 4.1> = 1.000000
                             < 5.1| 5.1> = 1.000000   < 6.1| 6.1> = 1.000000   < 7.1| 7.1> = 1.000000   < 8.1| 8.1> = 1.000000
                             < 9.1| 9.1> = 1.000000   < 1.2| 1.2> = 1.000000   < 2.2| 2.2> = 1.000000   < 3.2| 3.2> = 1.000000
                             < 4.2| 4.2> = 1.000000   < 1.3| 1.3> = 1.000000   < 2.3| 2.3> = 1.000000   < 3.3| 3.3> = 1.000000
                             < 4.3| 4.3> = 1.000000   < 1.4| 1.4> = 1.000000   <10.1|10.1> = 1.000000   <11.1|11.1> = 0.999998
                             < 5.2| 5.2> = 1.000000   < 5.3| 5.3> = 1.000000   < 2.4| 2.4> = 1.000000   <12.1|12.1> = 0.999999

 Molecular orbital dump at record        2102.2

 ITERATION    DDIFF          GRAD             ENERGY        2-EL.EN.            DIPOLE MOMENTS         DIIS   ORB.
    1      0.000D+00      0.000D+00     -5043.39862450   3858.700324    0.00000    0.00000   -1.55108    0    start
    2      0.000D+00      0.554D-01     -5043.39937714   3858.748850    0.00000    0.00000   -1.54880    1    diag,B
    3      0.455D-02      0.108D-03     -5043.39938369   3858.734967    0.00000    0.00000   -1.54822    2    diag,B
    4      0.475D-03      0.165D-04     -5043.39938467   3858.739660    0.00000    0.00000   -1.54751    3    diag,B
    5      0.119D-03      0.673D-05     -5043.39938493   3858.734257    0.00000    0.00000   -1.54724    4    diag,B
    6      0.444D-04      0.278D-05     -5043.39938498   3858.736259    0.00000    0.00000   -1.54708    5    diag,B
    7      0.130D-04      0.868D-06     -5043.39938498   3858.734505    0.00000    0.00000   -1.54709    6    diag,B
    8      0.330D-05      0.364D-06     -5043.39938499   3858.733642    0.00000    0.00000   -1.54720    0    orth

 Final alpha occupancy:  12   5   5   2
 Final beta  occupancy:  11   5   5   2

 !RHF STATE 1.1 Energy              -5043.399384986898
 Nuclear energy                        14.49800578
 One-electron energy                -6987.26421159
 Two-electron energy                 1929.36682083
 Virial quotient                       -0.88522842
 !RHF STATE 1.1 Dipole moment           0.00000000     0.00000000    -1.54719553
 Dipole moment /Debye                   0.00000000     0.00000000    -3.93232121

 Orbital energies:

         1.1          2.1          3.1          4.1          5.1          6.1          7.1          8.1          9.1         10.1
   -899.553112  -134.517732  -120.410942   -25.671220   -20.915909   -13.326928   -13.326767    -3.973269    -2.526405    -0.432441

        11.1         12.1         13.1         14.1
     -0.403844    -0.408311     0.000601     0.031280

         1.2          2.2          3.2          4.2          5.2          6.2          7.2
   -120.406447   -20.899698   -13.337558    -2.523283    -0.454501     0.023541     0.080310

         1.3          2.3          3.3          4.3          5.3          6.3          7.3
   -120.406447   -20.899698   -13.337558    -2.523283    -0.454501     0.023541     0.080310

         1.4          2.4          3.4          4.4
    -13.326928    -0.432441     0.097306     0.323276

 HOMO     12.1    -0.408311 =     -11.1107eV
 LUMO     13.1     0.000601 =       0.0164eV
 LUMO-HOMO         0.408913 =      11.1271eV


 **********************************************************************************************************************************
 DATASETS  * FILE   NREC   LENGTH (MB)   RECORD NAMES
              1      22       22.96       500      610      700      900      950      970     1001      129      960     1700   
                                          VAR    BASINP    GEOM    SYMINP    ZMAT    AOBASIS   BASIS     P2S    ABASIS    OPER   
                                         1101     1401     1411     1412     1650     1100     1400     1410     1200     1210   
                                          SR      EKINR    POTR     PVPR    MOLCAS      S      EKIN      POT      H0       H01  
                                         1080     1600   
                                         AOSYM     SMH  

              2       8        9.70       700     1000      520     1800     2100     2101     1001     2102   
                                         GEOM     BASIS   MCVARS    GRID      RKS      RHF     BASIS     RHF  

 PROGRAMS   *        TOTAL       RHF       INT       RHF       RKS       INT
 CPU TIMES  *        56.37      1.62     46.92      0.21      0.52      6.53
 REAL TIME  *        64.31 SEC
 DISK USED  *         6.25 GB      
 SF USED    *         0.18 MB      
 GA USED    *         0.19 MB       (max)       0.00 MB       (current)
 **********************************************************************************************************************************
 SETTING E_PD           =     -5044.36637900                                  
 SETTING E_H            =        -0.49982785                                  
 SETTING SCF            =     -5043.39938499  AU                              
 SETTING _CC_NORM_MAX   =         2.00000000                                  


 PROGRAM * CCSD (Restricted open-shell coupled cluster)     Authors: C. Hampel, H.-J. Werner, 1991, M. Deegan, P.J. Knowles, 1992


 Convergence thresholds:  THRVAR = 1.00D-08  THRDEN = 1.00D-06

 CCSD(T)     terms to be evaluated (factor= 1.000)


 Number of closed-shell orbitals:  23 (  11   5   5   2 )
 Number of active  orbitals:        1 (   1   0   0   0 )
 Number of external orbitals:     369 ( 144  87  87  51 )

 Number of N-1 electron functions:              47
 Number of N-2 electron functions:            1081
 Number of singly external CSFs:              5279
 Number of doubly external CSFs:          28460967
 Total number of CSFs:                    28466246

 Molecular orbitals read from record     2102.2  Type=RHF/CANONICAL (state 1.1)

 Integral transformation finished. Total CPU:  27.07 sec, npass=  1  Memory used:  53.59 MW

 Starting RMP2 calculation

 Wavefunction is spin-projected

 ITER.      SQ.NORM     CORR.ENERGY   TOTAL ENERGY   ENERGY CHANGE        DEN1      VAR(S)    VAR(P)  DIIS     TIME
   1      1.16183146    -1.77274217 -5045.17212715    -1.77274217    -0.00139942  0.15D-04  0.57D-03  1  1    34.89
   2      1.16325300    -1.77422567 -5045.17361066    -0.00148350    -0.00000965  0.88D-06  0.60D-05  2  2    45.71
   3      1.16338817    -1.77430251 -5045.17368749    -0.00007684    -0.00000011  0.30D-07  0.67D-07  3  3    52.40
   4      1.16339504    -1.77430385 -5045.17368884    -0.00000135    -0.00000000  0.66D-09  0.79D-09  4  4    62.75
   5      1.16339524    -1.77430388 -5045.17368887    -0.00000003    -0.00000000  0.14D-10  0.98D-11  5  5    78.07

 Norm of t1 vector:      0.02941580      S-energy:    -0.00248352      T1 diagnostic:  0.00048639
 Norm of t2 vector:      0.40315004      P-energy:    -1.77182037
                                         Alpha-Beta:  -1.19723119
                                         Alpha-Alpha: -0.29912366
                                         Beta-Beta:   -0.27546552

 Spin contamination <S**2-Sz**2-Sz>     0.00000000
  Reference energy                  -5043.399384986894
  RHF-RMP2 correlation energy          -1.774303882062
 !RHF-RMP2 energy                   -5045.173688868956
 (NB above energy spin projected)

 Starting RCCSD calculation

 ITER.      SQ.NORM     CORR.ENERGY   TOTAL ENERGY   ENERGY CHANGE        DEN1      VAR(S)    VAR(P)  DIIS     TIME
   1      1.13636808    -1.65772028 -5045.05710527    -1.65772028    -0.03335222  0.69D-02  0.44D-02  0  0   158.75
   2      1.15484714    -1.68900383 -5045.08838882    -0.03128355    -0.00311124  0.61D-03  0.91D-03  1  1   236.81
   3      1.16167169    -1.68610316 -5045.08548814     0.00290068    -0.00083971  0.88D-03  0.11D-03  2  2   310.73
   4      1.17259109    -1.68832857 -5045.08771356    -0.00222541    -0.00035635  0.38D-03  0.50D-04  3  3   386.65
   5      1.19095068    -1.69067157 -5045.09005656    -0.00234300    -0.00009397  0.93D-04  0.16D-04  4  4   462.41
   6      1.20182444    -1.69131684 -5045.09070182    -0.00064527    -0.00002081  0.20D-04  0.40D-05  5  5   535.16
   7      1.20759442    -1.69164792 -5045.09103291    -0.00033109    -0.00000535  0.48D-05  0.11D-05  6  6   607.58
   8      1.20787952    -1.69162006 -5045.09100505     0.00002786    -0.00000134  0.11D-05  0.30D-06  6  1   683.79
   9      1.20931464    -1.69171795 -5045.09110294    -0.00009789    -0.00000018  0.12D-06  0.51D-07  6  2   757.69
  10      1.20920611    -1.69171365 -5045.09109864     0.00000430    -0.00000003  0.23D-07  0.68D-08  6  4   834.40
  11      1.20920024    -1.69170902 -5045.09109401     0.00000463    -0.00000001  0.58D-08  0.14D-08  6  3   909.45
  12      1.20918093    -1.69170691 -5045.09109190     0.00000211    -0.00000000  0.18D-08  0.31D-09  6  5   986.91
  13      1.20917884    -1.69170626 -5045.09109125     0.00000065    -0.00000000  0.65D-09  0.12D-09  6  1  1060.59

 Norm of t1 vector:      0.23353515      S-energy:    -0.00251597      T1 diagnostic:  0.02378047
                                                                       D1 diagnostic:  0.11979364
 Norm of t2 vector:      0.39324315      P-energy:    -1.68919029
                                         Alpha-Beta:  -1.16836612
                                         Alpha-Alpha: -0.26990604
                                         Beta-Beta:   -0.25091814

 Singles amplitudes (print threshold =  0.500E-01):

         I         SYM. A    A   T(IA) [Alpha-Alpha]

        12         1         2      0.06456086
        12         1         4     -0.06037960
 
         I         SYM. A    A   T(IA) [Beta-Beta]

        11         1         1      0.16937213

 Spin contamination <S**2-Sz**2-Sz>     0.00000000

 For full I/O caching in triples, increase memory by 22.89 Mwords to 535.17 Mwords.
 

  Correlated core orbitals:             1.1       2.1       3.1       4.1       5.1       6.1       7.1       8.1       9.1       1.2
                                        2.2       3.2       4.2       1.3       2.3       3.3       4.3       1.4
  Orbital energies:                  -899.5534 -134.5222 -120.4181  -25.6740  -20.9224  -13.3286  -13.3492   -3.9993   -2.5847 -120.4093
                                      -20.9010  -13.3396   -2.5420 -120.4093  -20.9010  -13.3396   -2.5420  -13.3286
 
  RCCSD core-core energy               -0.954467145006
  RCCSD core-valence energy            -0.359297936091
  RCCSD valence correlation energy     -0.377941179170
 

 RESULTS
 =======

  Reference energy                  -5043.399384986894
  RCCSD singles energy                 -0.002515967702
  RCCSD pair energy                    -1.689190292565
  RCCSD correlation energy             -1.691706260267
  Triples (T) contribution             -0.037773686258
  Total correlation energy             -1.729479946525
 
  RHF-RCCSD energy                  -5045.091091247161
  RHF-RCCSD[T] energy               -5045.131617399034
  RHF-RCCSD-T energy                -5045.128706424513
 !RHF-RCCSD(T) energy               -5045.128864933419

 Program statistics:

 Available memory in ccsd:               511995052
 Min. memory needed in ccsd:              78160944
 Max. memory used in ccsd:               114869412
 Max. memory used in cckext:              89921687 (13 integral passes)
 Max. memory used in cckint:              53588523 ( 1 integral passes)



 **********************************************************************************************************************************
 DATASETS  * FILE   NREC   LENGTH (MB)   RECORD NAMES
              1      22       22.96       500      610      700      900      950      970     1001      129      960     1700   
                                          VAR    BASINP    GEOM    SYMINP    ZMAT    AOBASIS   BASIS     P2S    ABASIS    OPER   
                                         1101     1401     1411     1412     1650     1100     1400     1410     1200     1210   
                                          SR      EKINR    POTR     PVPR    MOLCAS      S      EKIN      POT      H0       H01  
                                         1080     1600   
                                         AOSYM     SMH  

              2       8        9.70       700     1000      520     1800     2100     2101     1001     2102   
                                         GEOM     BASIS   MCVARS    GRID      RKS      RHF     BASIS     RHF  

 PROGRAMS   *        TOTAL  RCCSD(T)       RHF       INT       RHF       RKS       INT
 CPU TIMES  *      1862.60   1806.15      1.62     46.92      0.21      0.52      6.53
 REAL TIME  *      2797.79 SEC
 DISK USED  *        89.37 GB      
 SF USED    *        10.39 GB      
 GA USED    *         0.19 MB       (max)       0.00 MB       (current)
 **********************************************************************************************************************************
 SETTING CCSD           =     -5045.12886493  AU                              
 SETTING BE             =        -0.26265808  AU                              
 Output type csv         
                                                                                                                                                                                                                                                                

         SCF,CCSD,BE
   -5043.399385,   -5045.128865,   -0.26265808
                                                  

 RCCSD(T)/USERDEF energy=  -5045.128864933419

        RCCSD(T)        RHF-SCF         RHF-SCF         RKS-SCF 
  -5045.12886493  -5043.39938499  -5043.39883333  -5045.65213900
 **********************************************************************************************************************************
 Molpro calculation terminated
 Variable memory released
