
 Primary working directories    : /global/cscratch1/sd/gwang18
 Secondary working directories  : /global/cscratch1/sd/gwang18
 Wavefunction directory         : /global/homes/g/gwang18/wfu/
 Main file repository           : /global/cscratch1/sd/gwang18/

 SHA1      : 19cd028119e0e09f93f0674bd8af7968d9b3eff6
 NAME      : 2015.1.36
 ARCHNAME  : linux/x86_64
 FC        : /opt/cray/pe/craype/2.5.14/bin/ftn
 BLASLIB   : -L/opt/intel/compilers_and_libraries_2018.1.163/linux/mkl/lib/intel64 -Wl,-_start-group -lmkl_intel_ilp64 -lmkl_intel_thread -lmkl_core -Wl,-_end-group -liomp5
 id        : lbl

 Nodes     nprocs
 nid02147     7
 Number of processes for MPI-2 version of Molpro:   nprocs(total)=    8   nprocs(compute)=    7   nprocs(helper)=    1

 Using customized tuning parameters: mindgm=7; mindgv=16; mindgc=1; mindgr=1; noblas=0; minvec=7
 default implementation of scratch files=sf  

 ***,Calculation for Sr atom, singlet and triplet
 memory,512,m
 geometry={
 1
 Sr
 Sr  0.0 0.0 0.0
 }
 
 basis={
 ECP,Sr,28,4,0;
 1; 2,1.000000,0.000000;
 2; 2,7.400074,135.479430; 2,3.606379,17.534463;
 2; 2,6.484868,88.359709; 2,3.288053,15.394372;
 2; 2,4.622841,29.888987; 2,2.246904,6.659414;
 1; 2,4.633975,-15.805992;
 Including file /global/u2/g/gwang18/projects/heavy-element-ecp/sr/atom/mwbstu/basis/aug-cc-pwCVTZ.basis
 }
 
 Including file /global/u2/g/gwang18/projects/heavy-element-ecp/sr/atom/mwbstu/basis/states.proc
 
 do i=1,6
     if (i.eq.1) then
         I5s2
     else if (i.eq.2) then
         I5s5p
     else if (i.eq.3) then
         I5s4d
     else if (i.eq.4) then
         II5s1
     else if (i.eq.5) then
         II4d
     else if (i.eq.6) then
         III4p6
     endif
     scf(i)=energy
     _CC_NORM_MAX=2.0
     {rccsd(t),maxit=100;core}
     ccsd(i)=energy
 enddo
 
 table,scf,ccsd
 type,csv
 save

 Variables initialized (889), CPU time= 0.00 sec
 Commands  initialized (702), CPU time= 0.01 sec, 572 directives.
 Default parameters read. Elapsed time= 0.13 sec

 Checking input...
 Passed
1


                                         ***  PROGRAM SYSTEM MOLPRO  ***
                                       Copyright, TTI GmbH Stuttgart, 2015
                                    Version 2015.1 linked Dec 29 2018 15:55:43


 **********************************************************************************************************************************
 LABEL *   Calculation for Sr atom, singlet and triplet                                  
  64 bit mpp version                                                                     DATE: 13-Sep-19          TIME: 14:19:30  
 **********************************************************************************************************************************

 SHA1:             19cd028119e0e09f93f0674bd8af7968d9b3eff6
 **********************************************************************************************************************************

Geometry recognized as XYZ


 Variable memory set to  512000000 words,  buffer space   230000 words

 SETTING BASIS          =    USERDEF

 DO I                   =         1.00000000   

 Running procedure=I5S2


 Recomputing integrals since basis changed


 Using spherical harmonics



 PROGRAM * SEWARD (Integral evaluation for generally contracted gaussian basis sets)     Author: Roland Lindh, 1990

 Geometry written to block  1 of record 700

 Orientation using atomic masses  
 Molecule type: Atom
 Symmetry elements: X,Y,Z
 Rotational constants:       0.0000000      0.0000000      0.0000000 GHz  (calculated with average atomic masses)

 Point group  D2h 



 ATOMIC COORDINATES

 NR  ATOM    CHARGE       X              Y              Z

   1  SR     10.00    0.000000000    0.000000000    0.000000000

 NUCLEAR CHARGE:                   10
 NUMBER OF PRIMITIVE AOS:         232
 NUMBER OF SYMMETRY AOS:          205
 NUMBER OF CONTRACTIONS:          205   (  67Ag  +  27B3u +  27B2u +  18B1g +  27B1u +  18B2g +  18B3g +   3Au  )
 NUMBER OF CORE ORBITALS:           4   (   1Ag  +   1B3u +   1B2u +   0B1g +   1B1u +   0B2g +   0B3g +   0Au  )
 NUMBER OF VALENCE ORBITALS:        1   (   1Ag  +   0B3u +   0B2u +   0B1g +   0B1u +   0B2g +   0B3g +   0Au  )


 NUCLEAR REPULSION ENERGY    0.00000000

 EXTRA SYMMETRY OF AOS IN SYMMETRY 1:   1 1 1 1 1 1 1 1 1 1   1 1 1 1 1 1 1 1 1 1   1 1 1 1 1 1 1 1 1 1   1 2 3 2 3 2 3 2 3 2
                                        3 2 3 2 3 2 3 2 3 2   3 2 3 2 3 2 3 2 3 2   3 2 3 2 3 2 3
 EXTRA SYMMETRY OF AOS IN SYMMETRY 2:   1 1 1 1 1 1 1 1 1 1   1 1 1 1 1 1 1 1 1 1   1 2 3 2 3 2 3
 EXTRA SYMMETRY OF AOS IN SYMMETRY 3:   1 1 1 1 1 1 1 1 1 1   1 1 1 1 1 1 1 1 1 1   1 2 3 2 3 2 3
 EXTRA SYMMETRY OF AOS IN SYMMETRY 5:   1 1 1 1 1 1 1 1 1 1   1 1 1 1 1 1 1 1 1 1   1 2 3 2 3 2 3

 Eigenvalues of metric

         1 0.139E-06 0.917E-05 0.404E-04 0.404E-04 0.620E-04 0.175E-03 0.424E-03 0.479E-03
         2 0.693E-03 0.223E-02 0.552E-02 0.104E-01 0.186E-01 0.327E-01 0.575E-01 0.972E-01
         3 0.693E-03 0.223E-02 0.552E-02 0.104E-01 0.186E-01 0.327E-01 0.575E-01 0.972E-01
         4 0.404E-04 0.479E-03 0.272E-02 0.814E-02 0.182E-01 0.368E-01 0.670E-01 0.135E+00
         5 0.693E-03 0.223E-02 0.552E-02 0.104E-01 0.186E-01 0.327E-01 0.575E-01 0.972E-01
         6 0.404E-04 0.479E-03 0.272E-02 0.814E-02 0.182E-01 0.368E-01 0.670E-01 0.135E+00
         7 0.404E-04 0.479E-03 0.272E-02 0.814E-02 0.182E-01 0.368E-01 0.670E-01 0.135E+00
         8 0.275E+00 0.899E+00 0.183E+01


 Contracted 2-electron integrals neglected if value below      1.0D-13
 AO integral compression algorithm  1   Integral accuracy      1.0D-13

     283.378 MB (compressed) written to integral file ( 46.6%)

     Node minimum: 16.515 MB, node maximum: 71.303 MB


 NUMBER OF SORTED TWO-ELECTRON INTEGRALS:    4281649.     BUFFER LENGTH:  32768
 NUMBER OF SEGMENTS:   1  SEGMENT LENGTH:    4281649      RECORD LENGTH: 524288

 Memory used in sort:       4.84 MW

 SORT1 READ    75897679. AND WROTE     3049951. INTEGRALS IN      9 RECORDS. CPU TIME:     1.11 SEC, REAL TIME:     1.35 SEC
 SORT2 READ    21375453. AND WROTE    29978491. INTEGRALS IN   1113 RECORDS. CPU TIME:     0.13 SEC, REAL TIME:     0.21 SEC

 Node minimum:     4246276.  Node maximum:     4323967. integrals

 OPERATOR DM      FOR CENTER  0  COORDINATES:    0.000000    0.000000    0.000000


 **********************************************************************************************************************************
 DATASETS  * FILE   NREC   LENGTH (MB)   RECORD NAMES
              1      19       20.26       500      610      700      900      950      970     1000      129      960     1100   
                                          VAR    BASINP    GEOM    SYMINP    ZMAT    AOBASIS   BASIS     P2S    ABASIS      S 
                                         1400     1410     1420     1200     1210     1080     1600     1650     1700   
                                           T        V       ECP      H0       H01     AOSYM     SMH    MOLCAS    OPER   

 PROGRAMS   *        TOTAL       INT
 CPU TIMES  *        22.72     22.53
 REAL TIME  *        24.33 SEC
 DISK USED  *       527.31 MB      
 GA USED    *         0.00 MB       (max)       0.00 MB       (current)
 **********************************************************************************************************************************


 PROGRAM * RHF-SCF (CLOSED SHELL)       Authors: W. Meyer, H.-J. Werner


 NUMBER OF ELECTRONS:       5+    5-    SPACE SYMMETRY=1    SPIN SYMMETRY: Singlet 
 CONVERGENCE THRESHOLDS:    1.00E-05 (Density)    1.00E-07 (Energy)
 MAX. NUMBER OF ITERATIONS:       60
 INTERPOLATION TYPE:            DIIS
 INTERPOLATION STEPS:              2 (START)      1 (STEP)
 LEVEL SHIFTS:                  0.00 (CLOSED)  0.00 (OPEN) 

 Number of closed-shell orbitals:    5 (   2   1   1   0   1   0   0   0 )


 
 Extra symmetries of mos in symmetry 1:   1   1
 Orbital guess generated from atomic densities. Full valence occupancy:    2   1   1   0   1   0   0   0


 Molecular orbital dump at record        2100.2

 ITERATION    DDIFF          GRAD             ENERGY        2-EL.EN.            DIPOLE MOMENTS         DIIS   ORB.
    1      0.000D+00      0.000D+00       -30.34713699     38.906875    0.00000    0.00000    0.00000    0    start
    2      0.000D+00      0.942D-03       -30.34716756     38.918253    0.00000    0.00000    0.00000    1    diag
    3      0.424D-02      0.449D-04       -30.34716770     38.917005    0.00000    0.00000    0.00000    2    diag
    4      0.606D-03      0.264D-05       -30.34716771     38.917007    0.00000    0.00000    0.00000    3    diag
    5      0.444D-04      0.417D-06       -30.34716771     38.916937    0.00000    0.00000    0.00000    4    diag
    6      0.497D-05      0.119D-06       -30.34716771     38.916920    0.00000    0.00000    0.00000    0    orth

 Final occupancy:   2   1   1   0   1   0   0   0

 !RHF STATE 1.1 Energy                -30.347167705768
 Nuclear energy                         0.00000000
 One-electron energy                  -49.80562754
 Two-electron energy                   19.45845984
 Virial quotient                       -3.19164641
 !RHF STATE 1.1 Dipole moment           0.00000000     0.00000000     0.00000000
 Dipole moment /Debye                   0.00000000     0.00000000     0.00000000

 ELECTRON ORBITALS
 =================


   Orb  Occ    Energy  Couls-En    Coefficients

                                   1 1s      1 1s      1 1s      1 1s      1 1s      1 1s      1 1s      1 1s      1 1s      1 1s   
                                   1 1s      1 1s      1 1s      1 1s      1 1s      1 1s      1 1s      1 1s      1 1s      1 1s   
                                   1 1s      1 1s      1 1s      1 1s      1 1s      1 1s      1 1s      1 1s      1 1s      1 1s   
                                   1 1s      1 3d0     1 3d2+    1 3d0     1 3d2+    1 3d0     1 3d2+    1 3d0     1 3d2+    1 3d0  
                                   1 3d2+    1 3d0     1 3d2+    1 3d0     1 3d2+    1 3d0     1 3d2+    1 3d0     1 3d2+    1 3d0  
                                   1 3d2+    1 3d0     1 3d2+    1 3d0     1 3d2+    1 3d0     1 3d2+    1 3d0     1 3d2+    1 3d0  
                                   1 3d2+    1 3d0     1 3d2+    1 3d0     1 3d2+    1 3d0     1 3d2+ 

   1.1   2    -1.9605   -8.2920 -0.000000  0.000000 -0.000000  0.000000 -0.000000  0.000000 -0.000000  0.000001 -0.000004  0.000011
                                -0.000028  0.000080 -0.000184  0.000474 -0.001010  0.002301 -0.005413  0.015033 -0.049983  0.174159
                                -0.148740 -0.556778  0.643871  0.559772  0.371913  0.012064 -0.004670  0.001577 -0.501642  0.313240
                                -0.000352 -0.000000  0.000000  0.000000 -0.000000 -0.000000  0.000000  0.000000 -0.000000 -0.000000
                                 0.000000  0.000000 -0.000000 -0.000000  0.000000  0.000000 -0.000000 -0.000000  0.000000  0.000000
                                -0.000000  0.000000 -0.000000  0.000000 -0.000000 -0.000000  0.000000  0.000000 -0.000000 -0.000000
                                 0.000000 -0.000000  0.000000 -0.000000  0.000000  0.000000 -0.000000

   2.1   2    -0.1811   -2.5529  0.000000 -0.000000  0.000000 -0.000000  0.000000 -0.000000  0.000000 -0.000000  0.000001 -0.000003
                                 0.000007 -0.000022  0.000050 -0.000129  0.000274 -0.000629  0.001482 -0.004174  0.014251 -0.051728
                                 0.048266  0.173816 -0.261854 -0.207885 -0.315813  0.367588  0.619762  0.220838  0.223603 -0.141820
                                 0.000786  0.000000  0.000000 -0.000000 -0.000000 -0.000000  0.000000  0.000000 -0.000000 -0.000000
                                 0.000000  0.000000 -0.000000 -0.000000  0.000000  0.000000 -0.000000  0.000000 -0.000000 -0.000000
                                 0.000000 -0.000000  0.000000 -0.000000  0.000000 -0.000000 -0.000000 -0.000000  0.000000 -0.000000
                                -0.000000  0.000000 -0.000000  0.000000 -0.000000 -0.000000  0.000000

   3.1   0     0.0174   -0.7704  0.000000 -0.000000  0.000000 -0.000000  0.000000 -0.000000  0.000000 -0.000000  0.000001 -0.000004
                                 0.000011 -0.000027  0.000070 -0.000162  0.000365 -0.000739  0.001605 -0.003235  0.005281 -0.007480
                                 0.037932 -0.209318  3.106289 -2.711338  0.519029 -0.812647  1.695169 -3.483842 -4.108560  3.621942
                                 2.931671 -0.000000  0.000000  0.000000 -0.000000 -0.000000  0.000000  0.000000 -0.000000 -0.000000
                                 0.000000  0.000000 -0.000000 -0.000000  0.000000  0.000000 -0.000000 -0.000000  0.000000  0.000000
                                -0.000000  0.000000 -0.000000  0.000000 -0.000000 -0.000000  0.000000  0.000000 -0.000000 -0.000000
                                 0.000000 -0.000000  0.000000 -0.000000  0.000000  0.000000 -0.000000

   4.1   0     0.0344   -0.7882 -0.000000  0.000000 -0.000000  0.000000 -0.000000  0.000000 -0.000000  0.000000 -0.000000  0.000000
                                -0.000000  0.000000 -0.000000  0.000000 -0.000000  0.000000 -0.000000  0.000000 -0.000000  0.000000
                                -0.000000  0.000000 -0.000001  0.000001 -0.000000  0.000000 -0.000001  0.000001  0.000002 -0.000001
                                -0.000001 -0.000000  0.000000  0.000004 -0.000000 -0.000018  0.000002  0.000074 -0.000008 -0.000245
                                 0.000028  0.000721 -0.000082 -0.001778  0.000202  0.004465 -0.000507 -0.014672  0.001666  0.092434
                                -0.010497  0.239109 -0.027153  0.325875 -0.037006 -0.176225  0.020012  0.334979 -0.038040 -0.483481
                                 0.054903 -0.159915  0.018160 -0.359556  0.040831  1.220944 -0.138649

                                   1 2px     1 2px     1 2px     1 2px     1 2px     1 2px     1 2px     1 2px     1 2px     1 2px  
                                   1 2px     1 2px     1 2px     1 2px     1 2px     1 2px     1 2px     1 2px     1 2px     1 2px  
                                   1 2px     1 4f1+    1 4f3+    1 4f1+    1 4f3+    1 4f1+    1 4f3+ 

   1.2   2    -1.1009   -6.5007  0.000000 -0.000000  0.000000 -0.000000  0.000002 -0.000006  0.000030 -0.000062  0.000239 -0.000345
                                -0.000866  0.031304 -0.130574 -0.094453  0.541248  0.045586 -0.009551  0.004967  0.337635  0.278638
                                -0.001463  0.000000  0.000000  0.000000  0.000000 -0.000000 -0.000000

   2.2   0     0.0098   -1.0533  0.000000 -0.000000  0.000000 -0.000000  0.000001 -0.000003  0.000010 -0.000032  0.000080 -0.000223
                                 0.000681 -0.004352  0.015838  0.002411 -0.078139 -0.029018  0.356679 -0.238641 -0.024259 -0.014496
                                 1.022056 -0.000000  0.000000 -0.000000  0.000000  0.000000 -0.000000

   3.2   0     0.0355   -1.1218 -0.000000  0.000000 -0.000000  0.000001 -0.000003  0.000013 -0.000045  0.000131 -0.000366  0.000878
                                -0.001864  0.000139  0.009105  0.031256 -0.030517  0.334038 -0.442468  2.011604 -0.080721 -0.166348
                                -1.588493 -0.000000  0.000000 -0.000000 -0.000000  0.000000 -0.000000

                                   1 2py     1 2py     1 2py     1 2py     1 2py     1 2py     1 2py     1 2py     1 2py     1 2py  
                                   1 2py     1 2py     1 2py     1 2py     1 2py     1 2py     1 2py     1 2py     1 2py     1 2py  
                                   1 2py     1 4f1-    1 4f3-    1 4f1-    1 4f3-    1 4f1-    1 4f3- 

   1.3   2    -1.1009   -6.5007  0.000000 -0.000000  0.000000 -0.000000  0.000002 -0.000006  0.000030 -0.000062  0.000239 -0.000345
                                -0.000866  0.031304 -0.130574 -0.094453  0.541248  0.045586 -0.009551  0.004967  0.337635  0.278638
                                -0.001463  0.000000  0.000000  0.000000  0.000000 -0.000000 -0.000000

   2.3   0     0.0098   -1.0533  0.000000 -0.000000  0.000000 -0.000000  0.000001 -0.000003  0.000010 -0.000032  0.000080 -0.000223
                                 0.000681 -0.004352  0.015838  0.002411 -0.078139 -0.029018  0.356679 -0.238641 -0.024259 -0.014496
                                 1.022056 -0.000000  0.000000 -0.000000  0.000000  0.000000 -0.000000

   3.3   0     0.0355   -1.1218 -0.000000  0.000000 -0.000000  0.000001 -0.000003  0.000013 -0.000045  0.000131 -0.000366  0.000878
                                -0.001864  0.000139  0.009105  0.031256 -0.030517  0.334038 -0.442468  2.011604 -0.080721 -0.166348
                                -1.588493 -0.000000  0.000000 -0.000000 -0.000000  0.000000 -0.000000

                                   1 3d2-    1 3d2-    1 3d2-    1 3d2-    1 3d2-    1 3d2-    1 3d2-    1 3d2-    1 3d2-    1 3d2- 
                                   1 3d2-    1 3d2-    1 3d2-    1 3d2-    1 3d2-    1 3d2-    1 3d2-    1 3d2- 

   1.4   0     0.0344   -0.7882 -0.000000  0.000004 -0.000018  0.000075 -0.000246  0.000726 -0.001790  0.004494 -0.014766  0.093028
                                 0.240646  0.327970 -0.177357  0.337132 -0.486588 -0.160942 -0.361867  1.228792

   2.4   0     0.0858   -1.6511  0.000001 -0.000007  0.000039 -0.000149  0.000534 -0.001466  0.004291 -0.010877  0.019769 -0.144272
                                -0.348224 -0.465374  0.540802 -0.412999  1.460875  0.309879  0.687771 -0.838794

                                   1 2pz     1 2pz     1 2pz     1 2pz     1 2pz     1 2pz     1 2pz     1 2pz     1 2pz     1 2pz  
                                   1 2pz     1 2pz     1 2pz     1 2pz     1 2pz     1 2pz     1 2pz     1 2pz     1 2pz     1 2pz  
                                   1 2pz     1 4f0     1 4f2+    1 4f0     1 4f2+    1 4f0     1 4f2+ 

   1.5   2    -1.1009   -6.5007  0.000000 -0.000000  0.000000 -0.000000  0.000002 -0.000006  0.000030 -0.000062  0.000239 -0.000345
                                -0.000866  0.031304 -0.130574 -0.094453  0.541248  0.045586 -0.009551  0.004967  0.337635  0.278638
                                -0.001463  0.000000  0.000000  0.000000  0.000000 -0.000000 -0.000000

   2.5   0     0.0098   -1.0533  0.000000 -0.000000  0.000000 -0.000000  0.000001 -0.000003  0.000010 -0.000032  0.000080 -0.000223
                                 0.000681 -0.004352  0.015838  0.002411 -0.078139 -0.029018  0.356679 -0.238641 -0.024259 -0.014496
                                 1.022056 -0.000000  0.000000 -0.000000  0.000000  0.000000 -0.000000

   3.5   0     0.0355   -1.1218 -0.000000  0.000000 -0.000000  0.000001 -0.000003  0.000013 -0.000045  0.000131 -0.000366  0.000878
                                -0.001864  0.000139  0.009105  0.031256 -0.030517  0.334038 -0.442468  2.011604 -0.080721 -0.166348
                                -1.588493 -0.000000  0.000000 -0.000000 -0.000000  0.000000 -0.000000

                                   1 3d1+    1 3d1+    1 3d1+    1 3d1+    1 3d1+    1 3d1+    1 3d1+    1 3d1+    1 3d1+    1 3d1+ 
                                   1 3d1+    1 3d1+    1 3d1+    1 3d1+    1 3d1+    1 3d1+    1 3d1+    1 3d1+ 

   1.6   0     0.0344   -0.7882 -0.000000  0.000004 -0.000018  0.000075 -0.000246  0.000726 -0.001790  0.004494 -0.014766  0.093028
                                 0.240646  0.327970 -0.177357  0.337132 -0.486588 -0.160942 -0.361867  1.228792

   2.6   0     0.0858   -1.6511  0.000001 -0.000007  0.000039 -0.000149  0.000534 -0.001466  0.004291 -0.010877  0.019769 -0.144272
                                -0.348224 -0.465374  0.540802 -0.412999  1.460875  0.309879  0.687771 -0.838794

                                   1 3d1-    1 3d1-    1 3d1-    1 3d1-    1 3d1-    1 3d1-    1 3d1-    1 3d1-    1 3d1-    1 3d1- 
                                   1 3d1-    1 3d1-    1 3d1-    1 3d1-    1 3d1-    1 3d1-    1 3d1-    1 3d1- 

   1.7   0     0.0344   -0.7882 -0.000000  0.000004 -0.000018  0.000075 -0.000246  0.000726 -0.001790  0.004494 -0.014766  0.093028
                                 0.240646  0.327970 -0.177357  0.337132 -0.486588 -0.160942 -0.361867  1.228792

   2.7   0     0.0858   -1.6511  0.000001 -0.000007  0.000039 -0.000149  0.000534 -0.001466  0.004291 -0.010877  0.019769 -0.144272
                                -0.348224 -0.465374  0.540802 -0.412999  1.460875  0.309879  0.687771 -0.838794

                                   1 4f2-    1 4f2-    1 4f2- 

   1.8   0     0.2736   -1.2978 -0.156469  0.039872  1.089018

   2.8   0     0.7434   -1.4573  1.258437  0.042399 -0.701162

 HOMO      2.1    -0.181139 =      -4.9291eV
 LUMO      2.2     0.009814 =       0.2671eV
 LUMO-HOMO         0.190954 =       5.1961eV


 **********************************************************************************************************************************
 DATASETS  * FILE   NREC   LENGTH (MB)   RECORD NAMES
              1      19       20.28       500      610      700      900      950      970     1000      129      960     1100   
                                          VAR    BASINP    GEOM    SYMINP    ZMAT    AOBASIS   BASIS     P2S    ABASIS      S 
                                         1400     1410     1420     1200     1210     1080     1600     1650     1700   
                                           T        V       ECP      H0       H01     AOSYM     SMH    MOLCAS    OPER   

              2       5        5.52       200      700     1000      520     2100   
                                        OPTIONS   GEOM     BASIS   MCVARS     RHF  

 PROGRAMS   *        TOTAL       RHF       INT
 CPU TIMES  *        23.07      0.35     22.53
 REAL TIME  *        24.85 SEC
 DISK USED  *       711.23 MB      
 SF USED    *         0.03 MB      
 GA USED    *         0.00 MB       (max)       0.00 MB       (current)
 **********************************************************************************************************************************
 SETTING SCF(1)         =       -30.34716771  AU                              
 SETTING _CC_NORM_MAX   =         2.00000000                                  


 PROGRAM * CCSD (Restricted open-shell coupled cluster)     Authors: C. Hampel, H.-J. Werner, 1991, M. Deegan, P.J. Knowles, 1992


 Convergence thresholds:  THRVAR = 1.00D-08  THRDEN = 1.00D-06

 CCSD(T)     terms to be evaluated (factor= 1.000)


 Number of closed-shell orbitals:   5 (   2   1   1   0   1   0   0   0 )
 Number of external orbitals:     200 (  65  26  26  18  26  18  18   3 )

 Memory could be reduced to 13.76 Mwords without degradation in triples

 Number of N-1 electron functions:              10
 Number of N-2 electron functions:              45
 Number of singly external CSFs:               416
 Number of doubly external CSFs:            194616
 Total number of CSFs:                      195032

 Molecular orbitals read from record     2100.2  Type=RHF/CANONICAL (state 1.1)

 Integral transformation finished. Total CPU:   0.22 sec, npass=  1  Memory used:   1.64 MW

 Starting RMP2 calculation

 Wavefunction is spin-projected

 ITER.      SQ.NORM     CORR.ENERGY   TOTAL ENERGY   ENERGY CHANGE        DEN1      VAR(S)    VAR(P)  DIIS     TIME
   1      1.09203581    -0.24107001   -30.58823772    -0.24107001    -0.00166230  0.47D-12  0.16D-02  1  1     0.25
   2      1.09663107    -0.24290851   -30.59007622    -0.00183850    -0.00004414  0.53D-13  0.66D-04  2  2     0.25
   3      1.09775575    -0.24316325   -30.59033096    -0.00025474    -0.00000024  0.21D-14  0.32D-06  3  3     0.26
   4      1.09779693    -0.24316849   -30.59033620    -0.00000524    -0.00000000  0.16D-15  0.55D-08  4  4     0.27
   5      1.09779799    -0.24316847   -30.59033618     0.00000002    -0.00000000  0.98D-17  0.39D-10  5  5     0.28

 Norm of t1 vector:      0.00000292      S-energy:    -0.00000000      T1 diagnostic:  0.00000065
 Norm of t2 vector:      0.31272670      P-energy:    -0.24316847
                                         Alpha-Beta:  -0.18152967
                                         Alpha-Alpha: -0.03081940
                                         Beta-Beta:   -0.03081940

 Spin contamination <S**2-Sz**2-Sz>     0.00000000
  Reference energy                    -30.347167705768
  RHF-RMP2 correlation energy          -0.243168472236
 !RHF-RMP2 energy                     -30.590336178004
 (NB above energy spin projected)

 Starting RCCSD calculation

 ITER.      SQ.NORM     CORR.ENERGY   TOTAL ENERGY   ENERGY CHANGE        DEN1      VAR(S)    VAR(P)  DIIS     TIME
   1      1.09783635    -0.24693666   -30.59410437    -0.24693666    -0.00583103  0.17D-02  0.30D-02  1  1     0.43
   2      1.11394449    -0.25322365   -30.60039136    -0.00628699    -0.00060941  0.35D-03  0.50D-03  2  2     0.54
   3      1.12441845    -0.25482866   -30.60199636    -0.00160501    -0.00009139  0.76D-04  0.70D-04  3  3     0.66
   4      1.13038217    -0.25553994   -30.60270765    -0.00071128    -0.00000698  0.48D-05  0.56D-05  4  4     0.78
   5      1.13176335    -0.25565287   -30.60282058    -0.00011293    -0.00000085  0.41D-06  0.85D-06  5  5     0.88
   6      1.13205347    -0.25566741   -30.60283511    -0.00001454    -0.00000013  0.22D-07  0.15D-06  6  6     1.00
   7      1.13213835    -0.25567139   -30.60283910    -0.00000399    -0.00000001  0.20D-08  0.16D-07  6  1     1.12
   8      1.13214350    -0.25567130   -30.60283900     0.00000010    -0.00000000  0.16D-08  0.20D-08  6  2     1.23

 Norm of t1 vector:      0.10074444      S-energy:     0.00000007      T1 diagnostic:  0.02252714
                                                                       D1 diagnostic:  0.07112485
 Norm of t2 vector:      0.34927648      P-energy:    -0.25567137
                                         Alpha-Beta:  -0.19774452
                                         Alpha-Alpha: -0.02896342
                                         Beta-Beta:   -0.02896342

 Singles amplitudes (print threshold =  0.500E-01):

         I         SYM. A    A   T(IA) [Alpha-Alpha]

         2         1         6     -0.05092306
 
         I         SYM. A    A   T(IA) [Beta-Beta]

         2         1         6     -0.05092306

 Doubles amplitudes (print threshold =  0.500E-01):

         I         J         SYM. A    SYM. B    A         B      T(IJ, AB) [Alpha-Beta]

         2         2         2         2         2         2     -0.05034133
         2         2         3         3         2         2     -0.05034133
         2         2         5         5         2         2     -0.05034133

 Spin contamination <S**2-Sz**2-Sz>     0.00000000

 Memory could be reduced to 13.67 Mwords without degradation in triples
 

  Correlated core orbitals:             1.1       1.2       1.3       1.5
  Orbital energies:                    -1.9605   -1.1009   -1.1009   -1.1009
 
  RCCSD core-core energy               -0.200508096929
  RCCSD core-valence energy            -0.033047486981
  RCCSD valence correlation energy     -0.022115712223
 

 RESULTS
 =======

  Reference energy                    -30.347167705768
  RCCSD singles energy                  0.000000073730
  RCCSD pair energy                    -0.255671369863
  RCCSD correlation energy             -0.255671296133
  Triples (T) contribution             -0.008985060218
  Total correlation energy             -0.264656356352
 
  RHF-RCCSD energy                    -30.602839001901
  RHF-RCCSD[T] energy                 -30.612121652786
  RHF-RCCSD-T energy                  -30.611794837350
 !RHF-RCCSD(T) energy                 -30.611824062119

 Program statistics:

 Available memory in ccsd:               511999650
 Min. memory needed in ccsd:                720197
 Max. memory used in ccsd:                  935708
 Max. memory used in cckext:                798794 ( 8 integral passes)
 Max. memory used in cckint:               1642031 ( 1 integral passes)



 **********************************************************************************************************************************
 DATASETS  * FILE   NREC   LENGTH (MB)   RECORD NAMES
              1      19       20.28       500      610      700      900      950      970     1000      129      960     1100   
                                          VAR    BASINP    GEOM    SYMINP    ZMAT    AOBASIS   BASIS     P2S    ABASIS      S 
                                         1400     1410     1420     1200     1210     1080     1600     1650     1700   
                                           T        V       ECP      H0       H01     AOSYM     SMH    MOLCAS    OPER   

              2       5        5.52       200      700     1000      520     2100   
                                        OPTIONS   GEOM     BASIS   MCVARS     RHF  

 PROGRAMS   *        TOTAL  RCCSD(T)       RHF       INT
 CPU TIMES  *        25.82      2.75      0.35     22.53
 REAL TIME  *        29.55 SEC
 DISK USED  *       875.11 MB      
 SF USED    *       151.00 MB      
 GA USED    *         0.00 MB       (max)       0.00 MB       (current)
 **********************************************************************************************************************************
 SETTING CCSD(1)        =       -30.61182406  AU                              

 DO I                   =         2.00000000   

 Running procedure=I5S5P


 PROGRAM * RHF-SCF (OPEN SHELL)       Authors: W. Meyer, H.-J. Werner


 NUMBER OF ELECTRONS:       6+    4-    SPACE SYMMETRY=2    SPIN SYMMETRY: Triplet 
 CONVERGENCE THRESHOLDS:    1.00E-05 (Density)    1.00E-07 (Energy)
 MAX. NUMBER OF ITERATIONS:       60
 INTERPOLATION TYPE:            DIIS
 INTERPOLATION STEPS:              2 (START)      1 (STEP)
 LEVEL SHIFTS:                 -0.60 (CLOSED) -0.30 (OPEN) 

 Number of closed-shell orbitals:    4 (   1   1   1   0   1   0   0   0 )
 Number of open-shell orbitals:      2 (   1   1   0   0   0   0   0   0 )

 Singly occupied orbitals:      2.1       2.2
 
 Extra symmetries of mos in symmetry 1:   1   1
 Orbital guess generated from atomic densities. Full valence occupancy:    2   1   1   0   1   0   0   0


 Molecular orbital dump at record        4202.2

 ITERATION    DDIFF          GRAD             ENERGY        2-EL.EN.            DIPOLE MOMENTS         DIIS   ORB.
    1      0.000D+00      0.000D+00       -30.26045263     36.462599    0.00000    0.00000    0.00000    0    start
    2      0.000D+00      0.229D-02       -30.27336810     36.887922    0.00000    0.00000    0.00000    1    diag,B
    3      0.727D-02      0.156D-02       -30.28551910     37.273188    0.00000    0.00000    0.00000    2    diag,B
    4      0.607D-02      0.131D-02       -30.30105247     37.795113    0.00000    0.00000    0.00000    3    diag,B
    5      0.947D-02      0.920D-03       -30.31056670     38.176208    0.00000    0.00000    0.00000    4    diag,B
    6      0.746D-02      0.335D-03       -30.31128045     38.218317    0.00000    0.00000    0.00000    5    diag,B
    7      0.352D-02      0.158D-03       -30.31141961     38.226169    0.00000    0.00000    0.00000    6    fixocc
    8      0.998D-03      0.839D-04       -30.31145781     38.231796    0.00000    0.00000    0.00000    7    diag,B
    9      0.173D-02      0.437D-04       -30.31147230     38.241255    0.00000    0.00000    0.00000    8    diag,B
   10      0.606D-03      0.135D-04       -30.31147328     38.241110    0.00000    0.00000    0.00000    9    orth
   11      0.511D-03      0.582D-05       -30.31147345     38.241077    0.00000    0.00000    0.00000    9    diag,B
   12      0.881D-04      0.257D-05       -30.31147349     38.240251    0.00000    0.00000    0.00000    9    diag,B
   13      0.216D-04      0.917D-06       -30.31147349     38.240193    0.00000    0.00000    0.00000    9    diag,B
   14      0.244D-04      0.295D-06       -30.31147349     38.240129    0.00000    0.00000    0.00000    9    diag,B
   15      0.749D-05      0.818D-07       -30.31147349     38.240126    0.00000    0.00000    0.00000    0    orth

 Final alpha occupancy:   2   2   1   0   1   0   0   0
 Final beta  occupancy:   1   1   1   0   1   0   0   0

 !RHF STATE 1.2 Energy                -30.311473494363
 Nuclear energy                         0.00000000
 One-electron energy                  -49.43153631
 Two-electron energy                   19.12006282
 Virial quotient                       -3.17646653
 !RHF STATE 1.2 Dipole moment           0.00000000     0.00000000     0.00000000
 Dipole moment /Debye                   0.00000000     0.00000000     0.00000000

 ELECTRON ORBITALS
 =================


   Orb  Occ    Energy  Couls-En    Coefficients

                                   1 1s      1 1s      1 1s      1 1s      1 1s      1 1s      1 1s      1 1s      1 1s      1 1s   
                                   1 1s      1 1s      1 1s      1 1s      1 1s      1 1s      1 1s      1 1s      1 1s      1 1s   
                                   1 1s      1 1s      1 1s      1 1s      1 1s      1 1s      1 1s      1 1s      1 1s      1 1s   
                                   1 1s      1 3d0     1 3d2+    1 3d0     1 3d2+    1 3d0     1 3d2+    1 3d0     1 3d2+    1 3d0  
                                   1 3d2+    1 3d0     1 3d2+    1 3d0     1 3d2+    1 3d0     1 3d2+    1 3d0     1 3d2+    1 3d0  
                                   1 3d2+    1 3d0     1 3d2+    1 3d0     1 3d2+    1 3d0     1 3d2+    1 3d0     1 3d2+    1 3d0  
                                   1 3d2+    1 3d0     1 3d2+    1 3d0     1 3d2+    1 3d0     1 3d2+ 

   1.1   2    -1.9940   -8.3239 -0.000000  0.000000 -0.000000  0.000000 -0.000000  0.000000 -0.000000  0.000001 -0.000004  0.000011
                                -0.000028  0.000080 -0.000184  0.000474 -0.001010  0.002301 -0.005411  0.015023 -0.049924  0.173866
                                -0.148479 -0.555021  0.632190  0.575158  0.372290  0.011588 -0.003627  0.001515 -0.486999  0.292670
                                -0.000305  0.000000 -0.000000 -0.000000  0.000000  0.000000 -0.000000 -0.000000  0.000000  0.000000
                                -0.000000 -0.000000  0.000000  0.000003 -0.000005 -0.000005  0.000008 -0.000053  0.000092  0.000168
                                -0.000292  0.000599 -0.001038  0.001120 -0.001940  0.000121 -0.000210 -0.000086  0.000149 -0.000015
                                 0.000026 -0.000140  0.000243  0.000312 -0.000540 -0.000003  0.000005

   2.1   +    -0.2428   -2.6532  0.000000 -0.000000  0.000000 -0.000000  0.000000 -0.000000  0.000000 -0.000000  0.000001 -0.000003
                                 0.000007 -0.000020  0.000045 -0.000119  0.000250 -0.000581  0.001376 -0.003957  0.013871 -0.051050
                                 0.045480  0.187125 -0.477539  0.022735 -0.381074  0.423108  0.660406  0.130251  0.513117 -0.422364
                                 0.001025 -0.000000  0.000000  0.000000 -0.000000 -0.000000  0.000000  0.000000 -0.000001 -0.000003
                                 0.000006  0.000004 -0.000007 -0.000045  0.000079  0.000118 -0.000204  0.000444 -0.000769 -0.001756
                                 0.003042 -0.005840  0.010114 -0.007983  0.013827 -0.013050  0.022603 -0.035649  0.061746 -0.023979
                                 0.041532 -0.000044  0.000076  0.000526 -0.000911 -0.000891  0.001544

   3.1   0     0.0147   -0.7981  0.000000 -0.000000  0.000000 -0.000000  0.000000 -0.000000  0.000000 -0.000000  0.000001 -0.000003
                                 0.000009 -0.000024  0.000060 -0.000140  0.000314 -0.000635  0.001377 -0.002744  0.004281 -0.005216
                                 0.032203 -0.189715  2.756194 -2.403054  0.479135 -0.757232  1.417110 -3.023460 -3.643199  3.216419
                                 2.720463 -0.000000  0.000000  0.000000 -0.000000 -0.000001  0.000001  0.000003 -0.000006 -0.000011
                                 0.000018  0.000033 -0.000058 -0.000069  0.000119  0.000171 -0.000297 -0.000874  0.001514  0.005157
                                -0.008932  0.013989 -0.024230  0.019786 -0.034271 -0.005064  0.008770  0.022336 -0.038688 -0.021440
                                 0.037135 -0.007791  0.013494 -0.018194  0.031513  0.092007 -0.159361

   4.1   0     0.0293   -0.9416  0.000000  0.000000  0.000000 -0.000000  0.000000 -0.000000  0.000000 -0.000000  0.000000 -0.000000
                                 0.000000 -0.000000  0.000000 -0.000000  0.000000 -0.000000  0.000000 -0.000000 -0.000000  0.000000
                                 0.000000 -0.000001  0.000008 -0.000007  0.000002 -0.000003  0.000004 -0.000008 -0.000011  0.000009
                                 0.000006 -0.000000 -0.000000  0.000002  0.000001 -0.000012 -0.000007  0.000049  0.000028 -0.000154
                                -0.000089  0.000472  0.000272 -0.001049 -0.000606  0.002619  0.001512 -0.011311 -0.006530  0.068030
                                 0.039278  0.180653  0.104302  0.248997  0.143762 -0.086309 -0.049831  0.277699  0.160334 -0.264139
                                -0.152503 -0.107604 -0.062127 -0.244898 -0.141395  0.949530  0.548224

                                   1 2px     1 2px     1 2px     1 2px     1 2px     1 2px     1 2px     1 2px     1 2px     1 2px  
                                   1 2px     1 2px     1 2px     1 2px     1 2px     1 2px     1 2px     1 2px     1 2px     1 2px  
                                   1 2px     1 4f1+    1 4f3+    1 4f1+    1 4f3+    1 4f1+    1 4f3+ 

   1.2   2    -1.1315   -6.5438  0.000000 -0.000000  0.000000 -0.000000  0.000002 -0.000006  0.000029 -0.000059  0.000231 -0.000324
                                -0.000927  0.031675 -0.131980 -0.094350  0.549540  0.037586 -0.011481  0.002842  0.339581  0.273745
                                -0.001250  0.001738 -0.002244  0.001381 -0.001783 -0.000647  0.000836

   2.2   +    -0.1450   -2.0694 -0.000000  0.000000 -0.000000  0.000000 -0.000001  0.000002 -0.000008  0.000016 -0.000062  0.000096
                                 0.000156 -0.007520  0.032859  0.021197 -0.156393  0.218827  0.636550  0.283360 -0.087813 -0.130725
                                 0.001583 -0.001387  0.001791 -0.000530  0.000684 -0.004386  0.005663

   3.2   0     0.0232   -0.6672 -0.000000  0.000000 -0.000000  0.000001 -0.000002  0.000010 -0.000034  0.000100 -0.000278  0.000677
                                -0.001523  0.001840 -0.000217  0.019917  0.010150  0.256201 -0.373591  1.339370 -0.044548 -0.108554
                                -1.743453  0.000163 -0.000211 -0.000148  0.000191 -0.000208  0.000268

   4.2   0     0.1036   -0.9947  0.000000 -0.000000  0.000000 -0.000002  0.000008 -0.000033  0.000110 -0.000337  0.000908 -0.002295
                                 0.005702 -0.017629  0.049030 -0.041145 -0.272296 -0.632700  2.689877 -3.399170  0.032355  0.206428
                                 1.372438  0.002220 -0.002866 -0.000579  0.000748 -0.002246  0.002900

                                   1 2py     1 2py     1 2py     1 2py     1 2py     1 2py     1 2py     1 2py     1 2py     1 2py  
                                   1 2py     1 2py     1 2py     1 2py     1 2py     1 2py     1 2py     1 2py     1 2py     1 2py  
                                   1 2py     1 4f1-    1 4f3-    1 4f1-    1 4f3-    1 4f1-    1 4f3- 

   1.3   2    -1.1382   -6.5412  0.000000 -0.000000  0.000000 -0.000000  0.000002 -0.000006  0.000028 -0.000059  0.000230 -0.000321
                                -0.000924  0.031457 -0.130933 -0.093909  0.543539  0.040124 -0.009928  0.004538  0.336432  0.280415
                                -0.001349  0.000596 -0.002307  0.000459 -0.001778 -0.000204  0.000789

   2.3   0    -0.0024   -1.4569 -0.000000  0.000000 -0.000000  0.000000 -0.000000 -0.000000 -0.000001 -0.000000 -0.000011 -0.000011
                                 0.000276 -0.005267  0.022052  0.012195 -0.103976  0.075584  0.393905  0.222368 -0.053784 -0.073542
                                 0.498700 -0.000597  0.002312 -0.000063  0.000243 -0.000466  0.001805

   3.3   0     0.0258   -0.8901 -0.000000  0.000000 -0.000000  0.000001 -0.000003  0.000011 -0.000038  0.000113 -0.000316  0.000757
                                -0.001614  0.000228  0.007426  0.026705 -0.023796  0.300128 -0.314719  1.693857 -0.068786 -0.147902
                                -1.740530 -0.000259  0.001001 -0.000060  0.000232 -0.000072  0.000279

                                   1 3d2-    1 3d2-    1 3d2-    1 3d2-    1 3d2-    1 3d2-    1 3d2-    1 3d2-    1 3d2-    1 3d2- 
                                   1 3d2-    1 3d2-    1 3d2-    1 3d2-    1 3d2-    1 3d2-    1 3d2-    1 3d2- 

   1.4   0     0.0287   -1.1130 -0.000000  0.000002 -0.000011  0.000046 -0.000138  0.000440 -0.000866  0.002144 -0.012222  0.070729
                                 0.191502  0.264291 -0.049621  0.334220 -0.164279 -0.102943 -0.236278  0.962917

   2.4   0     0.0600   -1.6593 -0.000001  0.000006 -0.000033  0.000123 -0.000452  0.001221 -0.003716  0.009436 -0.014322  0.110530
                                 0.258931  0.341028 -0.486759  0.214525 -1.197612 -0.254068 -0.557703  1.053386

                                   1 2pz     1 2pz     1 2pz     1 2pz     1 2pz     1 2pz     1 2pz     1 2pz     1 2pz     1 2pz  
                                   1 2pz     1 2pz     1 2pz     1 2pz     1 2pz     1 2pz     1 2pz     1 2pz     1 2pz     1 2pz  
                                   1 2pz     1 4f0     1 4f2+    1 4f0     1 4f2+    1 4f0     1 4f2+ 

   1.5   2    -1.1382   -6.5412  0.000000 -0.000000  0.000000 -0.000000  0.000002 -0.000006  0.000028 -0.000059  0.000230 -0.000321
                                -0.000924  0.031457 -0.130933 -0.093909  0.543539  0.040124 -0.009928  0.004538  0.336432  0.280415
                                -0.001349  0.001459 -0.001883  0.001124 -0.001452 -0.000499  0.000644

   2.5   0    -0.0024   -1.4569 -0.000000  0.000000 -0.000000  0.000000 -0.000000 -0.000000 -0.000001 -0.000000 -0.000011 -0.000011
                                 0.000276 -0.005267  0.022052  0.012195 -0.103976  0.075584  0.393905  0.222368 -0.053784 -0.073542
                                 0.498700 -0.001462  0.001887 -0.000153  0.000198 -0.001142  0.001474

   3.5   0     0.0258   -0.8901 -0.000000  0.000000 -0.000000  0.000001 -0.000003  0.000011 -0.000038  0.000113 -0.000316  0.000757
                                -0.001614  0.000228  0.007426  0.026705 -0.023796  0.300128 -0.314719  1.693857 -0.068786 -0.147902
                                -1.740530 -0.000633  0.000817 -0.000147  0.000189 -0.000176  0.000228

                                   1 3d1+    1 3d1+    1 3d1+    1 3d1+    1 3d1+    1 3d1+    1 3d1+    1 3d1+    1 3d1+    1 3d1+ 
                                   1 3d1+    1 3d1+    1 3d1+    1 3d1+    1 3d1+    1 3d1+    1 3d1+    1 3d1+ 

   1.6   0     0.0287   -1.1130 -0.000000  0.000002 -0.000011  0.000046 -0.000138  0.000440 -0.000866  0.002144 -0.012222  0.070729
                                 0.191502  0.264291 -0.049621  0.334220 -0.164279 -0.102943 -0.236278  0.962917

   2.6   0     0.0600   -1.6593 -0.000001  0.000006 -0.000033  0.000123 -0.000452  0.001221 -0.003716  0.009436 -0.014322  0.110530
                                 0.258931  0.341028 -0.486759  0.214525 -1.197612 -0.254068 -0.557703  1.053386

                                   1 3d1-    1 3d1-    1 3d1-    1 3d1-    1 3d1-    1 3d1-    1 3d1-    1 3d1-    1 3d1-    1 3d1- 
                                   1 3d1-    1 3d1-    1 3d1-    1 3d1-    1 3d1-    1 3d1-    1 3d1-    1 3d1- 

   1.7   0     0.0293   -0.9416 -0.000000  0.000003 -0.000014  0.000056 -0.000178  0.000545 -0.001211  0.003024 -0.013060  0.078554
                                 0.208601  0.287519 -0.099662  0.320661 -0.305002 -0.124251 -0.282786  1.096430

   2.7   0     0.0632   -1.8582 -0.000001  0.000006 -0.000031  0.000116 -0.000432  0.001152 -0.003605  0.009167 -0.012087  0.098123
                                 0.224766  0.291538 -0.485183  0.190356 -1.171998 -0.237748 -0.520581  0.902103

                                   1 4f2-    1 4f2-    1 4f2- 

   1.8   0     0.2518   -1.3330 -0.132966  0.038504  1.075957

   2.8   0     0.7125   -1.4772  1.259538  0.043883 -0.719553

 HOMO      2.2    -0.145011 =      -3.9459eV
 LUMO      2.3    -0.002421 =      -0.0659eV
 LUMO-HOMO         0.142590 =       3.8801eV


 **********************************************************************************************************************************
 DATASETS  * FILE   NREC   LENGTH (MB)   RECORD NAMES
              1      19       20.28       500      610      700      900      950      970     1000      129      960     1100   
                                          VAR    BASINP    GEOM    SYMINP    ZMAT    AOBASIS   BASIS     P2S    ABASIS      S 
                                         1400     1410     1420     1200     1210     1080     1600     1650     1700   
                                           T        V       ECP      H0       H01     AOSYM     SMH    MOLCAS    OPER   

              2       6        8.38       200      700     1000      520     2100     4202   
                                        OPTIONS   GEOM     BASIS   MCVARS     RHF      RHF  

 PROGRAMS   *        TOTAL       RHF  RCCSD(T)       RHF       INT
 CPU TIMES  *        26.36      0.53      2.75      0.35     22.53
 REAL TIME  *        30.41 SEC
 DISK USED  *       875.11 MB      
 SF USED    *       151.00 MB      
 GA USED    *         0.00 MB       (max)       0.00 MB       (current)
 **********************************************************************************************************************************


 PROGRAM * POP (Mulliken population analysis)

 
 Density matrix read from record         4202.2  Type=RHF/CHARGE (state 1.2)
 
 Population analysis by basis function type

 Unique atom        s        p        d        f        g    Total    Charge
   1  SR      2.97952  6.99984  0.02048  0.00016  0.00000 10.00000  + 0.00000


 **********************************************************************************************************************************
 DATASETS  * FILE   NREC   LENGTH (MB)   RECORD NAMES
              1      19       20.28       500      610      700      900      950      970     1000      129      960     1100   
                                          VAR    BASINP    GEOM    SYMINP    ZMAT    AOBASIS   BASIS     P2S    ABASIS      S 
                                         1400     1410     1420     1200     1210     1080     1600     1650     1700   
                                           T        V       ECP      H0       H01     AOSYM     SMH    MOLCAS    OPER   

              2       6        8.38       200      700     1000      520     2100     4202   
                                        OPTIONS   GEOM     BASIS   MCVARS     RHF      RHF  

 PROGRAMS   *        TOTAL       POP       RHF  RCCSD(T)       RHF       INT
 CPU TIMES  *        26.37      0.01      0.53      2.75      0.35     22.53
 REAL TIME  *        30.47 SEC
 DISK USED  *       875.11 MB      
 SF USED    *       151.00 MB      
 GA USED    *         0.00 MB       (max)       0.00 MB       (current)
 **********************************************************************************************************************************


 PROGRAM * MULTI (Direct Multiconfiguration SCF)       Authors: P.J. Knowles, H.-J. Werner (1984)     S.T. Elbert (1988)


 Number of closed-shell orbitals:   4 (   1   1   1   0   1   0   0   0 )
 Number of active  orbitals:        4 (   1   1   1   0   1   0   0   0 )
 Number of external orbitals:     197 (  65  25  25  18  25  18  18   3 )

 State symmetry 1

 Orbital occupancy restrictions for symmetry 2
  1      1       2000                            

 Number of electrons:     2    Spin symmetry=Triplet   Space symmetry=2
 Number of states:        1
 Number of CSFs:          1

 State symmetry 2

 Orbital occupancy restrictions for symmetry 3
  1      1       2000                            

 Number of electrons:     2    Spin symmetry=Triplet   Space symmetry=3
 Number of states:        1
 Number of CSFs:          1

 State symmetry 3

 Orbital occupancy restrictions for symmetry 5
  1      1       2000                            

 Number of electrons:     2    Spin symmetry=Triplet   Space symmetry=5
 Number of states:        1
 Number of CSFs:          1
 
 Maximum number of shells:             1
 Maximum number of spin couplings:     1

 Storage for configuration lists      14, coupling coefficients      2, address lists     69

 Molecular orbitals read from record     4202.2  Type=RHF/CANONICAL (state 1.2)
 *** IN SYMMETRY 1 ORBITAL  1 SYMMETRY CONTAMINATION OF 0.215D-02 HAS BEEN REMOVED
 *** IN SYMMETRY 1 ORBITAL  2 SYMMETRY CONTAMINATION OF 0.689D-01 HAS BEEN REMOVED

 EXTRA SYMMETRY OF MOS IN SYMMETRY 1:   1 1 1 2 1 3 2 1 2 3   1 2 3 2 3 1 2 3 1 2   3 1 2 3 2 3 1 2 3 1   2 3 1 2 3 1 1 2 3 1
                                        2 3 1 2 3 1 2 3 1 1   2 3 1 1 2 3 1 1 1 1   1 1 1 1 1 1 3
 *** IN SYMMETRY 2 ORBITAL  1 SYMMETRY CONTAMINATION OF 0.581D-02 HAS BEEN REMOVED
 *** IN SYMMETRY 2 ORBITAL  2 SYMMETRY CONTAMINATION OF 0.907D-02 HAS BEEN REMOVED
 EXTRA SYMMETRY OF MOS IN SYMMETRY 2:   1 1 1 1 2 3 1 2 3 1   2 3 1 1 1 1 1 1 1 1   1 1 1 1 1 1 1
 *** IN SYMMETRY 3 ORBITAL  1 SYMMETRY CONTAMINATION OF 0.414D-02 HAS BEEN REMOVED
 *** IN SYMMETRY 3 ORBITAL  2 SYMMETRY CONTAMINATION OF 0.374D-02 HAS BEEN REMOVED
 EXTRA SYMMETRY OF MOS IN SYMMETRY 3:   1 1 1 1 2 3 1 2 3 1   2 3 1 1 1 1 1 1 1 1   1 1 1 1 1 1 1
 *** IN SYMMETRY 5 ORBITAL  1 SYMMETRY CONTAMINATION OF 0.477D-02 HAS BEEN REMOVED
 *** IN SYMMETRY 5 ORBITAL  2 SYMMETRY CONTAMINATION OF 0.430D-02 HAS BEEN REMOVED
 EXTRA SYMMETRY OF MOS IN SYMMETRY 5:   1 1 1 1 2 3 1 2 3 1   2 3 1 1 1 1 1 1 1 1   1 1 1 1 1 1 1

 Wavefunction dump at record             5202.2

 Convergence thresholds  0.10E-01 (gradient)  0.10E-05 (energy)  0.10E-02 (step length)

 Weight factors for state symmetry  1:    0.33333
 Weight factors for state symmetry  2:    0.33333
 Weight factors for state symmetry  3:    0.33333

 Number of orbital rotations:      284   (     4 Core/Active    140 Core/Virtual   0 Active/Active    140 Active/Virtual)
 Total number of variables:        287


 ITER. MIC  NCI  NEG     ENERGY(VAR)     ENERGY(PROJ)   ENERGY CHANGE     GRAD(0)  GRAD(ORB)   GRAD(CI)     STEP       TIME

   1   25   21    0     -30.29746633     -30.30890337   -0.01143704    0.23282182 0.00000005 0.00000000  0.61D+00      0.13
   2   23   24    0     -30.30889305     -30.30889610   -0.00000305    2.89377203 0.00000010 0.00000000  0.33D-02      0.26
   3   23   15    0     -30.30889610     -30.30889610   -0.00000000    0.00000070 0.00000000 0.00000000  0.53D-05      0.36

 ** WVFN ****  CONVERGENCE REACHED, FINAL GRADIENT:  0.12D-10



 Results for state 1.2
 =====================

 !MCSCF STATE 1.2 Energy              -30.308896098282
 Nuclear energy                         0.00000000
 Kinetic energy                         9.53686202
 One electron energy                  -49.42348657
 Two electron energy                   19.11459047
 Virial ratio                           4.17807850

 !MCSCF STATE 1.2 Dipole moment         0.00000000     0.00000000     0.00000000
 Dipole moment /Debye                   0.00000000     0.00000000     0.00000000



 Results for state 1.3
 =====================

 !MCSCF STATE 1.3 Energy              -30.308896098282
 Nuclear energy                         0.00000000
 Kinetic energy                         9.53686202
 One electron energy                  -49.42348657
 Two electron energy                   19.11459047
 Virial ratio                           4.17807850

 !MCSCF STATE 1.3 Dipole moment         0.00000000     0.00000000     0.00000000
 Dipole moment /Debye                   0.00000000     0.00000000     0.00000000



 Results for state 1.5
 =====================

 !MCSCF STATE 1.5 Energy              -30.308896098282
 Nuclear energy                         0.00000000
 Kinetic energy                         9.53686202
 One electron energy                  -49.42348657
 Two electron energy                   19.11459047
 Virial ratio                           4.17807850

 !MCSCF STATE 1.5 Dipole moment         0.00000000     0.00000000     0.00000000
 Dipole moment /Debye                   0.00000000     0.00000000     0.00000000

 State-averaged charge density matrix saved on record  5202.2 (density set 1)


 NATURAL ORBITALS (state averaged)
 =================================

   Orb     Occ        Energy       Coefficients

                                   1 1s      1 1s      1 1s      1 1s      1 1s      1 1s      1 1s      1 1s      1 1s      1 1s   
                                   1 1s      1 1s      1 1s      1 1s      1 1s      1 1s      1 1s      1 1s      1 1s      1 1s   
                                   1 1s      1 1s      1 1s      1 1s      1 1s      1 1s      1 1s      1 1s      1 1s      1 1s   
                                   1 1s      1 3d0     1 3d2+    1 3d0     1 3d2+    1 3d0     1 3d2+    1 3d0     1 3d2+    1 3d0  
                                   1 3d2+    1 3d0     1 3d2+    1 3d0     1 3d2+    1 3d0     1 3d2+    1 3d0     1 3d2+    1 3d0  
                                   1 3d2+    1 3d0     1 3d2+    1 3d0     1 3d2+    1 3d0     1 3d2+    1 3d0     1 3d2+    1 3d0  
                                   1 3d2+    1 3d0     1 3d2+    1 3d0     1 3d2+    1 3d0     1 3d2+ 

   1.1  2.00000    -1.995298    -0.000000  0.000000 -0.000000  0.000000 -0.000000  0.000000 -0.000000  0.000001 -0.000004  0.000011
                                -0.000028  0.000080 -0.000184  0.000474 -0.001010  0.002301 -0.005412  0.015025 -0.049929  0.173884
                                -0.148506 -0.555018  0.631441  0.575857  0.372019  0.011606 -0.003505  0.001522 -0.485967  0.291898
                                -0.000301  0.000000  0.000000  0.000000  0.000000  0.000000  0.000000  0.000000  0.000000  0.000000
                                 0.000000  0.000000  0.000000  0.000000  0.000000  0.000000  0.000000  0.000000  0.000000  0.000000
                                 0.000000  0.000000  0.000000  0.000000  0.000000  0.000000  0.000000  0.000000  0.000000  0.000000
                                 0.000000  0.000000  0.000000  0.000000  0.000000  0.000000  0.000000

   2.1  1.00000    -0.120309     0.000000 -0.000000  0.000000 -0.000000  0.000000 -0.000000  0.000000 -0.000000  0.000001 -0.000003
                                 0.000007 -0.000021  0.000047 -0.000123  0.000258 -0.000599  0.001417 -0.004063  0.014191 -0.052123
                                 0.046732  0.188878 -0.456542 -0.008370 -0.381034  0.436556  0.658591  0.132311  0.482410 -0.391501
                                 0.000872  0.000000  0.000000  0.000000  0.000000  0.000000  0.000000  0.000000  0.000000  0.000000
                                 0.000000  0.000000  0.000000  0.000000  0.000000  0.000000  0.000000  0.000000  0.000000  0.000000
                                 0.000000  0.000000  0.000000  0.000000  0.000000  0.000000  0.000000  0.000000  0.000000  0.000000
                                 0.000000  0.000000  0.000000  0.000000  0.000000  0.000000  0.000000

                                   1 2px     1 2px     1 2px     1 2px     1 2px     1 2px     1 2px     1 2px     1 2px     1 2px  
                                   1 2px     1 2px     1 2px     1 2px     1 2px     1 2px     1 2px     1 2px     1 2px     1 2px  
                                   1 2px     1 4f1+    1 4f3+    1 4f1+    1 4f3+    1 4f1+    1 4f3+ 

   1.2  2.00000    -1.137143     0.000000 -0.000000  0.000000 -0.000000  0.000002 -0.000006  0.000029 -0.000059  0.000230 -0.000322
                                -0.000924  0.031520 -0.131242 -0.094043  0.545354  0.039513 -0.009626  0.004322  0.337404  0.278021
                                -0.001313  0.000000  0.000000  0.000000  0.000000  0.000000  0.000000

   2.2  0.33333     0.007034    -0.000000  0.000000 -0.000000  0.000000 -0.000001  0.000002 -0.000007  0.000016 -0.000061  0.000095
                                 0.000161 -0.007555  0.032954  0.021290 -0.155974  0.207203  0.626019  0.302318 -0.087927 -0.129872
                                 0.004348  0.000000  0.000000  0.000000  0.000000  0.000000  0.000000

                                   1 2py     1 2py     1 2py     1 2py     1 2py     1 2py     1 2py     1 2py     1 2py     1 2py  
                                   1 2py     1 2py     1 2py     1 2py     1 2py     1 2py     1 2py     1 2py     1 2py     1 2py  
                                   1 2py     1 4f1-    1 4f3-    1 4f1-    1 4f3-    1 4f1-    1 4f3- 

   1.3  2.00000    -1.137143     0.000000 -0.000000  0.000000 -0.000000  0.000002 -0.000006  0.000029 -0.000059  0.000230 -0.000322
                                -0.000924  0.031520 -0.131242 -0.094043  0.545354  0.039513 -0.009626  0.004322  0.337404  0.278021
                                -0.001313  0.000000  0.000000  0.000000  0.000000  0.000000  0.000000

   2.3  0.33333     0.007034    -0.000000  0.000000 -0.000000  0.000000 -0.000001  0.000002 -0.000007  0.000016 -0.000061  0.000095
                                 0.000161 -0.007555  0.032954  0.021290 -0.155974  0.207203  0.626019  0.302318 -0.087927 -0.129872
                                 0.004348  0.000000  0.000000  0.000000  0.000000  0.000000  0.000000

                                   1 2pz     1 2pz     1 2pz     1 2pz     1 2pz     1 2pz     1 2pz     1 2pz     1 2pz     1 2pz  
                                   1 2pz     1 2pz     1 2pz     1 2pz     1 2pz     1 2pz     1 2pz     1 2pz     1 2pz     1 2pz  
                                   1 2pz     1 4f0     1 4f2+    1 4f0     1 4f2+    1 4f0     1 4f2+ 

   1.5  2.00000    -1.137143     0.000000 -0.000000  0.000000 -0.000000  0.000002 -0.000006  0.000029 -0.000059  0.000230 -0.000322
                                -0.000924  0.031520 -0.131242 -0.094043  0.545354  0.039513 -0.009626  0.004322  0.337404  0.278021
                                -0.001313  0.000000  0.000000  0.000000  0.000000  0.000000  0.000000

   2.5  0.33333     0.007034    -0.000000  0.000000 -0.000000  0.000000 -0.000001  0.000002 -0.000007  0.000016 -0.000061  0.000095
                                 0.000161 -0.007555  0.032954  0.021290 -0.155974  0.207203  0.626019  0.302318 -0.087927 -0.129872
                                 0.004348  0.000000  0.000000  0.000000  0.000000  0.000000  0.000000
 

 EXTRA SYMMETRY OF MOS IN SYMMETRY 1:   1 1 1 3 2 3 2 1 2 3   1 2 3 2 3 1 2 3 1 2   3 1 2 3 2 3 1 2 3 1   2 3 1 2 3 1 1 2 3 1
                                        3 2 1 3 2 1 3 2 1 1   3 2 1 1 3 2 1 1 1 1   1 1 1 1 1 1 1
 EXTRA SYMMETRY OF MOS IN SYMMETRY 3:   1 1 1 1 2 3 1 2 3 1   3 2 1 1 1 1 1 1 1 1   1 1 1 1 1 1 1
 EXTRA SYMMETRY OF MOS IN SYMMETRY 5:   1 1 1 1 2 3 1 3 2 1   2 3 1 1 1 1 1 1 1 1   1 1 1 1 1 1 1

 Natural orbital dump (state averaged) at molpro section  5202.2    (Orbital set 2)


 CI vector for state symmetry 1
 ==============================

 / / 0 0          1.0000000

 CI vector for state symmetry 2
 ==============================

 / 0 / 0          1.0000000

 CI vector for state symmetry 3
 ==============================

 / 0 0 /          1.0000000


 **********************************************************************************************************************************
 DATASETS  * FILE   NREC   LENGTH (MB)   RECORD NAMES
              1      20       23.01       500      610      700      900      950      970     1000      129      960     1100   
                                          VAR    BASINP    GEOM    SYMINP    ZMAT    AOBASIS   BASIS     P2S    ABASIS      S 
                                         1400     1410     1420     1200     1210     1080     1600     1650     1700     1380   
                                           T        V       ECP      H0       H01     AOSYM     SMH    MOLCAS    OPER     JKOP   

              2       7       11.15       200      700     1000      520     2100     4202     5202   
                                        OPTIONS   GEOM     BASIS   MCVARS     RHF      RHF     MCSCF   

 PROGRAMS   *        TOTAL     MULTI       POP       RHF  RCCSD(T)       RHF       INT
 CPU TIMES  *        26.95      0.58      0.01      0.53      2.75      0.35     22.53
 REAL TIME  *        32.31 SEC
 DISK USED  *       875.11 MB      
 SF USED    *       151.00 MB      
 GA USED    *         0.00 MB       (max)       0.00 MB       (current)
 **********************************************************************************************************************************


 PROGRAM * RHF-SCF (OPEN SHELL)       Authors: W. Meyer, H.-J. Werner


 NUMBER OF ELECTRONS:       6+    4-    SPACE SYMMETRY=2    SPIN SYMMETRY: Triplet 
 CONVERGENCE THRESHOLDS:    1.00E-05 (Density)    1.00E-07 (Energy)
 MAX. NUMBER OF ITERATIONS:        0
 INTERPOLATION TYPE:            DIIS
 INTERPOLATION STEPS:              2 (START)      1 (STEP)
 LEVEL SHIFTS:                 -0.60 (CLOSED) -0.30 (OPEN) 


 Singly occupied orbitals:      2.1       2.2
 Molecular orbitals read from record     5202.2  Type=MCSCF/NATURAL  

 Molecular orbital dump at record        2102.2

 ITERATION    DDIFF          GRAD             ENERGY        2-EL.EN.            DIPOLE MOMENTS         DIIS   ORB.
    1      0.000D+00      0.000D+00       -30.30889610     38.229181    0.00000    0.00000    0.00000    0    start

 Final alpha occupancy:   2   2   1   0   1   0   0   0
 Final beta  occupancy:   1   1   1   0   1   0   0   0

 !RHF STATE 1.2 Energy                -30.308896098282
 Nuclear energy                         0.00000000
 One-electron energy                  -49.42348657
 Two-electron energy                   19.11459047
 Virial quotient                       -3.17807850
 !RHF STATE 1.2 Dipole moment           0.00000000     0.00000000     0.00000000
 Dipole moment /Debye                   0.00000000     0.00000000     0.00000000

 Orbital energies:

         1.1          2.1          3.1          4.1
     -1.995298    -0.120309     0.016761     0.032765

         1.2          2.2          3.2          4.2
     -1.137143     0.007034     0.022925     0.108861

         1.3          2.3          3.3
     -1.137143     0.007034     0.022925

         1.4          2.4
      0.032765     0.072945

         1.5          2.5          3.5
     -1.137143     0.007034     0.022925

         1.6          2.6
      0.032765     0.072945

         1.7          2.7
      0.032765     0.072945

         1.8          2.8
      0.261958     0.717920

 HOMO      2.2     0.007034 =       0.1914eV
 LUMO      2.3     0.007034 =       0.1914eV
 LUMO-HOMO         0.000000 =       0.0000eV


 **********************************************************************************************************************************
 DATASETS  * FILE   NREC   LENGTH (MB)   RECORD NAMES
              1      20       23.01       500      610      700      900      950      970     1000      129      960     1100   
                                          VAR    BASINP    GEOM    SYMINP    ZMAT    AOBASIS   BASIS     P2S    ABASIS      S 
                                         1400     1410     1420     1200     1210     1080     1600     1650     1700     1380   
                                           T        V       ECP      H0       H01     AOSYM     SMH    MOLCAS    OPER     JKOP   

              2       8       14.00       200      700     1000      520     2100     4202     5202     2102   
                                        OPTIONS   GEOM     BASIS   MCVARS     RHF      RHF     MCSCF     RHF  

 PROGRAMS   *        TOTAL       RHF     MULTI       POP       RHF  RCCSD(T)       RHF       INT
 CPU TIMES  *        26.98      0.03      0.58      0.01      0.53      2.75      0.35     22.53
 REAL TIME  *        32.45 SEC
 DISK USED  *       875.11 MB      
 SF USED    *       151.00 MB      
 GA USED    *         0.00 MB       (max)       0.00 MB       (current)
 **********************************************************************************************************************************
 SETTING SCF(2)         =       -30.30889610  AU                              
 SETTING _CC_NORM_MAX   =         2.00000000                                  


 PROGRAM * CCSD (Restricted open-shell coupled cluster)     Authors: C. Hampel, H.-J. Werner, 1991, M. Deegan, P.J. Knowles, 1992


 Convergence thresholds:  THRVAR = 1.00D-08  THRDEN = 1.00D-06

 CCSD(T)     terms to be evaluated (factor= 1.000)


 Number of closed-shell orbitals:   4 (   1   1   1   0   1   0   0   0 )
 Number of active  orbitals:        2 (   1   1   0   0   0   0   0   0 )
 Number of external orbitals:     199 (  65  25  26  18  26  18  18   3 )

 Memory could be reduced to 15.03 Mwords without degradation in triples

 Number of N-1 electron functions:              10
 Number of N-2 electron functions:              45
 Number of singly external CSFs:               380
 Number of doubly external CSFs:            189624
 Total number of CSFs:                      190004

 Molecular orbitals read from record     2102.2  Type=RHF/CANONICAL (state 1.2)

 Integral transformation finished. Total CPU:   0.24 sec, npass=  1  Memory used:   1.93 MW

 Starting RMP2 calculation

 Wavefunction is spin-projected

 ITER.      SQ.NORM     CORR.ENERGY   TOTAL ENERGY   ENERGY CHANGE        DEN1      VAR(S)    VAR(P)  DIIS     TIME
   1      1.06297647    -0.21479925   -30.52369535    -0.21479925    -0.00077380  0.18D-03  0.34D-03  1  1     0.25
   2      1.06439374    -0.21563264   -30.52452874    -0.00083339    -0.00001392  0.18D-04  0.84D-05  2  2     0.26
   3      1.06476728    -0.21569901   -30.52459511    -0.00006637    -0.00000018  0.28D-06  0.61D-07  3  3     0.33
   4      1.06480050    -0.21570235   -30.52459845    -0.00000334    -0.00000000  0.39D-08  0.14D-08  4  4     0.34
   5      1.06480318    -0.21570269   -30.52459879    -0.00000033    -0.00000000  0.32D-10  0.12D-10  5  5     0.35

 Norm of t1 vector:      0.05905460      S-energy:    -0.00125568      T1 diagnostic:  0.01307885
 Norm of t2 vector:      0.24762014      P-energy:    -0.21444701
                                         Alpha-Beta:  -0.15628544
                                         Alpha-Alpha: -0.03457012
                                         Beta-Beta:   -0.02359145

 Spin contamination <S**2-Sz**2-Sz>     0.00000000
  Reference energy                    -30.308896098282
  RHF-RMP2 correlation energy          -0.215702686807
 !RHF-RMP2 energy                     -30.524598785089
 (NB above energy spin projected)

 Starting RCCSD calculation

 ITER.      SQ.NORM     CORR.ENERGY   TOTAL ENERGY   ENERGY CHANGE        DEN1      VAR(S)    VAR(P)  DIIS     TIME
   1      1.06906833    -0.22370686   -30.53260296    -0.22370686    -0.00431252  0.86D-03  0.13D-02  1  1     0.49
   2      1.07672507    -0.22845460   -30.53735070    -0.00474774    -0.00028768  0.24D-03  0.16D-03  2  2     0.62
   3      1.08144992    -0.22925410   -30.53815020    -0.00079951    -0.00006212  0.58D-04  0.45D-04  3  3     0.75
   4      1.08542887    -0.22967135   -30.53856744    -0.00041724    -0.00001173  0.73D-05  0.10D-04  4  4     0.88
   5      1.08740941    -0.22979093   -30.53868703    -0.00011959    -0.00000274  0.18D-05  0.21D-05  5  5     1.00
   6      1.08825316    -0.22982192   -30.53871801    -0.00003098    -0.00000045  0.42D-06  0.26D-06  6  6     1.11
   7      1.08839871    -0.22982332   -30.53871942    -0.00000141    -0.00000006  0.43D-07  0.41D-07  6  1     1.24
   8      1.08843352    -0.22982499   -30.53872109    -0.00000167    -0.00000001  0.32D-08  0.89D-08  6  2     1.37
   9      1.08844032    -0.22982505   -30.53872114    -0.00000005    -0.00000000  0.20D-09  0.11D-08  6  3     1.51

 Norm of t1 vector:      0.11031646      S-energy:    -0.00179812      T1 diagnostic:  0.02457757
                                                                       D1 diagnostic:  0.07428758
 Norm of t2 vector:      0.27617131      P-energy:    -0.22802692
                                         Alpha-Beta:  -0.17072966
                                         Alpha-Alpha: -0.03482309
                                         Beta-Beta:   -0.02247417

 Singles amplitudes (print threshold =  0.500E-01):

         I         SYM. A    A   T(IA) [Alpha-Alpha]

         2         1         5     -0.06664570

 Doubles amplitudes (print threshold =  0.500E-01):

         I         J         SYM. A    SYM. B    A         B      T(IJ, AB) [Alpha-Alpha]

         4         2         3         4         1         2     -0.05686852
         4         2         4         3         2         1      0.05686852
         4         2         5         6         1         2     -0.05686967
         4         2         6         5         2         1      0.05686967

 Spin contamination <S**2-Sz**2-Sz>     0.00000000

 Memory could be reduced to 15.11 Mwords without degradation in triples
 

  Correlated core orbitals:             1.1       1.2       1.3       1.5
  Orbital energies:                    -2.0011   -1.1398   -1.1420   -1.1420
 
  RCCSD core-core energy               -0.202099870548
  RCCSD core-valence energy            -0.022784920068
  RCCSD valence correlation energy     -0.004940255758
 

 RESULTS
 =======

  Reference energy                    -30.308896098282
  RCCSD singles energy                 -0.001798124538
  RCCSD pair energy                    -0.228026921837
  RCCSD correlation energy             -0.229825046374
  Triples (T) contribution             -0.006489243441
  Total correlation energy             -0.236314289815
 
  RHF-RCCSD energy                    -30.538721144656
  RHF-RCCSD[T] energy                 -30.545270610084
  RHF-RCCSD-T energy                  -30.545195708270
 !RHF-RCCSD(T) energy                 -30.545210388097

 Program statistics:

 Available memory in ccsd:               511999552
 Min. memory needed in ccsd:                724572
 Max. memory used in ccsd:                  931798
 Max. memory used in cckext:                789365 ( 9 integral passes)
 Max. memory used in cckint:               1932100 ( 1 integral passes)



 **********************************************************************************************************************************
 DATASETS  * FILE   NREC   LENGTH (MB)   RECORD NAMES
              1      20       23.01       500      610      700      900      950      970     1000      129      960     1100   
                                          VAR    BASINP    GEOM    SYMINP    ZMAT    AOBASIS   BASIS     P2S    ABASIS      S 
                                         1400     1410     1420     1200     1210     1080     1600     1650     1700     1380   
                                           T        V       ECP      H0       H01     AOSYM     SMH    MOLCAS    OPER     JKOP   

              2       8       14.00       200      700     1000      520     2100     4202     5202     2102   
                                        OPTIONS   GEOM     BASIS   MCVARS     RHF      RHF     MCSCF     RHF  

 PROGRAMS   *        TOTAL  RCCSD(T)       RHF     MULTI       POP       RHF  RCCSD(T)       RHF       INT
 CPU TIMES  *        29.83      2.85      0.03      0.58      0.01      0.53      2.75      0.35     22.53
 REAL TIME  *        37.09 SEC
 DISK USED  *       951.83 MB      
 SF USED    *       181.04 MB      
 GA USED    *         0.00 MB       (max)       0.00 MB       (current)
 **********************************************************************************************************************************
 SETTING CCSD(2)        =       -30.54521039  AU                              

 DO I                   =         3.00000000   

 Running procedure=I5S4D


 PROGRAM * RHF-SCF (OPEN SHELL)       Authors: W. Meyer, H.-J. Werner


 NUMBER OF ELECTRONS:       6+    4-    SPACE SYMMETRY=4    SPIN SYMMETRY: Triplet 
 CONVERGENCE THRESHOLDS:    1.00E-05 (Density)    1.00E-07 (Energy)
 MAX. NUMBER OF ITERATIONS:       60
 INTERPOLATION TYPE:            DIIS
 INTERPOLATION STEPS:              2 (START)      1 (STEP)
 LEVEL SHIFTS:                 -0.60 (CLOSED) -0.30 (OPEN) 

 Number of closed-shell orbitals:    4 (   1   1   1   0   1   0   0   0 )
 Number of open-shell orbitals:      2 (   1   0   0   1   0   0   0   0 )

 Singly occupied orbitals:      2.1       1.4
 
 Extra symmetries of mos in symmetry 1:   1   1   3   2
 Orbital guess generated from atomic densities. Full valence occupancy:    2   1   1   0   1   0   0   0


 Molecular orbital dump at record        4202.2

 ITERATION    DDIFF          GRAD             ENERGY        2-EL.EN.            DIPOLE MOMENTS         DIIS   ORB.
    1      0.000D+00      0.000D+00       -30.21623041     36.070524    0.00000    0.00000    0.00000    0    start
    2      0.000D+00      0.213D-02       -30.22400433     36.391427    0.00000    0.00000    0.00000    1    diag,B
    3      0.791D-02      0.123D-02       -30.23115498     36.685142    0.00000    0.00000    0.00000    2    diag,B
    4      0.630D-02      0.105D-02       -30.23859197     37.003377    0.00000    0.00000    0.00000    3    diag,B
    5      0.594D-02      0.102D-02       -30.24669941     37.364981    0.00000    0.00000    0.00000    4    diag,B
    6      0.481D-02      0.101D-02       -30.25795231     37.925400    0.00000    0.00000    0.00000    5    diag,B
    7      0.569D-02      0.953D-03       -30.27648778     39.095169    0.00000    0.00000    0.00000    6    fixocc
    8      0.147D-01      0.887D-03       -30.27671389     39.132905    0.00000    0.00000    0.00000    7    diag,B
    9      0.117D-02      0.840D-03       -30.27732135     39.246820    0.00000    0.00000    0.00000    8    diag,B
   10      0.277D-02      0.638D-03       -30.27794905     39.553923    0.00000    0.00000    0.00000    9    orth
   11      0.400D-02      0.293D-03       -30.27798063     39.615535    0.00000    0.00000    0.00000    9    diag,B
   12      0.857D-03      0.344D-03       -30.27804821     39.585531    0.00000    0.00000    0.00000    9    diag,B
   13      0.728D-03      0.165D-03       -30.27806763     39.574839    0.00000    0.00000    0.00000    9    diag,B
   14      0.660D-03      0.422D-04       -30.27806894     39.571218    0.00000    0.00000    0.00000    9    diag,B
   15      0.150D-03      0.142D-04       -30.27806912     39.567832    0.00000    0.00000    0.00000    9    diag,B
   16      0.905D-04      0.199D-05       -30.27806913     39.568203    0.00000    0.00000    0.00000    9    diag,B
   17      0.196D-04      0.855D-06       -30.27806913     39.568099    0.00000    0.00000    0.00000    9    diag,B
   18      0.439D-05      0.478D-06       -30.27806913     39.568093    0.00000    0.00000    0.00000    0    orth

 Final alpha occupancy:   2   1   1   1   1   0   0   0
 Final beta  occupancy:   1   1   1   0   1   0   0   0

 !RHF STATE 1.4 Energy                -30.278069134315
 Nuclear energy                         0.00000000
 One-electron energy                  -50.06211569
 Two-electron energy                   19.78404656
 Virial quotient                       -3.11076628
 !RHF STATE 1.4 Dipole moment           0.00000000     0.00000000     0.00000000
 Dipole moment /Debye                   0.00000000     0.00000000     0.00000000

 ELECTRON ORBITALS
 =================


   Orb  Occ    Energy  Couls-En    Coefficients

                                   1 1s      1 1s      1 1s      1 1s      1 1s      1 1s      1 1s      1 1s      1 1s      1 1s   
                                   1 1s      1 1s      1 1s      1 1s      1 1s      1 1s      1 1s      1 1s      1 1s      1 1s   
                                   1 1s      1 1s      1 1s      1 1s      1 1s      1 1s      1 1s      1 1s      1 1s      1 1s   
                                   1 1s      1 3d0     1 3d2+    1 3d0     1 3d2+    1 3d0     1 3d2+    1 3d0     1 3d2+    1 3d0  
                                   1 3d2+    1 3d0     1 3d2+    1 3d0     1 3d2+    1 3d0     1 3d2+    1 3d0     1 3d2+    1 3d0  
                                   1 3d2+    1 3d0     1 3d2+    1 3d0     1 3d2+    1 3d0     1 3d2+    1 3d0     1 3d2+    1 3d0  
                                   1 3d2+    1 3d0     1 3d2+    1 3d0     1 3d2+    1 3d0     1 3d2+ 

   1.1   2    -1.9126   -8.2373 -0.000000  0.000000 -0.000000  0.000000 -0.000000  0.000000 -0.000000  0.000001 -0.000003  0.000011
                                -0.000027  0.000079 -0.000182  0.000469 -0.000998  0.002276 -0.005356  0.014894 -0.049602  0.172959
                                -0.147044 -0.557109  0.695980  0.498193  0.388166  0.016165 -0.007204  0.002361 -0.570483  0.374506
                                -0.000594  0.000000  0.000000 -0.000000 -0.000000  0.000000  0.000000 -0.000000 -0.000000  0.000002
                                 0.000000 -0.000003 -0.000000  0.000018  0.000000 -0.000041 -0.000000 -0.000168  0.000000  0.000287
                                -0.000000  0.002033 -0.000000  0.000610  0.000000 -0.000322  0.000000 -0.000143 -0.000000 -0.000008
                                 0.000000  0.000537  0.000000  0.001163  0.000000 -0.000001  0.000000

   2.1   +    -0.1881   -2.5282  0.000000 -0.000000  0.000000 -0.000000  0.000000 -0.000000  0.000000 -0.000000  0.000001 -0.000003
                                 0.000006 -0.000018  0.000042 -0.000110  0.000231 -0.000538  0.001278 -0.003704  0.013113 -0.048498
                                 0.042452  0.183236 -0.532622  0.108518 -0.367019  0.310326  0.685347  0.206057  0.592312 -0.506959
                                 0.003921 -0.000000  0.000000  0.000000 -0.000000 -0.000000  0.000000  0.000000 -0.000000 -0.000002
                                 0.000000  0.000002 -0.000000 -0.000022  0.000000  0.000056 -0.000000  0.000208  0.000000 -0.000794
                                -0.000000 -0.002979 -0.000000 -0.004667 -0.000000 -0.000659  0.000000  0.002926 -0.000000 -0.000547
                                 0.000000 -0.000049  0.000000  0.000002  0.000000 -0.000300 -0.000000

   3.1   0     0.0350   -0.7789  0.000000 -0.000000  0.000000 -0.000000  0.000000 -0.000000  0.000000 -0.000000  0.000000 -0.000000
                                 0.000000 -0.000000  0.000000 -0.000000  0.000000 -0.000000  0.000000 -0.000000  0.000000 -0.000000
                                 0.000000 -0.000000  0.000002 -0.000002  0.000000 -0.000001  0.000001 -0.000002 -0.000003  0.000002
                                 0.000002 -0.000000 -0.000000  0.000000  0.000004 -0.000000 -0.000019  0.000000  0.000076 -0.000000
                                -0.000252  0.000000  0.000739 -0.000000 -0.001844  0.000000  0.004632 -0.000000 -0.014718  0.000000
                                 0.093274  0.000001  0.240342  0.000001  0.326747 -0.000001 -0.185733  0.000001  0.337676 -0.000002
                                -0.491940 -0.000001 -0.163210 -0.000002 -0.366513  0.000005  1.233560

   4.1   0     0.0328   -0.8158 -0.000000  0.000000 -0.000000  0.000000 -0.000000  0.000000 -0.000000  0.000000 -0.000000  0.000000
                                -0.000001  0.000004 -0.000009  0.000021 -0.000046  0.000095 -0.000208  0.000439 -0.000840  0.001716
                                -0.005152  0.021055 -0.351305  0.315157 -0.053915  0.085004 -0.207749  0.346996  0.466821 -0.413194
[...]
 !RHF STATE 1.1 Dipole moment           0.00000000     0.00000000     0.00000000
 Dipole moment /Debye                   0.00000000     0.00000000     0.00000000

 ELECTRON ORBITALS
 =================


   Orb  Occ    Energy  Couls-En    Coefficients

                                   1 1s      1 1s      1 1s      1 1s      1 1s      1 1s      1 1s      1 1s      1 1s      1 1s   
                                   1 1s      1 1s      1 1s      1 1s      1 1s      1 1s      1 1s      1 1s      1 1s      1 1s   
                                   1 1s      1 1s      1 1s      1 1s      1 1s      1 1s      1 1s      1 1s      1 1s      1 1s   
                                   1 1s      1 3d0     1 3d2+    1 3d0     1 3d2+    1 3d0     1 3d2+    1 3d0     1 3d2+    1 3d0  
                                   1 3d2+    1 3d0     1 3d2+    1 3d0     1 3d2+    1 3d0     1 3d2+    1 3d0     1 3d2+    1 3d0  
                                   1 3d2+    1 3d0     1 3d2+    1 3d0     1 3d2+    1 3d0     1 3d2+    1 3d0     1 3d2+    1 3d0  
                                   1 3d2+    1 3d0     1 3d2+    1 3d0     1 3d2+    1 3d0     1 3d2+ 

   1.1   2    -2.4466   -8.7782 -0.000000  0.000000 -0.000000  0.000000 -0.000000  0.000000 -0.000000  0.000001 -0.000004  0.000011
                                -0.000028  0.000080 -0.000185  0.000477 -0.001016  0.002313 -0.005437  0.015082 -0.050057  0.174202
                                -0.149064 -0.553878  0.601107  0.609626  0.370150  0.008192 -0.002797  0.000787 -0.443975  0.249301
                                -0.000153 -0.000000 -0.000000  0.000000  0.000000 -0.000000 -0.000000  0.000000  0.000000 -0.000000
                                -0.000000  0.000000  0.000000 -0.000000 -0.000000  0.000000  0.000000 -0.000000 -0.000000  0.000000
                                 0.000000  0.000000  0.000000  0.000000  0.000000 -0.000000 -0.000000  0.000000  0.000000 -0.000000
                                -0.000000 -0.000000 -0.000000 -0.000000 -0.000000  0.000000  0.000000

   2.1   0    -0.3828   -2.9515  0.000000 -0.000000  0.000000 -0.000000  0.000000 -0.000000  0.000000 -0.000000  0.000001 -0.000003
                                 0.000008 -0.000024  0.000056 -0.000145  0.000307 -0.000707  0.001668 -0.004729  0.016291 -0.059452
                                 0.054810  0.205782 -0.382016 -0.158926 -0.421602  0.723438  0.535872  0.008630  0.363708 -0.262792
                                 0.003457 -0.000000 -0.000000  0.000000  0.000000 -0.000000 -0.000000  0.000000  0.000000 -0.000000
                                -0.000000  0.000000  0.000000 -0.000000  0.000000  0.000000 -0.000000  0.000000 -0.000000 -0.000000
                                 0.000000 -0.000000  0.000000 -0.000000  0.000000 -0.000000  0.000000 -0.000000  0.000000 -0.000000
                                 0.000000 -0.000000  0.000000 -0.000000  0.000000  0.000000  0.000000

   3.1   0    -0.3069   -3.4375 -0.000000  0.000000 -0.000000  0.000000 -0.000000  0.000000 -0.000000  0.000000 -0.000000  0.000000
                                -0.000000  0.000000 -0.000000  0.000000 -0.000000  0.000000 -0.000000  0.000000 -0.000000  0.000000
                                 0.000000 -0.000000  0.000000 -0.000000  0.000000 -0.000000  0.000000 -0.000000 -0.000001  0.000001
                                 0.000000  0.000000  0.000000 -0.000001 -0.000000  0.000009  0.000002 -0.000020 -0.000004  0.000140
                                 0.000031 -0.000228 -0.000051  0.001723  0.000388 -0.004525 -0.001019 -0.012497 -0.002816  0.047415
                                 0.010682  0.168920  0.038057  0.269921  0.060813  0.352301  0.079373  0.292279  0.065850  0.070368
                                 0.015854  0.021385  0.004818  0.020771  0.004680 -0.001475 -0.000332

                                   1 2px     1 2px     1 2px     1 2px     1 2px     1 2px     1 2px     1 2px     1 2px     1 2px  
                                   1 2px     1 2px     1 2px     1 2px     1 2px     1 2px     1 2px     1 2px     1 2px     1 2px  
                                   1 2px     1 4f1+    1 4f3+    1 4f1+    1 4f3+    1 4f1+    1 4f3+ 

   1.2   2    -1.5877   -7.0036  0.000000 -0.000000  0.000000 -0.000000  0.000002 -0.000005  0.000027 -0.000054  0.000218 -0.000290
                                -0.001012  0.031902 -0.132524 -0.093672  0.551663  0.027669 -0.008069  0.003273  0.338535  0.276873
                                -0.000954  0.000000  0.000000 -0.000000  0.000000 -0.000000 -0.000000

   2.2   0    -0.2827   -2.3488 -0.000000  0.000000 -0.000000  0.000000 -0.000001  0.000003 -0.000012  0.000028 -0.000097  0.000177
                                 0.000018 -0.008262  0.037017  0.025574 -0.175923  0.333781  0.710864  0.103763 -0.103504 -0.163546
                                -0.003135 -0.000000  0.000000  0.000000 -0.000000  0.000000 -0.000000

   3.2   0    -0.1463   -1.2850  0.000000 -0.000000  0.000000 -0.000000  0.000001 -0.000002  0.000007 -0.000017  0.000059 -0.000105
                                -0.000022  0.005209 -0.023412 -0.015700  0.114205 -0.327348 -0.820838  1.084759  0.065268  0.117791
                                 0.367033  0.000000 -0.000000 -0.000000  0.000000 -0.000000  0.000000

                                   1 2py     1 2py     1 2py     1 2py     1 2py     1 2py     1 2py     1 2py     1 2py     1 2py  
                                   1 2py     1 2py     1 2py     1 2py     1 2py     1 2py     1 2py     1 2py     1 2py     1 2py  
                                   1 2py     1 4f1-    1 4f3-    1 4f1-    1 4f3-    1 4f1-    1 4f3- 

   1.3   2    -1.5877   -7.0036  0.000000 -0.000000  0.000000 -0.000000  0.000002 -0.000005  0.000027 -0.000054  0.000218 -0.000290
                                -0.001012  0.031902 -0.132524 -0.093672  0.551663  0.027669 -0.008069  0.003273  0.338535  0.276873
                                -0.000954  0.000000  0.000000 -0.000000  0.000000 -0.000000 -0.000000

   2.3   0    -0.2827   -2.3488 -0.000000  0.000000 -0.000000  0.000000 -0.000001  0.000003 -0.000012  0.000028 -0.000097  0.000177
                                 0.000018 -0.008262  0.037017  0.025574 -0.175923  0.333781  0.710864  0.103763 -0.103504 -0.163546
                                -0.003135 -0.000000  0.000000 -0.000000 -0.000000 -0.000000 -0.000000

   3.3   0    -0.1463   -1.2850  0.000000 -0.000000  0.000000 -0.000000  0.000001 -0.000002  0.000007 -0.000017  0.000059 -0.000105
                                -0.000022  0.005209 -0.023412 -0.015700  0.114205 -0.327348 -0.820838  1.084759  0.065268  0.117791
                                 0.367033 -0.000000  0.000000 -0.000000  0.000000  0.000000 -0.000000

                                   1 3d2-    1 3d2-    1 3d2-    1 3d2-    1 3d2-    1 3d2-    1 3d2-    1 3d2-    1 3d2-    1 3d2- 
                                   1 3d2-    1 3d2-    1 3d2-    1 3d2-    1 3d2-    1 3d2-    1 3d2-    1 3d2- 

   1.4   0    -0.3069   -3.4375  0.000000 -0.000001  0.000009 -0.000020  0.000143 -0.000234  0.001766 -0.004638 -0.012810  0.048603
                                 0.173154  0.276687  0.361132  0.299605  0.072131  0.021921  0.021292 -0.001512

   2.4   0    -0.1557   -1.5710 -0.000000  0.000000 -0.000002 -0.000001 -0.000036  0.000011 -0.000639  0.001732  0.008699 -0.039642
                                -0.126750 -0.202668 -0.178491 -0.062171  0.760698  0.013468  0.045707  0.338463

                                   1 2pz     1 2pz     1 2pz     1 2pz     1 2pz     1 2pz     1 2pz     1 2pz     1 2pz     1 2pz  
                                   1 2pz     1 2pz     1 2pz     1 2pz     1 2pz     1 2pz     1 2pz     1 2pz     1 2pz     1 2pz  
                                   1 2pz     1 4f0     1 4f2+    1 4f0     1 4f2+    1 4f0     1 4f2+ 

   1.5   2    -1.5877   -7.0036  0.000000 -0.000000  0.000000 -0.000000  0.000002 -0.000005  0.000027 -0.000054  0.000218 -0.000290
                                -0.001012  0.031902 -0.132524 -0.093672  0.551663  0.027669 -0.008069  0.003273  0.338535  0.276873
                                -0.000954 -0.000000  0.000000  0.000000  0.000000  0.000000 -0.000000

   2.5   0    -0.2827   -2.3488 -0.000000  0.000000 -0.000000  0.000000 -0.000001  0.000003 -0.000012  0.000028 -0.000097  0.000177
                                 0.000018 -0.008262  0.037017  0.025574 -0.175923  0.333781  0.710864  0.103763 -0.103504 -0.163546
                                -0.003135 -0.000000  0.000000  0.000000 -0.000000  0.000000 -0.000000

   3.5   0    -0.1463   -1.2850  0.000000 -0.000000  0.000000 -0.000000  0.000001 -0.000002  0.000007 -0.000017  0.000059 -0.000105
                                -0.000022  0.005209 -0.023412 -0.015700  0.114205 -0.327348 -0.820838  1.084759  0.065268  0.117791
                                 0.367033  0.000000 -0.000000 -0.000000  0.000000 -0.000000  0.000000

                                   1 3d1+    1 3d1+    1 3d1+    1 3d1+    1 3d1+    1 3d1+    1 3d1+    1 3d1+    1 3d1+    1 3d1+ 
                                   1 3d1+    1 3d1+    1 3d1+    1 3d1+    1 3d1+    1 3d1+    1 3d1+    1 3d1+ 

   1.6   0    -0.3069   -3.4375  0.000000 -0.000001  0.000009 -0.000020  0.000143 -0.000234  0.001766 -0.004638 -0.012810  0.048603
                                 0.173154  0.276687  0.361132  0.299605  0.072131  0.021921  0.021292 -0.001512

   2.6   0    -0.1557   -1.5710 -0.000000  0.000000 -0.000002 -0.000001 -0.000036  0.000011 -0.000639  0.001732  0.008699 -0.039642
                                -0.126750 -0.202668 -0.178491 -0.062171  0.760698  0.013468  0.045707  0.338463

                                   1 3d1-    1 3d1-    1 3d1-    1 3d1-    1 3d1-    1 3d1-    1 3d1-    1 3d1-    1 3d1-    1 3d1- 
                                   1 3d1-    1 3d1-    1 3d1-    1 3d1-    1 3d1-    1 3d1-    1 3d1-    1 3d1- 

   1.7   0    -0.3069   -3.4375  0.000000 -0.000001  0.000009 -0.000020  0.000143 -0.000234  0.001766 -0.004638 -0.012810  0.048603
                                 0.173154  0.276687  0.361132  0.299605  0.072131  0.021921  0.021292 -0.001512

   2.7   0    -0.1557   -1.5710 -0.000000  0.000000 -0.000002 -0.000001 -0.000036  0.000011 -0.000639  0.001732  0.008699 -0.039642
                                -0.126750 -0.202668 -0.178491 -0.062171  0.760698  0.013468  0.045707  0.338463

                                   1 4f2-    1 4f2-    1 4f2- 

   1.8   0    -0.0679   -1.7201 -0.026338  0.038046  1.012037

   2.8   0     0.3179   -1.8302  1.250623  0.063655 -0.798868

 HOMO      1.2    -1.587659 =     -43.2024eV
 LUMO      2.1    -0.382804 =     -10.4166eV
 LUMO-HOMO         1.204855 =      32.7858eV


 **********************************************************************************************************************************
 DATASETS  * FILE   NREC   LENGTH (MB)   RECORD NAMES
              1      20       24.25       500      610      700      900      950      970     1000      129      960     1100   
                                          VAR    BASINP    GEOM    SYMINP    ZMAT    AOBASIS   BASIS     P2S    ABASIS      S 
                                         1400     1410     1420     1200     1210     1080     1600     1650     1700     1380   
                                           T        V       ECP      H0       H01     AOSYM     SMH    MOLCAS    OPER     JKOP   

              2      13       25.21       200      700     1000      520     2100     4202     5202     2102     5202(1)  2104   
                                        OPTIONS   GEOM     BASIS   MCVARS     RHF      RHF     MCSCF     RHF     MCSCF     RHF  
                                         2105     2107     2108   
                                          RHF      RHF      RHF  

 PROGRAMS   *        TOTAL       RHF  RCCSD(T)       RHF     MULTI       POP       RHF  RCCSD(T)       RHF  RCCSD(T)       RHF
 CPU TIMES  *        40.62      0.43      2.20      0.18      0.41      0.00      0.56      2.18      0.46      2.95      0.04
 REAL TIME  *        61.89 SEC
 DISK USED  *       979.94 MB      
 SF USED    *       181.04 MB      
 GA USED    *         0.00 MB       (max)       0.00 MB       (current)
 **********************************************************************************************************************************
 SETTING SCF(6)         =       -29.78910877  AU                              
 SETTING _CC_NORM_MAX   =         2.00000000                                  


 PROGRAM * CCSD (Restricted open-shell coupled cluster)     Authors: C. Hampel, H.-J. Werner, 1991, M. Deegan, P.J. Knowles, 1992


 Convergence thresholds:  THRVAR = 1.00D-08  THRDEN = 1.00D-06

 CCSD(T)     terms to be evaluated (factor= 1.000)


 Number of closed-shell orbitals:   4 (   1   1   1   0   1   0   0   0 )
 Number of external orbitals:     201 (  66  26  26  18  26  18  18   3 )

 Memory could be reduced to 12.70 Mwords without degradation in triples

 Number of N-1 electron functions:               8
 Number of N-2 electron functions:              28
 Number of singly external CSFs:               288
 Number of doubly external CSFs:            118956
 Total number of CSFs:                      119244

 Molecular orbitals read from record     2108.2  Type=RHF/CANONICAL (state 1.1)

 Integral transformation finished. Total CPU:   0.23 sec, npass=  1  Memory used:   1.49 MW

 Starting RMP2 calculation

 Wavefunction is spin-projected

 ITER.      SQ.NORM     CORR.ENERGY   TOTAL ENERGY   ENERGY CHANGE        DEN1      VAR(S)    VAR(P)  DIIS     TIME
   1      1.04766499    -0.19194782   -29.98105659    -0.19194782    -0.00045413  0.39D-18  0.13D-03  1  1     0.26
   2      1.04795704    -0.19242748   -29.98153625    -0.00047966    -0.00000011  0.77D-22  0.29D-07  2  2     0.26
   3      1.04795944    -0.19242966   -29.98153843    -0.00000218    -0.00000000  0.71D-26  0.59D-11  3  3     0.30
   4      1.04795945    -0.19242966   -29.98153843    -0.00000000    -0.00000000  0.84D-29  0.17D-14  4  4     0.31

 Norm of t1 vector:      0.00000001      S-energy:    -0.00000000      T1 diagnostic:  0.00000000
 Norm of t2 vector:      0.21899646      P-energy:    -0.19242966
                                         Alpha-Beta:  -0.14522183
                                         Alpha-Alpha: -0.02360391
                                         Beta-Beta:   -0.02360391

 Spin contamination <S**2-Sz**2-Sz>     0.00000000
  Reference energy                    -29.789108771792
  RHF-RMP2 correlation energy          -0.192429659067
 !RHF-RMP2 energy                     -29.981538430859
 (NB above energy spin projected)

 Starting RCCSD calculation

 ITER.      SQ.NORM     CORR.ENERGY   TOTAL ENERGY   ENERGY CHANGE        DEN1      VAR(S)    VAR(P)  DIIS     TIME
   1      1.05264503    -0.20225146   -29.99136023    -0.20225146    -0.00340153  0.20D-04  0.74D-03  1  1     0.41
   2      1.05486664    -0.20593538   -29.99504415    -0.00368392    -0.00004341  0.32D-06  0.11D-04  2  2     0.50
   3      1.05502978    -0.20609115   -29.99519992    -0.00015577    -0.00000114  0.39D-08  0.29D-06  3  3     0.59
   4      1.05505586    -0.20611102   -29.99521979    -0.00001987    -0.00000002  0.46D-09  0.42D-08  4  4     0.68
   5      1.05505738    -0.20611192   -29.99522069    -0.00000090    -0.00000000  0.30D-11  0.87D-10  5  5     0.77

 Norm of t1 vector:      0.00466515      S-energy:     0.00000000      T1 diagnostic:  0.00116629
                                                                       D1 diagnostic:  0.00288122
 Norm of t2 vector:      0.23459671      P-energy:    -0.20611192
                                         Alpha-Beta:  -0.16034524
                                         Alpha-Alpha: -0.02288334
                                         Beta-Beta:   -0.02288334

 Spin contamination <S**2-Sz**2-Sz>     0.00000000

 Memory could be reduced to 12.32 Mwords without degradation in triples
 

  Correlated core orbitals:             1.1       1.2       1.3       1.5
  Orbital energies:                    -2.4466   -1.5877   -1.5877   -1.5877
 
  RCCSD core-core energy               -0.206111920271
 

 RESULTS
 =======

  Reference energy                    -29.789108771792
  RCCSD singles energy                  0.000000000099
  RCCSD pair energy                    -0.206111920370
  RCCSD correlation energy             -0.206111920271
  Triples (T) contribution             -0.004881165239
  Total correlation energy             -0.210993085510
 
  RHF-RCCSD energy                    -29.995220692063
  RHF-RCCSD[T] energy                 -30.000106300811
  RHF-RCCSD-T energy                  -30.000102429601
 !RHF-RCCSD(T) energy                 -30.000101857303

 Program statistics:

 Available memory in ccsd:               511999732
 Min. memory needed in ccsd:                514424
 Max. memory used in ccsd:                  638608
 Max. memory used in cckext:                582349 ( 5 integral passes)
 Max. memory used in cckint:               1485281 ( 1 integral passes)



 **********************************************************************************************************************************
 DATASETS  * FILE   NREC   LENGTH (MB)   RECORD NAMES
              1      20       24.25       500      610      700      900      950      970     1000      129      960     1100   
                                          VAR    BASINP    GEOM    SYMINP    ZMAT    AOBASIS   BASIS     P2S    ABASIS      S 
                                         1400     1410     1420     1200     1210     1080     1600     1650     1700     1380   
                                           T        V       ECP      H0       H01     AOSYM     SMH    MOLCAS    OPER     JKOP   

              2      13       25.21       200      700     1000      520     2100     4202     5202     2102     5202(1)  2104   
                                        OPTIONS   GEOM     BASIS   MCVARS     RHF      RHF     MCSCF     RHF     MCSCF     RHF  
                                         2105     2107     2108   
                                          RHF      RHF      RHF  

 PROGRAMS   *        TOTAL  RCCSD(T)       RHF  RCCSD(T)       RHF     MULTI       POP       RHF  RCCSD(T)       RHF  RCCSD(T)
 CPU TIMES  *        42.16      1.54      0.43      2.20      0.18      0.41      0.00      0.56      2.18      0.46      2.95
 REAL TIME  *        65.32 SEC
 DISK USED  *       979.94 MB      
 SF USED    *       181.04 MB      
 GA USED    *         0.00 MB       (max)       0.00 MB       (current)
 **********************************************************************************************************************************
 SETTING CCSD(6)        =       -30.00010186  AU                              
 Output type csv         
                                                                                                                                                                                                                                                                

       SCF,CCSD
   -30.34716771,   -30.61182406
   -30.30889610,   -30.54521039
   -30.27760688,   -30.52409415
   -30.17268002,   -30.40366512
   -30.10050756,   -30.33050843
   -29.78910877,   -30.00010186
                                                  

 RCCSD(T)/USERDEF energy=    -30.000101857303

        RCCSD(T)        RHF-SCF         RCCSD(T)        RHF-SCF         MULTI           RHF-SCF         RCCSD(T)        RHF-SCF 
    -30.00010186    -29.78910877    -30.33050843    -30.10050756    -30.10050756    -30.10131273    -30.40366512    -30.17268002
 **********************************************************************************************************************************
 Molpro calculation terminated
 Variable memory released
