<?xml version="1.0"?>
<molpro xmlns="http://www.molpro.net/schema/molpro-output"
  xmlns:xsd="http://www.w3.org/1999/XMLSchema"
  xmlns:cml="http://www.xml-cml.org/schema"
  xmlns:stm="http://www.xml-cml.org/schema"
  xmlns:xhtml="http://www.w3.org/1999/xhtml">
 <!--

 Nodes     nprocs
 nid01079    15
 Number of processes for MPI-2 version of Molpro:   nprocs(total)=   16   nprocs(compute)=   15   nprocs(helper)=    1

 Using customized tuning parameters: mindgm=7; mindgv=16; mindgc=1; mindgr=1; noblas=0; minvec=7
 default implementation of scratch files=sf

 --><job>
  <!--

 Variables initialized (889), CPU time= 0.02 sec
 Commands  initialized (702), CPU time= 0.01 sec, 572 directives.
 Default parameters read. Elapsed time= 0.18 sec

 Checking input...
 Passed
1


                                         ***  PROGRAM SYSTEM MOLPRO  ***
                                       Copyright, TTI GmbH Stuttgart, 2015
                                    Version 2015.1 linked Dec 29 2018 15:55:43


 **********************************************************************************************************************************
 LABEL *   W
  64 bit mpp version                                                                     DATE: 09-Dec-21          TIME: 21:01:15
 **********************************************************************************************************************************

 SHA1:             19cd028119e0e09f93f0674bd8af7968d9b3eff6
 **********************************************************************************************************************************
  -->
  <!--

 THRESHOLDS:

 ZERO    =  1.00D-12  ONEINT  =  1.00D-12  TWOINT  =  1.00D-12  PREFAC  =  1.00D-14  LOCALI  =  1.00D-09  EORDER  =  1.00D-04
 ENERGY  =  0.00D+00  ETEST   =  0.00D+00  EDENS   =  0.00D+00  THRDEDEF=  1.00D-06  GRADIENT=  1.00D-02  STEP    =  1.00D-03
 ORBITAL =  1.00D-05  CIVEC   =  1.00D-05  COEFF   =  1.00D-04  PRINTCI =  5.00D-02  PUNCHCI =  9.90D+01  OPTGRAD =  3.00D-04
 OPTENERG=  1.00D-06  OPTSTEP =  3.00D-04  THRGRAD =  1.00D-10  COMPRESS=  1.00D-11  VARMIN  =  1.00D-07  VARMAX  =  1.00D-03
 THRDOUB =  0.00D+00  THRDIV  =  1.00D-05  THRRED  =  1.00D-07  THRPSP  =  1.00D+00  THRDC   =  1.00D-10  THRCS   =  1.00D-10
 THRNRM  =  1.00D-08  THREQ   =  0.00D+00  THRDE   =  1.00D+00  THRREF  =  1.00D-05  SPARFAC =  1.00D+00  THRDLP  =  1.00D-07
 THRDIA  =  1.00D-10  THRDLS  =  1.00D-07  THRGPS  =  0.00D+00  THRKEX  =  0.00D+00  THRDIS  =  2.00D-01  THRVAR  =  1.00D-10
 THRLOC  =  1.00D-06  THRGAP  =  1.00D-06  THRLOCT = -1.00D+00  THRGAPT = -1.00D+00  THRORB  =  1.00D-06  THRMLTP =  0.00D+00
 THRCPQCI=  1.00D-10  KEXTA   =  0.00D+00  THRCOARS=  0.00D+00  SYMTOL  =  1.00D-06  GRADTOL =  1.00D-06  THROVL  =  1.00D-08
 THRORTH =  1.00D-08  GRID    =  1.00D-06  GRIDMAX =  1.00D-03  DTMAX   =  0.00D+00  THROCCDE=  1.00D-01  THROCCDE=  1.00D-01



 ZUNIT=ANG


Geometry recognized as XYZ

 SETTING S_PAR(1)       =         1.49740000
 SETTING S_PAR(2)       =         0.93730000
 SETTING P_PAR(1)       =         1.84380000
 SETTING P_PAR(2)       =         0.72860000
 SETTING D_PAR(1)       =         2.42580000
 SETTING D_PAR(2)       =         0.70930000
 SETTING F_PAR          =         1.51270000
 SETTING G_PAR          =         1.86430000

 Variable memory set to  512000000 words,  buffer space   230000 words

  --><jobstep command="MINIMIZE" commandset="MINIMIZE">
   <!--


 PROGRAM * MINIMIZE (General minimization)     Authors: H.-J. Werner, P.J. Knowles, K.A. Peterson

 Minimize EVAL with respect to:        S_PAR(1)  S_PAR(2)  P_PAR(1)  P_PAR(2)  D_PAR(1)
                                       D_PAR(2)  F_PAR(1)  G_PAR(1)
 Method BFGS will be used
 Variables are optimized in the space of (x/x0)


 Minimization using procedure=OPT_BASIS

 Running procedure=OPT_BASIS
 SETTING BASIS          =    USERDEF
   --><jobstep command="RHF-SCF" commandset="SCFPRO">
    <!--


 Current variables in basis input:

 Set= 1  S_PAR(1)            =       1.49740000
 Set= 1  S_PAR(2)            =       0.93730000
 Set= 1  P_PAR(1)            =       1.84380000
 Set= 1  P_PAR(2)            =       0.72860000
 Set= 1  D_PAR(1)            =       2.42580000
 Set= 1  D_PAR(2)            =       0.70930000
 Set= 1  F_PAR(1)            =       1.51270000
 Set= 1  G_PAR(1)            =       1.86430000

 Recomputing integrals since basis changed


 Using spherical harmonics



 PROGRAM * SEWARD (Integral evaluation for generally contracted gaussian basis sets)     Author: Roland Lindh, 1990

 Geometry written to block  1 of record 700

 Orientation using atomic masses
 Molecule type: Atom
 Symmetry elements: X,Y,Z
 Rotational constants:       0.0000000      0.0000000      0.0000000 GHz  (calculated with average atomic masses)

 Point group  D2h


    --><cml:molecule>
     <cml:symmetry pointGroup="D2h"/>
     <cml:atomArray>
      <cml:atom id="a1" elementType="W" x3="0.0" y3="0.0" z3="0.0"/>
     </cml:atomArray>
     <cml:bondArray>
     </cml:bondArray>
    </cml:molecule><!--

 ATOMIC COORDINATES

 NR  ATOM    CHARGE       X              Y              Z

   1  W      14.00    0.000000000    0.000000000    0.000000000


          W   CORE POTENTIAL

          g POTENTIAL

 POWERS             1              3              2              2
 EXPONENTIALS   10.18896       9.478240       10.14688       5.491651
 COEFFICIENTS   14.00000       142.6454      -100.0787     -0.9415780

          s - g POTENTIAL

 POWERS             2              2
 EXPONENTIALS   11.27396       8.410924
 COEFFICIENTS   420.4798       39.58494

          p - g POTENTIAL

 POWERS             2              2              4
 EXPONENTIALS   8.517824       1.608091       10.07349
 COEFFICIENTS   320.8772     -0.4728210      0.1129290

          d - g POTENTIAL

 POWERS             2              2              4
 EXPONENTIALS   6.059286       1.104853       6.262477
 COEFFICIENTS   158.0780     -0.2832990     -0.4594900

          f - g POTENTIAL

 POWERS             2              2
 EXPONENTIALS   2.075342       1.845947
 COEFFICIENTS   7.745405       6.916005


 BASIS DATA

   Nr Sym  Nuc  Type         Exponents   Contraction coefficients

    1.1 Ag    1  1s          74.376481    -0.001943    0.000543   -0.000723    0.001189    0.000000
    2.1 Ag                   39.115990     0.017833   -0.005268    0.007492   -0.012299    0.000000
    3.1 Ag                   20.571835    -0.117540    0.036666   -0.054596    0.090706    0.000000
    4.1 Ag                   10.819115     0.471463   -0.153622    0.233521   -0.397491    0.000000
    5.1 Ag                    5.689976    -0.655046    0.225025   -0.341100    0.605795    0.000000
                              2.992465    -0.399173    0.140074   -0.249111    0.501906    0.000000
                              1.573794     0.440734   -0.169850    0.263863   -0.857207    0.000000
                              0.827688     0.743098   -0.392735    0.951309   -2.459031    0.000000
                              0.435297     0.261234   -0.230076    0.314455    3.142185    0.000000
                              0.228931     0.028154    0.050209   -1.462869    1.378958    0.000000
                              0.120399    -0.001891    0.441577   -0.753064   -2.606927    0.000000
                              0.063320     0.001524    0.452557    0.479974   -0.912496    0.000000
                              0.033301    -0.000367    0.285977    0.913763    1.669934    1.000000
    6.1 Ag    1  1s           1.497400     1.000000
    7.1 Ag    1  1s           0.937300     1.000000
    8.1 Ag    1  3d0         61.907933    -0.000024
                             32.585172     0.000233
                             17.151169    -0.002245
                              9.027499     0.020877
                              4.751614    -0.090172
                              2.501007     0.023170
                              1.316402     0.205899
                              0.692887     0.321552
                              0.364700     0.323472
                              0.191960     0.230789
                              0.101038     0.111668
                              0.053181     0.026522
                              0.027992     0.001600
    9.1 Ag    1  3d2+        61.907933    -0.000024
                             32.585172     0.000233
                             17.151169    -0.002245
                              9.027499     0.020877
                              4.751614    -0.090172
                              2.501007     0.023170
                              1.316402     0.205899
                              0.692887     0.321552
                              0.364700     0.323472
                              0.191960     0.230789
                              0.101038     0.111668
                              0.053181     0.026522
                              0.027992     0.001600
   10.1 Ag    1  3d0         61.907933     0.000005
                             32.585172    -0.000160
                             17.151169     0.002296
                              9.027499    -0.024432
                              4.751614     0.112596
                              2.501007    -0.039514
                              1.316402    -0.295539
                              0.692887    -0.461445
                              0.364700    -0.080208
                              0.191960     0.499620
                              0.101038     0.418172
                              0.053181     0.115203
                              0.027992     0.006691
   11.1 Ag    1  3d2+        61.907933     0.000005
                             32.585172    -0.000160
                             17.151169     0.002296
                              9.027499    -0.024432
                              4.751614     0.112596
                              2.501007    -0.039514
                              1.316402    -0.295539
                              0.692887    -0.461445
                              0.364700    -0.080208
                              0.191960     0.499620
                              0.101038     0.418172
                              0.053181     0.115203
                              0.027992     0.006691
   12.1 Ag    1  3d0         61.907933    -0.000179
                             32.585172     0.000632
                             17.151169     0.000545
                              9.027499    -0.026852
                              4.751614     0.145145
                              2.501007    -0.035419
                              1.316402    -0.610909
                              0.692887    -0.499162
                              0.364700     1.209396
                              0.191960     0.263814
                              0.101038    -0.665665
                              0.053181    -0.302443
                              0.027992    -0.034465
   13.1 Ag    1  3d2+        61.907933    -0.000179
                             32.585172     0.000632
                             17.151169     0.000545
                              9.027499    -0.026852
                              4.751614     0.145145
                              2.501007    -0.035419
                              1.316402    -0.610909
                              0.692887    -0.499162
                              0.364700     1.209396
                              0.191960     0.263814
                              0.101038    -0.665665
                              0.053181    -0.302443
                              0.027992    -0.034465
   14.1 Ag    1  3d0         61.907933     0.000000
                             32.585172     0.000000
                             17.151169     0.000000
                              9.027499     0.000000
                              4.751614     0.000000
                              2.501007     0.000000
                              1.316402     0.000000
                              0.692887     0.000000
                              0.364700     0.000000
                              0.191960     0.000000
                              0.101038     0.000000
                              0.053181     0.000000
                              0.027992     1.000000
   15.1 Ag    1  3d2+        61.907933     0.000000
                             32.585172     0.000000
                             17.151169     0.000000
                              9.027499     0.000000
                              4.751614     0.000000
                              2.501007     0.000000
                              1.316402     0.000000
                              0.692887     0.000000
                              0.364700     0.000000
                              0.191960     0.000000
                              0.101038     0.000000
                              0.053181     0.000000
                              0.027992     1.000000
   16.1 Ag    1  3d0          2.425800     1.000000
   17.1 Ag    1  3d2+         2.425800     1.000000
   18.1 Ag    1  3d0          0.709300     1.000000
   19.1 Ag    1  3d2+         0.709300     1.000000
   20.1 Ag    1  5g0          1.347149     1.000000
   21.1 Ag    1  5g4+         1.347149     1.000000
   22.1 Ag    1  5g2+         1.347149     1.000000
   23.1 Ag    1  5g0          1.864300     1.000000
   24.1 Ag    1  5g4+         1.864300     1.000000
   25.1 Ag    1  5g2+         1.864300     1.000000
    1.2 B3u   1  2px         70.819882    -0.000490    0.000163    0.000303   -0.000287    0.000000
    2.2 B3u                  37.221301     0.003813   -0.001343   -0.002446   -0.000323    0.000000
    3.2 B3u                  19.562660    -0.025616    0.009623    0.017437    0.019041    0.000000
    4.2 B3u                  10.281684     0.138740   -0.054556   -0.100369   -0.154508    0.000000
    5.2 B3u                   5.403817    -0.324560    0.133038    0.254215    0.432420    0.000000
                              2.840122    -0.052031    0.016039    0.008313    0.127307    0.000000
                              1.492703     0.389641   -0.166103   -0.306300   -1.400487    0.000000
                              0.784530     0.505922   -0.285080   -0.886702   -0.505955    0.000000
                              0.412331     0.253444   -0.196871    0.536764    3.530620    0.000000
                              0.216712     0.053377    0.313765    1.436864   -2.620064    0.000000
                              0.113899     0.005287    0.600814   -0.560326   -0.404750    0.000000
                              0.059863     0.001309    0.278010   -0.664182    0.899083    0.000000
                              0.031462    -0.000050    0.026886   -0.091688    0.172905    1.000000
    6.2 B3u   1  2px          1.843800     1.000000
    7.2 B3u   1  2px          0.728600     1.000000
    8.2 B3u   1  4f1+         1.261537     1.000000
    9.2 B3u   1  4f3+         1.261537     1.000000
   10.2 B3u   1  4f1+         0.404300     1.000000
   11.2 B3u   1  4f3+         0.404300     1.000000
   12.2 B3u   1  4f1+         1.512700     1.000000
   13.2 B3u   1  4f3+         1.512700     1.000000
    1.3 B2u   1  2py         70.819882    -0.000490    0.000163    0.000303   -0.000287    0.000000
    2.3 B2u                  37.221301     0.003813   -0.001343   -0.002446   -0.000323    0.000000
    3.3 B2u                  19.562660    -0.025616    0.009623    0.017437    0.019041    0.000000
    4.3 B2u                  10.281684     0.138740   -0.054556   -0.100369   -0.154508    0.000000
    5.3 B2u                   5.403817    -0.324560    0.133038    0.254215    0.432420    0.000000
                              2.840122    -0.052031    0.016039    0.008313    0.127307    0.000000
                              1.492703     0.389641   -0.166103   -0.306300   -1.400487    0.000000
                              0.784530     0.505922   -0.285080   -0.886702   -0.505955    0.000000
                              0.412331     0.253444   -0.196871    0.536764    3.530620    0.000000
                              0.216712     0.053377    0.313765    1.436864   -2.620064    0.000000
                              0.113899     0.005287    0.600814   -0.560326   -0.404750    0.000000
                              0.059863     0.001309    0.278010   -0.664182    0.899083    0.000000
                              0.031462    -0.000050    0.026886   -0.091688    0.172905    1.000000
    6.3 B2u   1  2py          1.843800     1.000000
    7.3 B2u   1  2py          0.728600     1.000000
    8.3 B2u   1  4f1-         1.261537     1.000000
    9.3 B2u   1  4f3-         1.261537     1.000000
   10.3 B2u   1  4f1-         0.404300     1.000000
   11.3 B2u   1  4f3-         0.404300     1.000000
   12.3 B2u   1  4f1-         1.512700     1.000000
   13.3 B2u   1  4f3-         1.512700     1.000000
    1.4 B1g   1  3d2-        61.907933    -0.000024    0.000005   -0.000179    0.000000
    2.4 B1g                  32.585172     0.000233   -0.000160    0.000632    0.000000
    3.4 B1g                  17.151169    -0.002245    0.002296    0.000545    0.000000
    4.4 B1g                   9.027499     0.020877   -0.024432   -0.026852    0.000000
                              4.751614    -0.090172    0.112596    0.145145    0.000000
                              2.501007     0.023170   -0.039514   -0.035419    0.000000
                              1.316402     0.205899   -0.295539   -0.610909    0.000000
                              0.692887     0.321552   -0.461445   -0.499162    0.000000
                              0.364700     0.323472   -0.080208    1.209396    0.000000
                              0.191960     0.230789    0.499620    0.263814    0.000000
                              0.101038     0.111668    0.418172   -0.665665    0.000000
                              0.053181     0.026522    0.115203   -0.302443    0.000000
                              0.027992     0.001600    0.006691   -0.034465    1.000000
    5.4 B1g   1  3d2-         2.425800     1.000000
    6.4 B1g   1  3d2-         0.709300     1.000000
    7.4 B1g   1  5g2-         1.347149     1.000000
    8.4 B1g   1  5g4-         1.347149     1.000000
    9.4 B1g   1  5g2-         1.864300     1.000000
   10.4 B1g   1  5g4-         1.864300     1.000000
    1.5 B1u   1  2pz         70.819882    -0.000490    0.000163    0.000303   -0.000287    0.000000
    2.5 B1u                  37.221301     0.003813   -0.001343   -0.002446   -0.000323    0.000000
    3.5 B1u                  19.562660    -0.025616    0.009623    0.017437    0.019041    0.000000
    4.5 B1u                  10.281684     0.138740   -0.054556   -0.100369   -0.154508    0.000000
    5.5 B1u                   5.403817    -0.324560    0.133038    0.254215    0.432420    0.000000
                              2.840122    -0.052031    0.016039    0.008313    0.127307    0.000000
                              1.492703     0.389641   -0.166103   -0.306300   -1.400487    0.000000
                              0.784530     0.505922   -0.285080   -0.886702   -0.505955    0.000000
                              0.412331     0.253444   -0.196871    0.536764    3.530620    0.000000
                              0.216712     0.053377    0.313765    1.436864   -2.620064    0.000000
                              0.113899     0.005287    0.600814   -0.560326   -0.404750    0.000000
                              0.059863     0.001309    0.278010   -0.664182    0.899083    0.000000
                              0.031462    -0.000050    0.026886   -0.091688    0.172905    1.000000
    6.5 B1u   1  2pz          1.843800     1.000000
    7.5 B1u   1  2pz          0.728600     1.000000
    8.5 B1u   1  4f0          1.261537     1.000000
    9.5 B1u   1  4f2+         1.261537     1.000000
   10.5 B1u   1  4f0          0.404300     1.000000
   11.5 B1u   1  4f2+         0.404300     1.000000
   12.5 B1u   1  4f0          1.512700     1.000000
   13.5 B1u   1  4f2+         1.512700     1.000000
    1.6 B2g   1  3d1+        61.907933    -0.000024    0.000005   -0.000179    0.000000
    2.6 B2g                  32.585172     0.000233   -0.000160    0.000632    0.000000
    3.6 B2g                  17.151169    -0.002245    0.002296    0.000545    0.000000
    4.6 B2g                   9.027499     0.020877   -0.024432   -0.026852    0.000000
                              4.751614    -0.090172    0.112596    0.145145    0.000000
                              2.501007     0.023170   -0.039514   -0.035419    0.000000
                              1.316402     0.205899   -0.295539   -0.610909    0.000000
                              0.692887     0.321552   -0.461445   -0.499162    0.000000
                              0.364700     0.323472   -0.080208    1.209396    0.000000
                              0.191960     0.230789    0.499620    0.263814    0.000000
                              0.101038     0.111668    0.418172   -0.665665    0.000000
                              0.053181     0.026522    0.115203   -0.302443    0.000000
                              0.027992     0.001600    0.006691   -0.034465    1.000000
    5.6 B2g   1  3d1+         2.425800     1.000000
    6.6 B2g   1  3d1+         0.709300     1.000000
    7.6 B2g   1  5g1+         1.347149     1.000000
    8.6 B2g   1  5g3+         1.347149     1.000000
    9.6 B2g   1  5g1+         1.864300     1.000000
   10.6 B2g   1  5g3+         1.864300     1.000000
    1.7 B3g   1  3d1-        61.907933    -0.000024    0.000005   -0.000179    0.000000
    2.7 B3g                  32.585172     0.000233   -0.000160    0.000632    0.000000
    3.7 B3g                  17.151169    -0.002245    0.002296    0.000545    0.000000
    4.7 B3g                   9.027499     0.020877   -0.024432   -0.026852    0.000000
                              4.751614    -0.090172    0.112596    0.145145    0.000000
                              2.501007     0.023170   -0.039514   -0.035419    0.000000
                              1.316402     0.205899   -0.295539   -0.610909    0.000000
                              0.692887     0.321552   -0.461445   -0.499162    0.000000
                              0.364700     0.323472   -0.080208    1.209396    0.000000
                              0.191960     0.230789    0.499620    0.263814    0.000000
                              0.101038     0.111668    0.418172   -0.665665    0.000000
                              0.053181     0.026522    0.115203   -0.302443    0.000000
                              0.027992     0.001600    0.006691   -0.034465    1.000000
    5.7 B3g   1  3d1-         2.425800     1.000000
    6.7 B3g   1  3d1-         0.709300     1.000000
    7.7 B3g   1  5g1-         1.347149     1.000000
    8.7 B3g   1  5g3-         1.347149     1.000000
    9.7 B3g   1  5g1-         1.864300     1.000000
   10.7 B3g   1  5g3-         1.864300     1.000000
    1.8 Au    1  4f2-         1.261537     1.000000
    2.8 Au    1  4f2-         0.404300     1.000000
    3.8 Au    1  4f2-         1.512700     1.000000

 NUCLEAR CHARGE:                   14
 NUMBER OF PRIMITIVE AOS:         210
 NUMBER OF SYMMETRY AOS:          174
 NUMBER OF CONTRACTIONS:           97   (  25Ag  +  13B3u +  13B2u +  10B1g +  13B1u +  10B2g +  10B3g +   3Au  )
 NUMBER OF CORE ORBITALS:           4   (   1Ag  +   1B3u +   1B2u +   0B1g +   1B1u +   0B2g +   0B3g +   0Au  )
 NUMBER OF VALENCE ORBITALS:        6   (   3Ag  +   0B3u +   0B2u +   1B1g +   0B1u +   1B2g +   1B3g +   0Au  )


 NUCLEAR REPULSION ENERGY    0.00000000

 EXTRA SYMMETRY OF AOS IN SYMMETRY 1:   1 1 1 1 1 1 1 2 3 2   3 2 3 2 3 2 3 2 3 4   5 6 4 5 6
 EXTRA SYMMETRY OF AOS IN SYMMETRY 2:   1 1 1 1 1 1 1 2 3 2   3 2 3
 EXTRA SYMMETRY OF AOS IN SYMMETRY 3:   1 1 1 1 1 1 1 2 3 2   3 2 3
 EXTRA SYMMETRY OF AOS IN SYMMETRY 4:   1 1 1 1 1 1 2 3 2 3
 EXTRA SYMMETRY OF AOS IN SYMMETRY 5:   1 1 1 1 1 1 1 2 3 2   3 2 3
 EXTRA SYMMETRY OF AOS IN SYMMETRY 6:   1 1 1 1 1 1 2 3 2 3
 EXTRA SYMMETRY OF AOS IN SYMMETRY 7:   1 1 1 1 1 1 2 3 2 3

 Eigenvalues of metric

         1 0.591E-03 0.248E-02 0.506E-02 0.506E-02 0.697E-01 0.697E-01 0.697E-01 0.223E+00
         2 0.324E-02 0.119E-01 0.119E-01 0.733E-01 0.151E+00 0.693E+00 0.693E+00 0.100E+01
         3 0.324E-02 0.119E-01 0.119E-01 0.733E-01 0.151E+00 0.693E+00 0.693E+00 0.100E+01
         4 0.506E-02 0.697E-01 0.697E-01 0.273E+00 0.445E+00 0.118E+01 0.165E+01 0.193E+01
         5 0.324E-02 0.119E-01 0.119E-01 0.733E-01 0.151E+00 0.693E+00 0.693E+00 0.100E+01
         6 0.506E-02 0.697E-01 0.697E-01 0.273E+00 0.445E+00 0.118E+01 0.165E+01 0.193E+01
         7 0.506E-02 0.697E-01 0.697E-01 0.273E+00 0.445E+00 0.118E+01 0.165E+01 0.193E+01
         8 0.119E-01 0.693E+00 0.230E+01


 Contracted 2-electron integrals neglected if value below      1.0D-12
 AO integral compression algorithm  1   Integral accuracy      1.0D-12

     15.729 MB (compressed) written to integral file ( 74.2%)

     Node minimum: 0.262 MB, node maximum: 1.835 MB


 NUMBER OF SORTED TWO-ELECTRON INTEGRALS:     104989.     BUFFER LENGTH:  32768
 NUMBER OF SEGMENTS:   1  SEGMENT LENGTH:     104989      RECORD LENGTH: 524288

 Memory used in sort:       0.66 MW

 SORT1 READ     2746375. AND WROTE       79200. INTEGRALS IN      1 RECORDS. CPU TIME:     0.08 SEC, REAL TIME:     0.09 SEC
 SORT2 READ     1138997. AND WROTE     1497820. INTEGRALS IN     15 RECORDS. CPU TIME:     0.00 SEC, REAL TIME:     0.02 SEC

 Node minimum:       90690.  Node maximum:      108959. integrals

 OPERATOR DM      FOR CENTER  0  COORDINATES:    0.000000    0.000000    0.000000


 **********************************************************************************************************************************
 DATASETS  * FILE   NREC   LENGTH (MB)   RECORD NAMES
              1      19       19.97       500      610      700      900      950      970     1000      129      960     1100
                                          VAR    BASINP    GEOM    SYMINP    ZMAT    AOBASIS   BASIS     P2S    ABASIS      S
                                         1400     1410     1420     1200     1210     1080     1600     1650     1700
                                           T        V       ECP      H0       H01     AOSYM     SMH    MOLCAS    OPER

 PROGRAMS   *        TOTAL       INT
 CPU TIMES  *         1.58      1.28
 REAL TIME  *         2.33 SEC
 DISK USED  *        73.00 MB
 GA USED    *         0.00 MB       (max)       0.00 MB       (current)
 **********************************************************************************************************************************


 PROGRAM * RHF-SCF (OPEN SHELL)       Authors: W. Meyer, H.-J. Werner


 NUMBER OF ELECTRONS:       9+    5-    SPACE SYMMETRY=1    SPIN SYMMETRY: Quintet
 CONVERGENCE THRESHOLDS:    1.00E-05 (Density)    1.00E-07 (Energy)
 MAX. NUMBER OF ITERATIONS:       60
 INTERPOLATION TYPE:            DIIS
 INTERPOLATION STEPS:              2 (START)      1 (STEP)
 LEVEL SHIFTS:                 -0.60 (CLOSED) -0.30 (OPEN)

 Number of closed-shell orbitals:    5 (   2   1   1   0   1   0   0   0 )
 Number of open-shell orbitals:      4 (   1   0   0   1   0   1   1   0 )



 Extra symmetries of mos in symmetry 1:   1   1   3   2

   Atom=W  basis=cc-pVTZ-PP        lmin=0  lmax=2

 Orbital guess generated from atomic densities. Full valence occupancy:    4   1   1   1   1   1   1   0


 Molecular orbital dump at record        4202.2

 ITERATION    DDIFF          GRAD             ENERGY        2-EL.EN.            DIPOLE MOMENTS         DIIS   ORB.
    1      0.000D+00      0.000D+00       -66.65027381     89.855289    0.00000    0.00000    0.00000    0    start
    2      0.000D+00      0.989D-02       -66.68825551     92.163803    0.00000    0.00000    0.00000    1    diag,B
    3      0.607D-02      0.428D-02       -66.69297670     92.358373    0.00000    0.00000    0.00000    2    diag,B
    4      0.195D-02      0.211D-02       -66.69551232     92.546329    0.00000    0.00000    0.00000    3    diag,B
    5      0.340D-02      0.734D-03       -66.69596398     92.563696    0.00000    0.00000    0.00000    4    diag,B
    6      0.214D-02      0.407D-03       -66.69614187     92.529953    0.00000    0.00000    0.00000    5    diag,B
    7      0.172D-02      0.239D-03       -66.69622321     92.511579    0.00000    0.00000    0.00000    6    fixocc
    8      0.380D-02      0.147D-03       -66.69625990     92.507097    0.00000    0.00000    0.00000    7    diag,B
    9      0.222D-02      0.888D-04       -66.69627432     92.513354    0.00000    0.00000    0.00000    8    diag,B
   10      0.532D-03      0.440D-04       -66.69627793     92.520366    0.00000    0.00000    0.00000    9    orth
   11      0.108D-02      0.611D-05       -66.69627797     92.520684    0.00000    0.00000    0.00000    9    diag,B
   12      0.937D-04      0.385D-05       -66.69627800     92.520689    0.00000    0.00000    0.00000    9    diag,B
   13      0.119D-04      0.366D-05       -66.69627802     92.520682    0.00000    0.00000    0.00000    9    diag,B
   14      0.530D-05      0.368D-05       -66.69627804     92.520680    0.00000    0.00000    0.00000    0    orth

 Final alpha occupancy:   3   1   1   1   1   1   1   0
 Final beta  occupancy:   2   1   1   0   1   0   0   0

 !RHF STATE 1.1 Energy                -66.696278041119
    --><property name="Energy" method="RHF" principal="true" stateSymmetry="1" stateNumber="1"
      value="-66.6962780411194"/><!--
 Nuclear energy                         0.00000000
 One-electron energy                 -112.95661781
 Two-electron energy                   46.26033977
 Virial quotient                       -2.91905218
 !RHF STATE 1.1 Dipole moment           0.00000000     0.00000000     0.00000000
 Dipole moment /Debye                   0.00000000     0.00000000     0.00000000
    --><property name="Dipole moment" method="RHF" principal="true" stateSymmetry="1"
      stateNumber="1" value="0.0 0.0 0.0"/><!--

 ELECTRON ORBITALS
 =================


   Orb  Occ    Energy  Couls-En    Coefficients

                                   1 1s      1 1s      1 1s      1 1s      1 1s      1 1s      1 1s      1 3d0     1 3d2+    1 3d0
                                   1 3d2+    1 3d0     1 3d2+    1 3d0     1 3d2+    1 3d0     1 3d2+    1 3d0     1 3d2+    1 5g0
                                   1 5g4+    1 5g2+    1 5g0     1 5g4+    1 5g2+

   1.1   2    -3.4286  -14.5232  0.999986  0.000075 -0.000020  0.000021 -0.000040 -0.000033  0.000048  0.004960  0.000244 -0.002971
                                -0.000064 -0.001372 -0.000030 -0.000218 -0.000005  0.000292  0.000006 -0.002654 -0.000053 -0.001533
                                -0.000000  0.000021  0.000946  0.000000 -0.000013

   2.1   2    -0.2623   -4.6861 -0.000072  0.997553  0.000104 -0.000030  0.000341 -0.000029  0.000009  0.061686  0.002907  0.014219
                                 0.000376 -0.000552 -0.000039  0.002257  0.000071 -0.000160 -0.000002  0.001738  0.000033 -0.000467
                                 0.000000  0.000025 -0.000104 -0.000000 -0.000006

   3.1   +    -0.3612   -6.8033 -0.000271 -0.003827  0.000490  0.000019  0.000264  0.000020 -0.000051  0.009834  0.999925 -0.000001
                                -0.000231  0.000010  0.000042 -0.000005 -0.000021  0.000000 -0.000007 -0.000003  0.000021 -0.000059
                                 0.000010  0.006617  0.000025  0.000002 -0.002606

   4.1   0     0.0386   -5.0931  0.011960 -0.002090  0.012531  0.002141 -0.067983 -0.001619  0.008163  0.829623 -0.008360  0.125667
                                -0.001227 -0.027484  0.000279  0.344546 -0.003435 -0.001810  0.000018  0.016718 -0.000167 -0.001494
                                 0.000000 -0.000023  0.000694 -0.000000  0.000012

   5.1   0     0.0933   -1.7158 -0.000174 -0.001081 -0.000164 -0.000032  0.000898  0.000021 -0.000107 -0.001337 -0.133020 -0.001301
                                -0.130196  0.000602  0.060552  0.010818  1.087288  0.000070  0.007046 -0.000743 -0.074596  0.000007
                                -0.000004 -0.000681 -0.000003  0.000001  0.000226

                                   1 2px     1 2px     1 2px     1 2px     1 2px     1 2px     1 2px     1 4f1+    1 4f3+    1 4f1+
                                   1 4f3+    1 4f1+    1 4f3+

   1.2   2    -1.9238  -11.2680  0.999891 -0.000008 -0.000028 -0.000022  0.000009 -0.000046  0.000116  0.005859  0.000063  0.004197
                                 0.000001 -0.001864 -0.000020

   2.2   0     0.0278   -2.7219 -0.176708  0.108448  0.057115 -0.042156  0.968051 -0.032430  0.073519 -0.002211 -0.000027  0.006698
                                -0.000036  0.001629  0.000010

   3.2   0     0.1703   -2.6365  0.649732  1.832437 -0.608061  0.331079 -1.799161  0.211173 -0.573249 -0.002814 -0.000034  0.009334
                                -0.000051  0.002044  0.000010

                                   1 2py     1 2py     1 2py     1 2py     1 2py     1 2py     1 2py     1 4f1-    1 4f3-    1 4f1-
                                   1 4f3-    1 4f1-    1 4f3-

   1.3   2    -1.9236  -11.2676  0.999930  0.000056  0.000020 -0.000010  0.000009 -0.000027  0.000064  0.005816  0.000064  0.004102
                                 0.000002 -0.001847 -0.000020

   2.3   0     0.0278   -2.7227 -0.176645  0.108936  0.057072 -0.042114  0.967637 -0.032407  0.073462 -0.002209 -0.000028  0.006542
                                -0.000035  0.001617  0.000011

   3.3   0     0.1703   -2.6363  0.649621  1.832325 -0.607909  0.331023 -1.799298  0.211133 -0.573131 -0.002810 -0.000034  0.009111
                                -0.000049  0.002024  0.000011

                                   1 3d2-    1 3d2-    1 3d2-    1 3d2-    1 3d2-    1 3d2-    1 5g2-    1 5g4-    1 5g2-    1 5g4-


   1.4   +    -0.3612   -6.8033  0.999980 -0.000233  0.000042 -0.000022 -0.000007  0.000021  0.006616  0.000010 -0.002606  0.000002

   2.4   0     0.0933   -1.7158 -0.133025 -0.130202  0.060555  1.087342  0.007047 -0.074600 -0.000681 -0.000004  0.000226  0.000001

   3.4   0     0.4360   -2.8678 -0.361197  1.312579 -0.553667 -0.657187 -0.055490  0.552759 -0.002139 -0.000022  0.000580  0.000007

                                   1 2pz     1 2pz     1 2pz     1 2pz     1 2pz     1 2pz     1 2pz     1 4f0     1 4f2+    1 4f0
                                   1 4f2+    1 4f0     1 4f2+

   1.5   2    -1.9300  -11.2791  0.998443 -0.002275 -0.001697 -0.000535  0.000041 -0.000789  0.002130 -0.000958  0.000113 -0.005005
                                 0.000077  0.000654 -0.000038

   2.5   0     0.0261   -2.7354 -0.171179  0.120582  0.052611 -0.040264  0.955997 -0.031019  0.069708 -0.000883 -0.000036 -0.006822
                                 0.000083  0.000042  0.000023

   3.5   0     0.1689   -2.6253  0.650673  1.830517 -0.607016  0.329860 -1.803600  0.210685 -0.571705 -0.001077 -0.000044 -0.009433
                                 0.000113 -0.000109  0.000027

                                   1 3d1+    1 3d1+    1 3d1+    1 3d1+    1 3d1+    1 3d1+    1 5g1+    1 5g3+    1 5g1+    1 5g3+


   1.6   +    -0.3886   -6.8698  1.000307 -0.014080  0.003279 -0.001944 -0.000118  0.000058  0.000996  0.000069 -0.000267 -0.000024

   2.6   0     0.0926   -1.7153 -0.125582 -0.124487  0.058754  1.084608  0.006931 -0.073274 -0.000171 -0.000008  0.000041  0.000002

   3.6   0     0.4299   -2.8522 -0.341826  1.311315 -0.549385 -0.660264 -0.054692  0.545394 -0.000858 -0.000030  0.000243  0.000008

                                   1 3d1-    1 3d1-    1 3d1-    1 3d1-    1 3d1-    1 3d1-    1 5g1-    1 5g3-    1 5g1-    1 5g3-


   1.7   +    -0.3881   -6.8683  1.000309 -0.013744  0.003232 -0.001914 -0.000115  0.000053  0.000954  0.000070 -0.000247 -0.000024

   2.7   0     0.0927   -1.7153 -0.125736 -0.124612  0.058790  1.084668  0.006933 -0.073303 -0.000169 -0.000008  0.000040  0.000002

   3.7   0     0.4301   -2.8526 -0.342266  1.311342 -0.549486 -0.660198 -0.054709  0.545550 -0.000858 -0.000030  0.000244  0.000008

                                   1 4f2-    1 4f2-    1 4f2-

   1.8   0     1.0891   -3.4570 -0.344638  1.049403  0.303850

   2.8   0     3.6744    0.0464  3.321943 -0.764325 -2.146121

 HOMO      3.1    -0.361240 =      -9.8298eV
 LUMO      2.5     0.026133 =       0.7111eV
 LUMO-HOMO         0.387372 =      10.5409eV


 **********************************************************************************************************************************
 DATASETS  * FILE   NREC   LENGTH (MB)   RECORD NAMES
              1      19       19.98       500      610      700      900      950      970     1000      129      960     1100
                                          VAR    BASINP    GEOM    SYMINP    ZMAT    AOBASIS   BASIS     P2S    ABASIS      S
                                         1400     1410     1420     1200     1210     1080     1600     1650     1700
                                           T        V       ECP      H0       H01     AOSYM     SMH    MOLCAS    OPER

              2       5        3.07       200      700     1000      520     4202
                                        OPTIONS   GEOM     BASIS   MCVARS     RHF

 PROGRAMS   *        TOTAL       RHF       INT
 CPU TIMES  *         1.76      0.18      1.28
 REAL TIME  *         2.59 SEC
 DISK USED  *       422.87 MB
 SF USED    *         0.01 MB
 GA USED    *         0.00 MB       (max)       0.00 MB       (current)
 **********************************************************************************************************************************
    -->
    <time start="21:01:15" end="21:01:17" cpu="1.76" system="0.45" real="2.59"/>
    <storage units="megabyte" memory="4097.84" sf="0.01" df="349.86" eaf="73.0" ga="0.0"/>
   </jobstep><!--
   --><jobstep command="POP" commandset="POP">
    <!--


 PROGRAM * POP (Mulliken population analysis)


 Density matrix read from record         4202.2  Type=RHF/CHARGE (state 1.1)

 Population analysis by basis function type

 Unique atom        s        p        d        f        g    Total    Charge
   1  W       3.99143  5.99974  4.00853  0.00026  0.00004 14.00000  - 0.00000


 **********************************************************************************************************************************
 DATASETS  * FILE   NREC   LENGTH (MB)   RECORD NAMES
              1      19       19.98       500      610      700      900      950      970     1000      129      960     1100
                                          VAR    BASINP    GEOM    SYMINP    ZMAT    AOBASIS   BASIS     P2S    ABASIS      S
                                         1400     1410     1420     1200     1210     1080     1600     1650     1700
                                           T        V       ECP      H0       H01     AOSYM     SMH    MOLCAS    OPER

              2       5        3.07       200      700     1000      520     4202
                                        OPTIONS   GEOM     BASIS   MCVARS     RHF

 PROGRAMS   *        TOTAL       POP       RHF       INT
 CPU TIMES  *         1.76      0.00      0.18      1.28
 REAL TIME  *         2.61 SEC
 DISK USED  *       422.87 MB
 SF USED    *         0.01 MB
 GA USED    *         0.00 MB       (max)       0.00 MB       (current)
 **********************************************************************************************************************************
    -->
    <time start="21:01:17" end="21:01:17" cpu="0.0" system="0.01" real="0.02"/>
    <storage units="megabyte" memory="4097.84" sf="0.01" df="349.86" eaf="73.0" ga="0.0"/>
   </jobstep><!--
   --><jobstep command="MULTI" commandset="MULTI">
    <!--


 Current variables in basis input:

 Set= 1  S_PAR(1)            =       1.49740000
 Set= 1  S_PAR(2)            =       0.93730000
 Set= 1  P_PAR(1)            =       1.84380000
 Set= 1  P_PAR(2)            =       0.72860000
 Set= 1  D_PAR(1)            =       2.42580000
 Set= 1  D_PAR(2)            =       0.70930000
 Set= 1  F_PAR(1)            =       1.51270000
 Set= 1  G_PAR(1)            =       1.86430000

 PROGRAM * MULTI (Direct Multiconfiguration SCF)       Authors: P.J. Knowles, H.-J. Werner (1984)     S.T. Elbert (1988)


 Number of closed-shell orbitals:   5 (   2   1   1   0   1   0   0   0 )
 Number of active  orbitals:        5 (   2   0   0   1   0   1   1   0 )
 Number of external orbitals:      87 (  21  12  12   9  12   9   9   3 )

 State symmetry 1

 Number of electrons:     4    Spin symmetry=Quintet   Space symmetry=1
 Number of states:        2
 Number of CSFs:          2   (2 determinants, 5 intermediate states)

 State symmetry 2

 Number of electrons:     4    Spin symmetry=Quintet   Space symmetry=4
 Number of states:        1
 Number of CSFs:          1   (1 determinants, 5 intermediate states)

 State symmetry 3

 Number of electrons:     4    Spin symmetry=Quintet   Space symmetry=6
 Number of states:        1
 Number of CSFs:          1   (1 determinants, 5 intermediate states)

 State symmetry 4

 Number of electrons:     4    Spin symmetry=Quintet   Space symmetry=7
 Number of states:        1
 Number of CSFs:          1   (1 determinants, 5 intermediate states)

 Molecular orbitals read from record     4202.2  Type=RHF/CANONICAL (state 1.1)
 *** IN SYMMETRY 1 ORBITAL  1 SYMMETRY CONTAMINATION OF 0.151D-01 HAS BEEN REMOVED
 *** IN SYMMETRY 1 ORBITAL  2 SYMMETRY CONTAMINATION OF 0.782D-01 HAS BEEN REMOVED
 *** IN SYMMETRY 1 ORBITAL  3 SYMMETRY CONTAMINATION OF 0.235D-01 HAS BEEN REMOVED
 *** IN SYMMETRY 1 ORBITAL  4 SYMMETRY CONTAMINATION OF 0.832D-01 HAS BEEN REMOVED

 EXTRA SYMMETRY OF MOS IN SYMMETRY 1:   1 1 3 2 3 2 1 3 2 1   3 2 1 6 4 5 2 3 4 6   5 1 2 3 1
 *** IN SYMMETRY 2 ORBITAL  1 SYMMETRY CONTAMINATION OF 0.119D-01 HAS BEEN REMOVED
 EXTRA SYMMETRY OF MOS IN SYMMETRY 2:   1 1 1 1 3 2 1 2 3 1   2 3 1
 *** IN SYMMETRY 3 ORBITAL  1 SYMMETRY CONTAMINATION OF 0.117D-01 HAS BEEN REMOVED
 EXTRA SYMMETRY OF MOS IN SYMMETRY 3:   1 1 1 1 3 2 1 2 3 1   2 3 1
 *** IN SYMMETRY 4 ORBITAL  1 SYMMETRY CONTAMINATION OF 0.915D-02 HAS BEEN REMOVED
 EXTRA SYMMETRY OF MOS IN SYMMETRY 4:   1 1 1 1 2 3 1 2 3 1
 *** IN SYMMETRY 5 ORBITAL  1 SYMMETRY CONTAMINATION OF 0.676D-02 HAS BEEN REMOVED
 EXTRA SYMMETRY OF MOS IN SYMMETRY 5:   1 1 1 1 3 2 1 3 2 1   2 3 1
 *** IN SYMMETRY 6 ORBITAL  1 SYMMETRY CONTAMINATION OF 0.133D-02 HAS BEEN REMOVED
 EXTRA SYMMETRY OF MOS IN SYMMETRY 6:   1 1 1 1 3 2 1 2 3 1
 *** IN SYMMETRY 7 ORBITAL  1 SYMMETRY CONTAMINATION OF 0.127D-02 HAS BEEN REMOVED
 EXTRA SYMMETRY OF MOS IN SYMMETRY 7:   1 1 1 1 3 2 1 2 3 1

 Wavefunction dump at record             5202.2

 Convergence thresholds  0.10E-01 (gradient)  0.10E-05 (energy)  0.10E-02 (step length)

 Weight factors for state symmetry  1:    0.20000   0.20000
 Weight factors for state symmetry  2:    0.20000
 Weight factors for state symmetry  3:    0.20000
 Weight factors for state symmetry  4:    0.20000

 Number of orbital rotations:      151   (     4 Core/Active     78 Core/Virtual   0 Active/Active     69 Active/Virtual)
 Total number of variables:        158


 ITER. MIC  NCI  NEG     ENERGY(VAR)     ENERGY(PROJ)   ENERGY CHANGE     GRAD(0)  GRAD(ORB)   GRAD(CI)     STEP       TIME

   1   39   16    0     -66.64501559     -66.69391078   -0.04889519    0.13958224 0.00000000 0.00000000  0.42D+00      0.23
   2   15   20    0     -66.69371463     -66.69381298   -0.00009835    0.01240374 0.00000000 0.00000000  0.12D-01      0.41
   3   23   20    0     -66.69381321     -66.69381321   -0.00000000    0.00004110 0.00000000 0.00000000  0.42D-04      0.59

 ** WVFN ****  CONVERGENCE REACHED, FINAL GRADIENT:  0.59D-09



 Results for state 1.1
 =====================

 !MCSCF STATE 1.1 Energy              -66.693813206950
    --><property name="Energy" method="MCSCF" principal="true" stateSymmetry="1" stateNumber="1"
      value="-66.6938132069503"/><!--
 Nuclear energy                         0.00000000
 Kinetic energy                        22.84225229
 One electron energy                 -112.94629957
 Two electron energy                   46.25248636
 Virial ratio                           3.91975644

 !MCSCF STATE 1.1 Dipole moment         0.00000000     0.00000000     0.00000000
 Dipole moment /Debye                   0.00000000     0.00000000     0.00000000
    --><property name="Dipole moment" method="MCSCF" principal="true" stateSymmetry="1"
      stateNumber="1" value="0.0 0.0 0.0"/><!--

 Results for state 2.1
 =====================

 !MCSCF STATE 2.1 Energy              -66.693813206948
    --><property name="Energy" method="MCSCF" principal="true" stateSymmetry="1" stateNumber="2"
      value="-66.6938132069481"/><!--
 Nuclear energy                         0.00000000
 Kinetic energy                        22.84225229
 One electron energy                 -112.94629957
 Two electron energy                   46.25248636
 Virial ratio                           3.91975644

 !MCSCF STATE 2.1 Dipole moment         0.00000000     0.00000000     0.00000000
 Dipole moment /Debye                   0.00000000     0.00000000     0.00000000
    --><property name="Dipole moment" method="MCSCF" principal="true" stateSymmetry="1"
      stateNumber="2" value="0.0 0.0 0.0"/><!--



 Results for state 1.4
 =====================

 !MCSCF STATE 1.4 Energy              -66.693813206950
    --><property name="Energy" method="MCSCF" principal="true" stateSymmetry="4" stateNumber="1"
      value="-66.6938132069503"/><!--
 Nuclear energy                         0.00000000
 Kinetic energy                        22.84225229
 One electron energy                 -112.94629957
 Two electron energy                   46.25248636
 Virial ratio                           3.91975644

 !MCSCF STATE 1.4 Dipole moment         0.00000000     0.00000000     0.00000000
 Dipole moment /Debye                   0.00000000     0.00000000     0.00000000
    --><property name="Dipole moment" method="MCSCF" principal="true" stateSymmetry="4"
      stateNumber="1" value="0.0 0.0 0.0"/><!--



 Results for state 1.6
 =====================

 !MCSCF STATE 1.6 Energy              -66.693813206945
    --><property name="Energy" method="MCSCF" principal="true" stateSymmetry="6" stateNumber="1"
      value="-66.6938132069452"/><!--
 Nuclear energy                         0.00000000
 Kinetic energy                        22.84225229
 One electron energy                 -112.94629957
 Two electron energy                   46.25248636
 Virial ratio                           3.91975644

 !MCSCF STATE 1.6 Dipole moment         0.00000000     0.00000000     0.00000000
 Dipole moment /Debye                   0.00000000     0.00000000     0.00000000
    --><property name="Dipole moment" method="MCSCF" principal="true" stateSymmetry="6"
      stateNumber="1" value="0.0 0.0 0.0"/><!--



 Results for state 1.7
 =====================

 !MCSCF STATE 1.7 Energy              -66.693813206945
    --><property name="Energy" method="MCSCF" principal="true" stateSymmetry="7" stateNumber="1"
      value="-66.6938132069452"/><!--
 Nuclear energy                         0.00000000
 Kinetic energy                        22.84225229
 One electron energy                 -112.94629957
 Two electron energy                   46.25248636
 Virial ratio                           3.91975644

 !MCSCF STATE 1.7 Dipole moment         0.00000000     0.00000000     0.00000000
 Dipole moment /Debye                   0.00000000     0.00000000     0.00000000
    --><property name="Dipole moment" method="MCSCF" principal="true" stateSymmetry="7"
      stateNumber="1" value="0.0 0.0 0.0"/><!--

 State-averaged charge density matrix saved on record  5202.2 (density set 1)


 NATURAL ORBITALS (state averaged)
 =================================

   Orb     Occ        Energy       Coefficients

                                   1 1s      1 1s      1 1s      1 1s      1 1s      1 1s      1 1s      1 3d0     1 3d2+    1 3d0
                                   1 3d2+    1 3d0     1 3d2+    1 3d0     1 3d2+    1 3d0     1 3d2+    1 3d0     1 3d2+    1 5g0
                                   1 5g4+    1 5g2+    1 5g0     1 5g4+    1 5g2+

   1.1  2.00000    -3.429689     0.999980 -0.000013 -0.000003 -0.000004  0.000014 -0.000035  0.000047  0.000000  0.000000  0.000000
                                 0.000000  0.000000  0.000000  0.000000  0.000000  0.000000  0.000000  0.000000  0.000000  0.000000
                                 0.000000  0.000000  0.000000  0.000000  0.000000

   2.1  2.00000    -0.262208     0.000020  0.999194  0.000202 -0.000082  0.000902  0.000040 -0.000134  0.000000  0.000000  0.000000
                                 0.000000  0.000000  0.000000  0.000000  0.000000  0.000000  0.000000  0.000000  0.000000  0.000000
                                 0.000000  0.000000  0.000000  0.000000  0.000000

   3.1  0.80000    -0.057537     0.000000  0.000000  0.000000  0.000000  0.000000  0.000000  0.000000  1.000223  0.000000 -0.006983
                                 0.000000  0.001578  0.000000 -0.001018  0.000000 -0.000054  0.000000 -0.000007  0.000000  0.000000
                                 0.000000  0.000000  0.000000  0.000000  0.000000

   4.1  0.80000    -0.057537     0.000000  0.000000  0.000000  0.000000  0.000000  0.000000  0.000000  0.000000  1.000223  0.000000
                                -0.006983  0.000000  0.001578  0.000000 -0.001018  0.000000 -0.000054  0.000000 -0.000007  0.000000
                                 0.000000  0.000000  0.000000  0.000000  0.000000

                                   1 2px     1 2px     1 2px     1 2px     1 2px     1 2px     1 2px     1 4f1+    1 4f3+    1 4f1+
                                   1 4f3+    1 4f1+    1 4f3+

   1.2  2.00000    -1.926724     0.999442 -0.000825 -0.000628 -0.000205  0.000019 -0.000288  0.000772  0.000000  0.000000  0.000000
                                 0.000000  0.000000  0.000000

                                   1 2py     1 2py     1 2py     1 2py     1 2py     1 2py     1 2py     1 4f1-    1 4f3-    1 4f1-
                                   1 4f3-    1 4f1-    1 4f3-

   1.3  2.00000    -1.926724     0.999442 -0.000825 -0.000628 -0.000205  0.000019 -0.000288  0.000772  0.000000  0.000000  0.000000
                                 0.000000  0.000000  0.000000

                                   1 3d2-    1 3d2-    1 3d2-    1 3d2-    1 3d2-    1 3d2-    1 5g2-    1 5g4-    1 5g2-    1 5g4-


   1.4  0.80000    -0.057537     1.000223 -0.006983  0.001578 -0.001018 -0.000054 -0.000007  0.000000  0.000000  0.000000  0.000000

                                   1 2pz     1 2pz     1 2pz     1 2pz     1 2pz     1 2pz     1 2pz     1 4f0     1 4f2+    1 4f0
                                   1 4f2+    1 4f0     1 4f2+

   1.5  2.00000    -1.926724     0.999442 -0.000825 -0.000628 -0.000205  0.000019 -0.000288  0.000772  0.000000  0.000000  0.000000
                                 0.000000  0.000000  0.000000

                                   1 3d1+    1 3d1+    1 3d1+    1 3d1+    1 3d1+    1 3d1+    1 5g1+    1 5g3+    1 5g1+    1 5g3+


   1.6  0.80000    -0.057537     1.000223 -0.006983  0.001578 -0.001018 -0.000054 -0.000007  0.000000  0.000000  0.000000  0.000000

                                   1 3d1-    1 3d1-    1 3d1-    1 3d1-    1 3d1-    1 3d1-    1 5g1-    1 5g3-    1 5g1-    1 5g3-


   1.7  0.80000    -0.057537     1.000223 -0.006983  0.001578 -0.001018 -0.000054 -0.000007  0.000000  0.000000  0.000000  0.000000


 EXTRA SYMMETRY OF MOS IN SYMMETRY 1:   1 1 2 3 3 2 1 3 2 1   3 2 1 4 6 5 2 3 4 6   5 1 2 3 1
 EXTRA SYMMETRY OF MOS IN SYMMETRY 2:   1 1 1 1 2 3 1 2 3 1   2 3 1
 EXTRA SYMMETRY OF MOS IN SYMMETRY 3:   1 1 1 1 2 3 1 2 3 1   2 3 1
 EXTRA SYMMETRY OF MOS IN SYMMETRY 5:   1 1 1 1 2 3 1 3 2 1   2 3 1
 EXTRA SYMMETRY OF MOS IN SYMMETRY 6:   1 1 1 1 2 3 1 2 3 1
 EXTRA SYMMETRY OF MOS IN SYMMETRY 7:   1 1 1 1 2 3 1 2 3 1

 Natural orbital dump (state averaged) at molpro section  5202.2    (Orbital set 2)


 CI vector for state symmetry 1
 ==============================

 0a a a a         -0.0019834   0.9999980
 a0 a a a          0.9999980   0.0019834

 TOTAL ENERGIES                       -66.69381321   -66.69381321

 CI vector for state symmetry 2
 ==============================

 aa 0 a a          1.0000000

 TOTAL ENERGIES                       -66.69381321

 CI vector for state symmetry 3
 ==============================

 aa a 0 a          1.0000000

 TOTAL ENERGIES                       -66.69381321

 CI vector for state symmetry 4
 ==============================

 aa a a 0          1.0000000

 TOTAL ENERGIES                       -66.69381321



 **********************************************************************************************************************************
 DATASETS  * FILE   NREC   LENGTH (MB)   RECORD NAMES
              1      20       20.82       500      610      700      900      950      970     1000      129      960     1100
                                          VAR    BASINP    GEOM    SYMINP    ZMAT    AOBASIS   BASIS     P2S    ABASIS      S
                                         1400     1410     1420     1200     1210     1080     1600     1650     1700     1380
                                           T        V       ECP      H0       H01     AOSYM     SMH    MOLCAS    OPER     JKOP

              2       6        5.61       200      700     1000      520     4202     5202
                                        OPTIONS   GEOM     BASIS   MCVARS     RHF     MCSCF

 PROGRAMS   *        TOTAL     MULTI       POP       RHF       INT
 CPU TIMES  *         2.56      0.78      0.00      0.18      1.28
 REAL TIME  *         3.46 SEC
 DISK USED  *       422.87 MB
 SF USED    *        14.64 MB
 GA USED    *         0.00 MB       (max)       0.00 MB       (current)
 **********************************************************************************************************************************
    -->
    <time start="21:01:17" end="21:01:18" cpu="0.8" system="0.03" real="0.85"/>
    <storage units="megabyte" memory="4097.84" sf="14.64" df="349.86" eaf="73.0" ga="0.0"/>
   </jobstep><!--
   --><jobstep command="RHF-SCF" commandset="SCFPRO">
    <!--


 Current variables in basis input:

 Set= 1  S_PAR(1)            =       1.49740000
 Set= 1  S_PAR(2)            =       0.93730000
 Set= 1  P_PAR(1)            =       1.84380000
 Set= 1  P_PAR(2)            =       0.72860000
 Set= 1  D_PAR(1)            =       2.42580000
 Set= 1  D_PAR(2)            =       0.70930000
 Set= 1  F_PAR(1)            =       1.51270000
 Set= 1  G_PAR(1)            =       1.86430000

 PROGRAM * RHF-SCF (OPEN SHELL)       Authors: W. Meyer, H.-J. Werner


 NUMBER OF ELECTRONS:       9+    5-    SPACE SYMMETRY=1    SPIN SYMMETRY: Quintet
 CONVERGENCE THRESHOLDS:    1.00E-05 (Density)    1.00E-07 (Energy)
 MAX. NUMBER OF ITERATIONS:        0
 INTERPOLATION TYPE:            DIIS
 INTERPOLATION STEPS:              2 (START)      1 (STEP)
 LEVEL SHIFTS:                 -0.60 (CLOSED) -0.30 (OPEN)

 Number of closed-shell orbitals:    5 (   2   1   1   0   1   0   0   0 )
 Number of open-shell orbitals:      4 (   1   0   0   1   0   1   1   0 )


 Molecular orbitals read from record     5202.2  Type=MCSCF/NATURAL (state averaged)

 Molecular orbital dump at record        2101.2

 ITERATION    DDIFF          GRAD             ENERGY        2-EL.EN.            DIPOLE MOMENTS         DIIS   ORB.
    1      0.000D+00      0.000D+00       -66.69381321     92.504973    0.00000    0.00000    0.00000    0    start

 Final alpha occupancy:   3   1   1   1   1   1   1   0
 Final beta  occupancy:   2   1   1   0   1   0   0   0

 !RHF STATE 1.1 Energy                -66.693813206950
    --><property name="Energy" method="RHF" principal="true" stateSymmetry="1" stateNumber="1"
      value="-66.6938132069502"/><!--
 Nuclear energy                         0.00000000
 One-electron energy                 -112.94629957
 Two-electron energy                   46.25248636
 Virial quotient                       -2.91975644
 !RHF STATE 1.1 Dipole moment           0.00000000     0.00000000     0.00000000
 Dipole moment /Debye                   0.00000000     0.00000000     0.00000000
    --><property name="Dipole moment" method="RHF" principal="true" stateSymmetry="1"
      stateNumber="1" value="0.0 0.0 0.0"/><!--

 ELECTRON ORBITALS
 =================


   Orb  Occ    Energy  Couls-En    Coefficients

                                   1 1s      1 1s      1 1s      1 1s      1 1s      1 1s      1 1s      1 3d0     1 3d2+    1 3d0
                                   1 3d2+    1 3d0     1 3d2+    1 3d0     1 3d2+    1 3d0     1 3d2+    1 3d0     1 3d2+    1 5g0
                                   1 5g4+    1 5g2+    1 5g0     1 5g4+    1 5g2+

   1.1   2    -3.4297  -14.5244  0.999980 -0.000013 -0.000003 -0.000004  0.000014 -0.000035  0.000047  0.000000  0.000000  0.000000
                                 0.000000  0.000000  0.000000  0.000000  0.000000  0.000000  0.000000  0.000000  0.000000  0.000000
                                 0.000000  0.000000  0.000000  0.000000  0.000000

   2.1   2    -0.2622   -4.6795  0.000020  0.999194  0.000202 -0.000082  0.000902  0.000040 -0.000134  0.000000  0.000000  0.000000
                                 0.000000  0.000000  0.000000  0.000000  0.000000  0.000000  0.000000  0.000000  0.000000  0.000000
                                 0.000000  0.000000  0.000000  0.000000  0.000000

   3.1   +    -0.0575   -6.5189  0.000000  0.000000  0.000000  0.000000  0.000000  0.000000  0.000000  1.000223  0.000000 -0.006983
                                 0.000000  0.001578  0.000000 -0.001018  0.000000 -0.000054  0.000000 -0.000007  0.000000  0.000000
                                 0.000000  0.000000  0.000000  0.000000  0.000000

                                   1 2px     1 2px     1 2px     1 2px     1 2px     1 2px     1 2px     1 4f1+    1 4f3+    1 4f1+
                                   1 4f3+    1 4f1+    1 4f3+

   1.2   2    -1.9267  -11.2729  0.999442 -0.000825 -0.000628 -0.000205  0.000019 -0.000288  0.000772  0.000000  0.000000  0.000000
                                 0.000000  0.000000  0.000000

                                   1 2py     1 2py     1 2py     1 2py     1 2py     1 2py     1 2py     1 4f1-    1 4f3-    1 4f1-
                                   1 4f3-    1 4f1-    1 4f3-

   1.3   2    -1.9267  -11.2729  0.999442 -0.000825 -0.000628 -0.000205  0.000019 -0.000288  0.000772  0.000000  0.000000  0.000000
                                 0.000000  0.000000  0.000000

                                   1 3d2-    1 3d2-    1 3d2-    1 3d2-    1 3d2-    1 3d2-    1 5g2-    1 5g4-    1 5g2-    1 5g4-


   1.4   +    -0.0575   -6.5189  1.000223 -0.006983  0.001578 -0.001018 -0.000054 -0.000007  0.000000  0.000000  0.000000  0.000000

                                   1 2pz     1 2pz     1 2pz     1 2pz     1 2pz     1 2pz     1 2pz     1 4f0     1 4f2+    1 4f0
                                   1 4f2+    1 4f0     1 4f2+

   1.5   2    -1.9267  -11.2729  0.999442 -0.000825 -0.000628 -0.000205  0.000019 -0.000288  0.000772  0.000000  0.000000  0.000000
                                 0.000000  0.000000  0.000000

                                   1 3d1+    1 3d1+    1 3d1+    1 3d1+    1 3d1+    1 3d1+    1 5g1+    1 5g3+    1 5g1+    1 5g3+


   1.6   +    -0.0575   -6.5189  1.000223 -0.006983  0.001578 -0.001018 -0.000054 -0.000007  0.000000  0.000000  0.000000  0.000000

                                   1 3d1-    1 3d1-    1 3d1-    1 3d1-    1 3d1-    1 3d1-    1 5g1-    1 5g3-    1 5g1-    1 5g3-


   1.7   +    -0.0575   -6.5189  1.000223 -0.006983  0.001578 -0.001018 -0.000054 -0.000007  0.000000  0.000000  0.000000  0.000000

 HOMO      3.1    -0.057537 =      -1.5657eV
 LUMO      4.1    -0.057537 =      -1.5657eV
 LUMO-HOMO         0.000000 =       0.0000eV


 **********************************************************************************************************************************
 DATASETS  * FILE   NREC   LENGTH (MB)   RECORD NAMES
              1      20       20.82       500      610      700      900      950      970     1000      129      960     1100
                                          VAR    BASINP    GEOM    SYMINP    ZMAT    AOBASIS   BASIS     P2S    ABASIS      S
                                         1400     1410     1420     1200     1210     1080     1600     1650     1700     1380
                                           T        V       ECP      H0       H01     AOSYM     SMH    MOLCAS    OPER     JKOP

              2       7        8.19       200      700     1000      520     4202     5202     2101
                                        OPTIONS   GEOM     BASIS   MCVARS     RHF     MCSCF     RHF

 PROGRAMS   *        TOTAL       RHF     MULTI       POP       RHF       INT
 CPU TIMES  *         2.69      0.13      0.78      0.00      0.18      1.28
 REAL TIME  *         3.63 SEC
 DISK USED  *       422.87 MB
 SF USED    *        14.64 MB
 GA USED    *         0.00 MB       (max)       0.00 MB       (current)
 **********************************************************************************************************************************
    -->
    <time start="21:01:18" end="21:01:18" cpu="0.13" system="0.01" real="0.17"/>
    <storage units="megabyte" memory="4097.84" sf="14.64" df="349.86" eaf="73.0" ga="0.0"/>
   </jobstep><!--
   --><jobstep command="DATA" commandset="DATA">
    <!--


 RECORD   4202.2 RENAMED TO   4302.2


 **********************************************************************************************************************************
 DATASETS  * FILE   NREC   LENGTH (MB)   RECORD NAMES
              1      20       20.82       500      610      700      900      950      970     1000      129      960     1100
                                          VAR    BASINP    GEOM    SYMINP    ZMAT    AOBASIS   BASIS     P2S    ABASIS      S
                                         1400     1410     1420     1200     1210     1080     1600     1650     1700     1380
                                           T        V       ECP      H0       H01     AOSYM     SMH    MOLCAS    OPER     JKOP

              2       7        8.19       200      700     1000      520     4302     5202     2101
                                        OPTIONS   GEOM     BASIS   MCVARS     RHF     MCSCF     RHF

 PROGRAMS   *        TOTAL      DATA       RHF     MULTI       POP       RHF       INT
 CPU TIMES  *         2.70      0.00      0.13      0.78      0.00      0.18      1.28
 REAL TIME  *         3.63 SEC
 DISK USED  *       422.87 MB
 SF USED    *        14.64 MB
 GA USED    *         0.00 MB       (max)       0.00 MB       (current)
 **********************************************************************************************************************************
    -->
    <time start="21:01:18" end="21:01:18" cpu="0.01" system="0.0" real="0.0"/>
    <storage units="megabyte" memory="4097.84" sf="14.64" df="349.86" eaf="73.0" ga="0.0"/>
   </jobstep><!--
   --><jobstep command="DATA" commandset="DATA">
    <!--


 RECORD   5202.2 RENAMED TO   5302.2


 **********************************************************************************************************************************
 DATASETS  * FILE   NREC   LENGTH (MB)   RECORD NAMES
              1      20       20.82       500      610      700      900      950      970     1000      129      960     1100
                                          VAR    BASINP    GEOM    SYMINP    ZMAT    AOBASIS   BASIS     P2S    ABASIS      S
                                         1400     1410     1420     1200     1210     1080     1600     1650     1700     1380
                                           T        V       ECP      H0       H01     AOSYM     SMH    MOLCAS    OPER     JKOP

              2       7        8.19       200      700     1000      520     4302     5302     2101
                                        OPTIONS   GEOM     BASIS   MCVARS     RHF     MCSCF     RHF

 PROGRAMS   *        TOTAL      DATA      DATA       RHF     MULTI       POP       RHF       INT
 CPU TIMES  *         2.71      0.00      0.00      0.13      0.78      0.00      0.18      1.28
 REAL TIME  *         3.64 SEC
 DISK USED  *       422.87 MB
 SF USED    *        14.64 MB
 GA USED    *         0.00 MB       (max)       0.00 MB       (current)
 **********************************************************************************************************************************
    -->
    <time start="21:01:18" end="21:01:18" cpu="0.01" system="0.0" real="0.01"/>
    <storage units="megabyte" memory="4097.84" sf="14.64" df="349.86" eaf="73.0" ga="0.0"/>
   </jobstep><!--
   --><jobstep command="CI" commandset="CIPRO">
    <!--


 Current variables in basis input:

 Set= 1  S_PAR(1)            =       1.49740000
 Set= 1  S_PAR(2)            =       0.93730000
 Set= 1  P_PAR(1)            =       1.84380000
 Set= 1  P_PAR(2)            =       0.72860000
 Set= 1  D_PAR(1)            =       2.42580000
 Set= 1  D_PAR(2)            =       0.70930000
 Set= 1  F_PAR(1)            =       1.51270000
 Set= 1  G_PAR(1)            =       1.86430000

 PROGRAM * CI (Multireference internally contracted CI)     Authors: H.-J. Werner, P.J. Knowles, 1987


 Convergence thresholds:  THRVAR = 1.00D-08  THRDEN = 1.00D-06

 Number of optimized states:  1  Roots:   1
 Number of reference states:  1  Roots:   1

 Reference symmetry:                   1   Quintet
 Number of electrons:                 14
 Maximum number of shells:             3
 Maximum number of spin couplings:    20

 Reference space:        1 conf        1 CSFs
 N elec internal:       81 conf       81 CSFs
 N-1 el internal:      129 conf      309 CSFs
 N-2 el internal:       41 conf      331 CSFs

 Number of electrons in valence space:                     14
 Maximum number of open shell orbitals in reference space:  4
 Maximum number of open shell orbitals in internal spaces:  8


 Number of closed-shell orbitals:   5 (   2   1   1   0   1   0   0   0 )
 Number of active  orbitals:        4 (   1   0   0   1   0   1   1   0 )
 Number of external orbitals:      88 (  22  12  12   9  12   9   9   3 )

 Molecular orbitals read from record     2101.2  Type=RHF/CANONICAL (state 1.1)

 Coulomb and exchange operators available. No transformation done.

 Number of p-space configurations:   1

 Reference wavefunction optimized for reference space (refopt=1)

 State     Reference Energy
   1         -66.69381321

 Number of blocks in overlap matrix:    71   Smallest eigenvalue:  0.10D+01
 Number of N-2 electron functions:      71
 Number of N-1 electron functions:     309

 Number of internal configurations:                    9
 Number of singly external configurations:          3384
 Number of doubly external configurations:         35210
 Total number of contracted configurations:        38603
 Total number of uncontracted configurations:     167718

 Diagonal Coupling coefficients finished.               Storage:   24044 words, CPU-Time:      0.00 seconds.
 Energy denominators for pairs finished in 1 passes.    Storage:   31050 words, CPU-time:      0.03 seconds.

  ITER. STATE  ROOT     SQ.NORM     CORR.ENERGY   TOTAL ENERGY   ENERGY CHANGE       DEN1      VAR(S)    VAR(P)      TIME
    1     1     1     1.00000000     0.00000000   -66.69381321     0.00000000    -0.45664754  0.41D-01  0.11D+00     0.27
    2     1     1     1.09859792    -0.37216271   -67.06597592    -0.37216271    -0.01172516  0.26D-02  0.24D-02     0.34
    3     1     1     1.08850463    -0.38340015   -67.07721336    -0.01123744    -0.00021563  0.49D-04  0.66D-04     0.37
    4     1     1     1.08809806    -0.38364760   -67.07746080    -0.00024744    -0.00001164  0.40D-05  0.36D-05     0.41
    5     1     1     1.08828560    -0.38366091   -67.07747411    -0.00001331    -0.00000052  0.62D-07  0.22D-06     0.44
    6     1     1     1.08833247    -0.38366146   -67.07747466    -0.00000055    -0.00000002  0.26D-08  0.94D-08     0.48
    7     1     1     1.08834036    -0.38366148   -67.07747469    -0.00000002    -0.00000000  0.12D-09  0.45D-09     0.51


 =====================================
 Analysis of CPU times by interactions
 =====================================

       I      S      P

 I   2.0%
 S   2.0%  13.7%
 P  23.5%   7.8%   7.8%

 Initialization:  33.3%
 Other:            9.8%

 Total CPU:        0.5 seconds
 =====================================



 Reference coefficients greater than 0.0500000
 =============================================
 22/22/2//           0.9577131



 RESULTS FOR STATE 1.1
 =====================

 Coefficient of reference function:   C(0) = 0.95771308 (fixed)   0.95771308 (relaxed)

 Energy contributions of configuration classes

 CLASS          SQ.NORM        ECORR1        ECORR2
 +++++++++++++++++++++++++++++++++++++++++++++++++++
 Internals    0.00176171   -0.00438295   -0.00464005
 Singles      0.02087918   -0.08267796   -0.08318072
 Pairs        0.06761681   -0.29660057   -0.29584071
 Total        1.09025769   -0.38366148   -0.38366148
 +++++++++++++++++++++++++++++++++++++++++++++++++++


 Reference energy                     -66.69381321
 Nuclear energy                         0.00000000
 Kinetic energy                        23.07956706
 One electron energy                 -112.77361092
 Two electron energy                   45.69613623
 Virial quotient                       -2.90635758
 Correlation energy                    -0.38366148
 !CI(SD) STATE 1.1 Energy             -67.077474687029
    --><property name="Energy" method="CI(SD)" principal="true" stateSymmetry="1"
      stateNumber="1" value="-67.077474687029"/><!--

 Properties without orbital relaxation:

 !CI(SD) STATE 1.1 Dipole moment        0.00000000     0.00000000     0.00000000
 Dipole moment /Debye                   0.00000000     0.00000000     0.00000000
    --><property name="Dipole moment" method="CI(SD)" principal="true" stateSymmetry="1"
      stateNumber="1" value="0.0 0.0 0.0"/><!--

 Cluster corrected energies           -67.11210309 (Davidson, fixed reference)
 Cluster corrected energies           -67.11210309 (Davidson, relaxed reference)

 Cluster corrected energies           -67.10672098 (Pople, fixed reference)
 Cluster corrected energies           -67.10672098 (Pople, relaxed reference)



 **********************************************************************************************************************************
 DATASETS  * FILE   NREC   LENGTH (MB)   RECORD NAMES
              1      20       20.82       500      610      700      900      950      970     1000      129      960     1100
                                          VAR    BASINP    GEOM    SYMINP    ZMAT    AOBASIS   BASIS     P2S    ABASIS      S
                                         1400     1410     1420     1200     1210     1080     1600     1650     1700     1380
                                           T        V       ECP      H0       H01     AOSYM     SMH    MOLCAS    OPER     JKOP

              2       7        8.19       200      700     1000      520     4302     5302     2101
                                        OPTIONS   GEOM     BASIS   MCVARS     RHF     MCSCF     RHF

 PROGRAMS   *        TOTAL        CI      DATA      DATA       RHF     MULTI       POP       RHF       INT
 CPU TIMES  *         3.29      0.58      0.00      0.00      0.13      0.78      0.00      0.18      1.28
 REAL TIME  *         4.83 SEC
 DISK USED  *       422.87 MB
 SF USED    *        14.64 MB
 GA USED    *         0.00 MB       (max)       0.00 MB       (current)
 **********************************************************************************************************************************
    -->
    <time start="21:01:18" end="21:01:19" cpu="0.58" system="0.06" real="1.19"/>
    <storage units="megabyte" memory="4097.84" sf="14.64" df="349.86" eaf="73.0" ga="0.0"/>
   </jobstep><!--
 SETTING EVAL           =       -67.07747469  AU

 BFGS update of inverse hessian


 Calculating numerical derivatives: forward displacement for variable 1 of  8


 Running procedure=OPT_BASIS
 SETTING BASIS          =    USERDEF
   --><jobstep command="RHF-SCF" commandset="SCFPRO">
    <!--


 Current variables in basis input:

 Set= 1  S_PAR(1)            =       1.49889740
 Set= 1  S_PAR(2)            =       0.93730000
 Set= 1  P_PAR(1)            =       1.84380000
 Set= 1  P_PAR(2)            =       0.72860000
 Set= 1  D_PAR(1)            =       2.42580000
 Set= 1  D_PAR(2)            =       0.70930000
 Set= 1  F_PAR(1)            =       1.51270000
 Set= 1  G_PAR(1)            =       1.86430000

 Recomputing integrals since basis changed


 Using spherical harmonics



 PROGRAM * SEWARD (Integral evaluation for generally contracted gaussian basis sets)     Author: Roland Lindh, 1990

 Geometry written to block  1 of record 700

 Orientation using atomic masses
 Molecule type: Atom
 Symmetry elements: X,Y,Z
 Rotational constants:       0.0000000      0.0000000      0.0000000 GHz  (calculated with average atomic masses)

 Point group  D2h



 ATOMIC COORDINATES

 NR  ATOM    CHARGE       X              Y              Z

   1  W      14.00    0.000000000    0.000000000    0.000000000


          W   CORE POTENTIAL

          g POTENTIAL

 POWERS             1              3              2              2
 EXPONENTIALS   10.18896       9.478240       10.14688       5.491651
 COEFFICIENTS   14.00000       142.6454      -100.0787     -0.9415780

          s - g POTENTIAL

 POWERS             2              2
 EXPONENTIALS   11.27396       8.410924
 COEFFICIENTS   420.4798       39.58494

          p - g POTENTIAL

 POWERS             2              2              4
 EXPONENTIALS   8.517824       1.608091       10.07349
 COEFFICIENTS   320.8772     -0.4728210      0.1129290

          d - g POTENTIAL

 POWERS             2              2              4
 EXPONENTIALS   6.059286       1.104853       6.262477
 COEFFICIENTS   158.0780     -0.2832990     -0.4594900

          f - g POTENTIAL

 POWERS             2              2
 EXPONENTIALS   2.075342       1.845947
 COEFFICIENTS   7.745405       6.916005


 BASIS DATA

   Nr Sym  Nuc  Type         Exponents   Contraction coefficients

    1.1 Ag    1  1s          74.376481    -0.001943    0.000543   -0.000723    0.001189    0.000000
    2.1 Ag                   39.115990     0.017833   -0.005268    0.007492   -0.012299    0.000000
    3.1 Ag                   20.571835    -0.117540    0.036666   -0.054596    0.090706    0.000000
    4.1 Ag                   10.819115     0.471463   -0.153622    0.233521   -0.397491    0.000000
    5.1 Ag                    5.689976    -0.655046    0.225025   -0.341100    0.605795    0.000000
                              2.992465    -0.399173    0.140074   -0.249111    0.501906    0.000000
                              1.573794     0.440734   -0.169850    0.263863   -0.857207    0.000000
                              0.827688     0.743098   -0.392735    0.951309   -2.459031    0.000000
                              0.435297     0.261234   -0.230076    0.314455    3.142185    0.000000
                              0.228931     0.028154    0.050209   -1.462869    1.378958    0.000000
                              0.120399    -0.001891    0.441577   -0.753064   -2.606927    0.000000
                              0.063320     0.001524    0.452557    0.479974   -0.912496    0.000000
                              0.033301    -0.000367    0.285977    0.913763    1.669934    1.000000
    6.1 Ag    1  1s           1.498897     1.000000
    7.1 Ag    1  1s           0.937300     1.000000
    8.1 Ag    1  3d0         61.907933    -0.000024
                             32.585172     0.000233
                             17.151169    -0.002245
                              9.027499     0.020877
                              4.751614    -0.090172
                              2.501007     0.023170
                              1.316402     0.205899
                              0.692887     0.321552
                              0.364700     0.323472
                              0.191960     0.230789
                              0.101038     0.111668
                              0.053181     0.026522
                              0.027992     0.001600
    9.1 Ag    1  3d2+        61.907933    -0.000024
                             32.585172     0.000233
                             17.151169    -0.002245
                              9.027499     0.020877
                              4.751614    -0.090172
                              2.501007     0.023170
                              1.316402     0.205899
                              0.692887     0.321552
                              0.364700     0.323472
                              0.191960     0.230789
                              0.101038     0.111668
                              0.053181     0.026522
                              0.027992     0.001600
   10.1 Ag    1  3d0         61.907933     0.000005
                             32.585172    -0.000160
                             17.151169     0.002296
                              9.027499    -0.024432
                              4.751614     0.112596
                              2.501007    -0.039514
                              1.316402    -0.295539
                              0.692887    -0.461445
                              0.364700    -0.080208
                              0.191960     0.499620
                              0.101038     0.418172
                              0.053181     0.115203
                              0.027992     0.006691
   11.1 Ag    1  3d2+        61.907933     0.000005
                             32.585172    -0.000160
                             17.151169     0.002296
                              9.027499    -0.024432
                              4.751614     0.112596
                              2.501007    -0.039514
                              1.316402    -0.295539
                              0.692887    -0.461445
                              0.364700    -0.080208
                              0.191960     0.499620
                              0.101038     0.418172
                              0.053181     0.115203
                              0.027992     0.006691
   12.1 Ag    1  3d0         61.907933    -0.000179
                             32.585172     0.000632
                             17.151169     0.000545
                              9.027499    -0.026852
                              4.751614     0.145145
                              2.501007    -0.035419
                              1.316402    -0.610909
                              0.692887    -0.499162
                              0.364700     1.209396
                              0.191960     0.263814
                              0.101038    -0.665665
                              0.053181    -0.302443
                              0.027992    -0.034465
   13.1 Ag    1  3d2+        61.907933    -0.000179
                             32.585172     0.000632
                             17.151169     0.000545
                              9.027499    -0.026852
                              4.751614     0.145145
                              2.501007    -0.035419
                              1.316402    -0.610909
                              0.692887    -0.499162
                              0.364700     1.209396
[...]

                                   1 4f2-    1 4f2-    1 4f2-

   1.8   0     1.0891   -3.4570 -0.344638  1.049403  0.303850

   2.8   0     3.6744    0.0464  3.321943 -0.764325 -2.146121

 HOMO      3.1    -0.361240 =      -9.8298eV
 LUMO      2.5     0.026133 =       0.7111eV
 LUMO-HOMO         0.387373 =      10.5410eV


 **********************************************************************************************************************************
 DATASETS  * FILE   NREC   LENGTH (MB)   RECORD NAMES
              1      19       19.98       500      610      700      900      950      970     1002      129      960     1100
                                          VAR    BASINP    GEOM    SYMINP    ZMAT    AOBASIS   BASIS     P2S    ABASIS      S
                                         1400     1410     1420     1200     1210     1080     1600     1650     1700
                                           T        V       ECP      H0       H01     AOSYM     SMH    MOLCAS    OPER

              2      13       18.47       200      700     1000      520     4302     5302     2101     1001     4302     5302
                                        OPTIONS   GEOM     BASIS   MCVARS     RHF     MCSCF     RHF     BASIS     RHF     MCSCF
                                         2102     1002     4202
                                          RHF     BASIS     RHF

 PROGRAMS   *        TOTAL       RHF       INT        CI      DATA      DATA       RHF     MULTI       POP       RHF       INT
 CPU TIMES  *         7.79      0.16      1.37      0.62      0.00      0.00      0.04      0.73      0.00      0.21      1.29
 REAL TIME  *        10.79 SEC
 DISK USED  *       653.89 MB
 SF USED    *        14.64 MB
 GA USED    *         0.00 MB       (max)       0.00 MB       (current)
 **********************************************************************************************************************************
    -->
    <time start="21:01:23" end="21:01:25" cpu="1.55" system="0.08" real="1.74"/>
    <storage units="megabyte" memory="4097.84" sf="14.64" df="580.89" eaf="73.0" ga="0.0"/>
   </jobstep><!--
   --><jobstep command="POP" commandset="POP">
    <!--


 PROGRAM * POP (Mulliken population analysis)


 Density matrix read from record         4202.2  Type=RHF/CHARGE (state 1.1)

 Population analysis by basis function type

 Unique atom        s        p        d        f        g    Total    Charge
   1  W       3.99143  5.99974  4.00853  0.00026  0.00004 14.00000  - 0.00000


 **********************************************************************************************************************************
 DATASETS  * FILE   NREC   LENGTH (MB)   RECORD NAMES
              1      19       19.98       500      610      700      900      950      970     1002      129      960     1100
                                          VAR    BASINP    GEOM    SYMINP    ZMAT    AOBASIS   BASIS     P2S    ABASIS      S
                                         1400     1410     1420     1200     1210     1080     1600     1650     1700
                                           T        V       ECP      H0       H01     AOSYM     SMH    MOLCAS    OPER

              2      13       18.47       200      700     1000      520     4302     5302     2101     1001     4302     5302
                                        OPTIONS   GEOM     BASIS   MCVARS     RHF     MCSCF     RHF     BASIS     RHF     MCSCF
                                         2102     1002     4202
                                          RHF     BASIS     RHF

 PROGRAMS   *        TOTAL       POP       RHF       INT        CI      DATA      DATA       RHF     MULTI       POP       RHF
 CPU TIMES  *         7.80      0.00      0.16      1.37      0.62      0.00      0.00      0.04      0.73      0.00      0.21
 REAL TIME  *        10.81 SEC
 DISK USED  *       653.89 MB
 SF USED    *        14.64 MB
 GA USED    *         0.00 MB       (max)       0.00 MB       (current)
 **********************************************************************************************************************************
    -->
    <time start="21:01:25" end="21:01:25" cpu="0.01" system="0.0" real="0.02"/>
    <storage units="megabyte" memory="4097.84" sf="14.64" df="580.89" eaf="73.0" ga="0.0"/>
   </jobstep><!--
   --><jobstep command="MULTI" commandset="MULTI">
    <!--


 Current variables in basis input:

 Set= 1  S_PAR(1)            =       1.49590260
 Set= 1  S_PAR(2)            =       0.93730000
 Set= 1  P_PAR(1)            =       1.84380000
 Set= 1  P_PAR(2)            =       0.72860000
 Set= 1  D_PAR(1)            =       2.42580000
 Set= 1  D_PAR(2)            =       0.70930000
 Set= 1  F_PAR(1)            =       1.51270000
 Set= 1  G_PAR(1)            =       1.86430000

 PROGRAM * MULTI (Direct Multiconfiguration SCF)       Authors: P.J. Knowles, H.-J. Werner (1984)     S.T. Elbert (1988)


 Number of closed-shell orbitals:   5 (   2   1   1   0   1   0   0   0 )
 Number of active  orbitals:        5 (   2   0   0   1   0   1   1   0 )
 Number of external orbitals:      87 (  21  12  12   9  12   9   9   3 )

 State symmetry 1

 Number of electrons:     4    Spin symmetry=Quintet   Space symmetry=1
 Number of states:        2
 Number of CSFs:          2   (2 determinants, 5 intermediate states)

 State symmetry 2

 Number of electrons:     4    Spin symmetry=Quintet   Space symmetry=4
 Number of states:        1
 Number of CSFs:          1   (1 determinants, 5 intermediate states)

 State symmetry 3

 Number of electrons:     4    Spin symmetry=Quintet   Space symmetry=6
 Number of states:        1
 Number of CSFs:          1   (1 determinants, 5 intermediate states)

 State symmetry 4

 Number of electrons:     4    Spin symmetry=Quintet   Space symmetry=7
 Number of states:        1
 Number of CSFs:          1   (1 determinants, 5 intermediate states)

 Molecular orbitals read from record     4202.2  Type=RHF/CANONICAL (state 1.1)
 *** IN SYMMETRY 1 ORBITAL  1 SYMMETRY CONTAMINATION OF 0.152D-01 HAS BEEN REMOVED
 *** IN SYMMETRY 1 ORBITAL  2 SYMMETRY CONTAMINATION OF 0.785D-01 HAS BEEN REMOVED
 *** IN SYMMETRY 1 ORBITAL  3 SYMMETRY CONTAMINATION OF 0.250D-01 HAS BEEN REMOVED
 *** IN SYMMETRY 1 ORBITAL  4 SYMMETRY CONTAMINATION OF 0.841D-01 HAS BEEN REMOVED

 EXTRA SYMMETRY OF MOS IN SYMMETRY 1:   1 1 3 2 3 2 1 3 2 1   3 2 1 6 4 5 2 3 4 6   5 1 2 3 1
 *** IN SYMMETRY 2 ORBITAL  1 SYMMETRY CONTAMINATION OF 0.119D-01 HAS BEEN REMOVED
 EXTRA SYMMETRY OF MOS IN SYMMETRY 2:   1 1 1 1 3 2 1 2 3 1   2 3 1
 *** IN SYMMETRY 3 ORBITAL  1 SYMMETRY CONTAMINATION OF 0.117D-01 HAS BEEN REMOVED
 EXTRA SYMMETRY OF MOS IN SYMMETRY 3:   1 1 1 1 3 2 1 2 3 1   2 3 1
 *** IN SYMMETRY 4 ORBITAL  1 SYMMETRY CONTAMINATION OF 0.915D-02 HAS BEEN REMOVED
 EXTRA SYMMETRY OF MOS IN SYMMETRY 4:   1 1 1 1 2 3 1 2 3 1
 *** IN SYMMETRY 5 ORBITAL  1 SYMMETRY CONTAMINATION OF 0.678D-02 HAS BEEN REMOVED
 EXTRA SYMMETRY OF MOS IN SYMMETRY 5:   1 1 1 1 3 2 1 3 2 1   2 3 1
 *** IN SYMMETRY 6 ORBITAL  1 SYMMETRY CONTAMINATION OF 0.134D-02 HAS BEEN REMOVED
 EXTRA SYMMETRY OF MOS IN SYMMETRY 6:   1 1 1 1 3 2 1 2 3 1
 *** IN SYMMETRY 7 ORBITAL  1 SYMMETRY CONTAMINATION OF 0.128D-02 HAS BEEN REMOVED
 EXTRA SYMMETRY OF MOS IN SYMMETRY 7:   1 1 1 1 3 2 1 2 3 1

 Wavefunction dump at record             5202.2

 Convergence thresholds  0.10E-01 (gradient)  0.10E-05 (energy)  0.10E-02 (step length)

 Weight factors for state symmetry  1:    0.20000   0.20000
 Weight factors for state symmetry  2:    0.20000
 Weight factors for state symmetry  3:    0.20000
 Weight factors for state symmetry  4:    0.20000

 Number of orbital rotations:      151   (     4 Core/Active     78 Core/Virtual   0 Active/Active     69 Active/Virtual)
 Total number of variables:        158


 ITER. MIC  NCI  NEG     ENERGY(VAR)     ENERGY(PROJ)   ENERGY CHANGE     GRAD(0)  GRAD(ORB)   GRAD(CI)     STEP       TIME

   1   39   16    0     -66.64501495     -66.69391079   -0.04889584    0.13958308 0.00000000 0.00000000  0.42D+00      0.18
   2   15   20    0     -66.69371463     -66.69381298   -0.00009835    0.01240393 0.00000000 0.00000000  0.12D-01      0.39
   3   22   20    0     -66.69381321     -66.69381321   -0.00000000    0.00004110 0.00000000 0.00000000  0.42D-04      0.59

 ** WVFN ****  CONVERGENCE REACHED, FINAL GRADIENT:  0.59D-09



 Results for state 1.1
 =====================

 !MCSCF STATE 1.1 Energy              -66.693813206946
    --><property name="Energy" method="MCSCF" principal="true" stateSymmetry="1" stateNumber="1"
      value="-66.6938132069459"/><!--
 Nuclear energy                         0.00000000
 Kinetic energy                        22.84225243
 One electron energy                 -112.94629958
 Two electron energy                   46.25248638
 Virial ratio                           3.91975642

 !MCSCF STATE 1.1 Dipole moment         0.00000000     0.00000000     0.00000000
 Dipole moment /Debye                   0.00000000     0.00000000     0.00000000
    --><property name="Dipole moment" method="MCSCF" principal="true" stateSymmetry="1"
      stateNumber="1" value="0.0 0.0 0.0"/><!--

 Results for state 2.1
 =====================

 !MCSCF STATE 2.1 Energy              -66.693813206944
    --><property name="Energy" method="MCSCF" principal="true" stateSymmetry="1" stateNumber="2"
      value="-66.6938132069437"/><!--
 Nuclear energy                         0.00000000
 Kinetic energy                        22.84225243
 One electron energy                 -112.94629958
 Two electron energy                   46.25248638
 Virial ratio                           3.91975642

 !MCSCF STATE 2.1 Dipole moment         0.00000000     0.00000000     0.00000000
 Dipole moment /Debye                   0.00000000     0.00000000     0.00000000
    --><property name="Dipole moment" method="MCSCF" principal="true" stateSymmetry="1"
      stateNumber="2" value="0.0 0.0 0.0"/><!--



 Results for state 1.4
 =====================

 !MCSCF STATE 1.4 Energy              -66.693813206946
    --><property name="Energy" method="MCSCF" principal="true" stateSymmetry="4" stateNumber="1"
      value="-66.6938132069459"/><!--
 Nuclear energy                         0.00000000
 Kinetic energy                        22.84225243
 One electron energy                 -112.94629958
 Two electron energy                   46.25248638
 Virial ratio                           3.91975642

 !MCSCF STATE 1.4 Dipole moment         0.00000000     0.00000000     0.00000000
 Dipole moment /Debye                   0.00000000     0.00000000     0.00000000
    --><property name="Dipole moment" method="MCSCF" principal="true" stateSymmetry="4"
      stateNumber="1" value="0.0 0.0 0.0"/><!--



 Results for state 1.6
 =====================

 !MCSCF STATE 1.6 Energy              -66.693813206941
    --><property name="Energy" method="MCSCF" principal="true" stateSymmetry="6" stateNumber="1"
      value="-66.6938132069407"/><!--
 Nuclear energy                         0.00000000
 Kinetic energy                        22.84225243
 One electron energy                 -112.94629958
 Two electron energy                   46.25248638
 Virial ratio                           3.91975642

 !MCSCF STATE 1.6 Dipole moment         0.00000000     0.00000000     0.00000000
 Dipole moment /Debye                   0.00000000     0.00000000     0.00000000
    --><property name="Dipole moment" method="MCSCF" principal="true" stateSymmetry="6"
      stateNumber="1" value="0.0 0.0 0.0"/><!--



 Results for state 1.7
 =====================

 !MCSCF STATE 1.7 Energy              -66.693813206941
    --><property name="Energy" method="MCSCF" principal="true" stateSymmetry="7" stateNumber="1"
      value="-66.6938132069407"/><!--
 Nuclear energy                         0.00000000
 Kinetic energy                        22.84225243
 One electron energy                 -112.94629958
 Two electron energy                   46.25248638
 Virial ratio                           3.91975642

 !MCSCF STATE 1.7 Dipole moment         0.00000000     0.00000000     0.00000000
 Dipole moment /Debye                   0.00000000     0.00000000     0.00000000
    --><property name="Dipole moment" method="MCSCF" principal="true" stateSymmetry="7"
      stateNumber="1" value="0.0 0.0 0.0"/><!--

 State-averaged charge density matrix saved on record  5202.2 (density set 1)


 NATURAL ORBITALS (state averaged)
 =================================

   Orb     Occ        Energy       Coefficients

                                   1 1s      1 1s      1 1s      1 1s      1 1s      1 1s      1 1s      1 3d0     1 3d2+    1 3d0
                                   1 3d2+    1 3d0     1 3d2+    1 3d0     1 3d2+    1 3d0     1 3d2+    1 3d0     1 3d2+    1 5g0
                                   1 5g4+    1 5g2+    1 5g0     1 5g4+    1 5g2+

   1.1  2.00000    -3.429689     0.999981 -0.000012 -0.000002 -0.000004  0.000013 -0.000035  0.000046  0.000000  0.000000  0.000000
                                 0.000000  0.000000  0.000000  0.000000  0.000000  0.000000  0.000000  0.000000  0.000000  0.000000
                                 0.000000  0.000000  0.000000  0.000000  0.000000

   2.1  2.00000    -0.262208     0.000020  0.999194  0.000202 -0.000082  0.000902  0.000040 -0.000134  0.000000  0.000000  0.000000
                                 0.000000  0.000000  0.000000  0.000000  0.000000  0.000000  0.000000  0.000000  0.000000  0.000000
                                 0.000000  0.000000  0.000000  0.000000  0.000000

   3.1  0.80000    -0.057537     0.000000  0.000000  0.000000  0.000000  0.000000  0.000000  0.000000  1.000223  0.000000 -0.006983
                                 0.000000  0.001578  0.000000 -0.001018  0.000000 -0.000054  0.000000 -0.000007  0.000000  0.000000
                                 0.000000  0.000000  0.000000  0.000000  0.000000

   4.1  0.80000    -0.057537     0.000000  0.000000  0.000000  0.000000  0.000000  0.000000  0.000000  0.000000  1.000223  0.000000
                                -0.006983  0.000000  0.001578  0.000000 -0.001018  0.000000 -0.000054  0.000000 -0.000007  0.000000
                                 0.000000  0.000000  0.000000  0.000000  0.000000

                                   1 2px     1 2px     1 2px     1 2px     1 2px     1 2px     1 2px     1 4f1+    1 4f3+    1 4f1+
                                   1 4f3+    1 4f1+    1 4f3+

   1.2  2.00000    -1.926724     0.999442 -0.000825 -0.000628 -0.000205  0.000019 -0.000288  0.000772  0.000000  0.000000  0.000000
                                 0.000000  0.000000  0.000000

                                   1 2py     1 2py     1 2py     1 2py     1 2py     1 2py     1 2py     1 4f1-    1 4f3-    1 4f1-
                                   1 4f3-    1 4f1-    1 4f3-

   1.3  2.00000    -1.926724     0.999442 -0.000825 -0.000628 -0.000205  0.000019 -0.000288  0.000772  0.000000  0.000000  0.000000
                                 0.000000  0.000000  0.000000

                                   1 3d2-    1 3d2-    1 3d2-    1 3d2-    1 3d2-    1 3d2-    1 5g2-    1 5g4-    1 5g2-    1 5g4-


   1.4  0.80000    -0.057537     1.000223 -0.006983  0.001578 -0.001018 -0.000054 -0.000007  0.000000  0.000000  0.000000  0.000000

                                   1 2pz     1 2pz     1 2pz     1 2pz     1 2pz     1 2pz     1 2pz     1 4f0     1 4f2+    1 4f0
                                   1 4f2+    1 4f0     1 4f2+

   1.5  2.00000    -1.926724     0.999442 -0.000825 -0.000628 -0.000205  0.000019 -0.000288  0.000772  0.000000  0.000000  0.000000
                                 0.000000  0.000000  0.000000

                                   1 3d1+    1 3d1+    1 3d1+    1 3d1+    1 3d1+    1 3d1+    1 5g1+    1 5g3+    1 5g1+    1 5g3+


   1.6  0.80000    -0.057537     1.000223 -0.006983  0.001578 -0.001018 -0.000054 -0.000007  0.000000  0.000000  0.000000  0.000000

                                   1 3d1-    1 3d1-    1 3d1-    1 3d1-    1 3d1-    1 3d1-    1 5g1-    1 5g3-    1 5g1-    1 5g3-


   1.7  0.80000    -0.057537     1.000223 -0.006983  0.001578 -0.001018 -0.000054 -0.000007  0.000000  0.000000  0.000000  0.000000


 EXTRA SYMMETRY OF MOS IN SYMMETRY 1:   1 1 2 3 3 2 1 3 2 1   3 2 1 4 6 5 2 3 4 6   5 1 2 3 1
 EXTRA SYMMETRY OF MOS IN SYMMETRY 2:   1 1 1 1 2 3 1 2 3 1   2 3 1
 EXTRA SYMMETRY OF MOS IN SYMMETRY 3:   1 1 1 1 2 3 1 2 3 1   2 3 1
 EXTRA SYMMETRY OF MOS IN SYMMETRY 5:   1 1 1 1 2 3 1 3 2 1   2 3 1
 EXTRA SYMMETRY OF MOS IN SYMMETRY 6:   1 1 1 1 2 3 1 2 3 1
 EXTRA SYMMETRY OF MOS IN SYMMETRY 7:   1 1 1 1 2 3 1 2 3 1

 Natural orbital dump (state averaged) at molpro section  5202.2    (Orbital set 2)


 CI vector for state symmetry 1
 ==============================

 0a a a a         -0.0021699   0.9999976
 a0 a a a          0.9999976   0.0021699

 TOTAL ENERGIES                       -66.69381321   -66.69381321

 CI vector for state symmetry 2
 ==============================

 aa 0 a a          1.0000000

 TOTAL ENERGIES                       -66.69381321

 CI vector for state symmetry 3
 ==============================

 aa a 0 a          1.0000000

 TOTAL ENERGIES                       -66.69381321

 CI vector for state symmetry 4
 ==============================

 aa a a 0          1.0000000

 TOTAL ENERGIES                       -66.69381321



 **********************************************************************************************************************************
 DATASETS  * FILE   NREC   LENGTH (MB)   RECORD NAMES
              1      20       20.82       500      610      700      900      950      970     1002      129      960     1100
                                          VAR    BASINP    GEOM    SYMINP    ZMAT    AOBASIS   BASIS     P2S    ABASIS      S
                                         1400     1410     1420     1200     1210     1080     1600     1650     1700     1380
                                           T        V       ECP      H0       H01     AOSYM     SMH    MOLCAS    OPER     JKOP

              2      14       21.01       200      700     1000      520     4302     5302     2101     1001     4302     5302
                                        OPTIONS   GEOM     BASIS   MCVARS     RHF     MCSCF     RHF     BASIS     RHF     MCSCF
                                         2102     1002     4202     5202
                                          RHF     BASIS     RHF     MCSCF

 PROGRAMS   *        TOTAL     MULTI       POP       RHF       INT        CI      DATA      DATA       RHF     MULTI       POP
 CPU TIMES  *         8.57      0.76      0.00      0.16      1.37      0.62      0.00      0.00      0.04      0.73      0.00
 REAL TIME  *        11.61 SEC
 DISK USED  *       653.89 MB
 SF USED    *        14.64 MB
 GA USED    *         0.00 MB       (max)       0.00 MB       (current)
 **********************************************************************************************************************************
    -->
    <time start="21:01:25" end="21:01:26" cpu="0.77" system="0.01" real="0.8"/>
    <storage units="megabyte" memory="4097.84" sf="14.64" df="580.89" eaf="73.0" ga="0.0"/>
   </jobstep><!--
   --><jobstep command="RHF-SCF" commandset="SCFPRO">
    <!--


 Current variables in basis input:

 Set= 1  S_PAR(1)            =       1.49590260
 Set= 1  S_PAR(2)            =       0.93730000
 Set= 1  P_PAR(1)            =       1.84380000
 Set= 1  P_PAR(2)            =       0.72860000
 Set= 1  D_PAR(1)            =       2.42580000
 Set= 1  D_PAR(2)            =       0.70930000
 Set= 1  F_PAR(1)            =       1.51270000
 Set= 1  G_PAR(1)            =       1.86430000

 PROGRAM * RHF-SCF (OPEN SHELL)       Authors: W. Meyer, H.-J. Werner


 NUMBER OF ELECTRONS:       9+    5-    SPACE SYMMETRY=1    SPIN SYMMETRY: Quintet
