/global/cscratch1/sd/bkincaid/cutoffs/W/250-610/runs/scf_580

     Program PWSCF v.6.4.1 starts on 17Jan2022 at 19:51:55 

     This program is part of the open-source Quantum ESPRESSO suite
     for quantum simulation of materials; please cite
         "P. Giannozzi et al., J. Phys.:Condens. Matter 21 395502 (2009);
         "P. Giannozzi et al., J. Phys.:Condens. Matter 29 465901 (2017);
          URL http://www.quantum-espresso.org", 
     in publications or presentations arising from this work. More details at
     http://www.quantum-espresso.org/quote

     Parallel version (MPI & OpenMP), running on      32 processor cores
     Number of MPI processes:                32
     Threads/MPI process:                     1

     MPI processes distributed on     1 nodes
     R & G space division:  proc/nbgrp/npool/nimage =      32
     Reading input from scf_580.in

     Current dimensions of program PWSCF are:
     Max number of different atomic species (ntypx) = 10
     Max number of k-points (npk) =  40000
     Max angular momentum in pseudopotentials (lmaxx) =  3

     IMPORTANT: XC functional enforced from input :
     Exchange-correlation      = PBE ( 1  4  3  4 0 0)
     Any further DFT definition will be discarded
     Please, verify this is what you really want


     gamma-point specific algorithms are used

     Subspace diagonalization in iterative solution of the eigenvalue problem:
     one sub-group per band group will be used
     scalapack distributed-memory algorithm (size of sub-group:  4*  4 procs)

     Message from routine setup:
     DEPRECATED: symmetry with ibrav=0, use correct ibrav instead
 
     Parallelization info
     --------------------
     sticks:   dense  smooth     PW     G-vecs:    dense   smooth      PW
     Min        2966    2966    739               687670   687670   85944
     Max        2969    2969    742               687678   687678   85958
     Sum       94917   94917  23709             22005543 22005543 2750393
 


     bravais-lattice index     =            0
     lattice parameter (alat)  =      22.6767  a.u.
     unit-cell volume          =   11661.1222 (a.u.)^3
     number of atoms/cell      =            1
     number of atomic types    =            1
     number of electrons       =        14.00 (up:   9.00, down:   5.00)
     number of Kohn-Sham states=           12
     kinetic-energy cutoff     =     580.0000  Ry
     charge density cutoff     =    2320.0000  Ry
     convergence threshold     =      1.0E-06
     mixing beta               =       0.7000
     number of iterations used =            8  plain     mixing
     Exchange-correlation      = PBE ( 1  4  3  4 0 0)

     celldm(1)=  22.676714  celldm(2)=   0.000000  celldm(3)=   0.000000
     celldm(4)=   0.000000  celldm(5)=   0.000000  celldm(6)=   0.000000

     crystal axes: (cart. coord. in units of alat)
               a(1) = (   1.000000   0.000000   0.000000 )  
               a(2) = (   0.000000   1.000000   0.000000 )  
               a(3) = (   0.000000   0.000000   1.000000 )  

     reciprocal axes: (cart. coord. in units 2 pi/alat)
               b(1) = (  1.000000  0.000000  0.000000 )  
               b(2) = (  0.000000  1.000000  0.000000 )  
               b(3) = (  0.000000  0.000000  1.000000 )  


     PseudoPot. # 1 for W  read from file:
     ./W.upf
     MD5 check sum: 4ed05a8c0c5f577ff01fd4795b4ecf91
     Pseudo is Norm-conserving, Zval = 14.0
     Generated by new atomic code, or converted to UPF format
     Using radial grid of 1187 points,  3 beta functions with: 
                l(1) =   0
                l(2) =   2
                l(3) =   3

     atomic species   valence    mass     pseudopotential
        W             14.00   183.85000     W ( 1.00)

     Starting magnetic structure 
     atomic species   magnetization
        W            0.500

     48 Sym. Ops., with inversion, found


                                    s                        frac. trans.

      isym =  1     identity                                     

 cryst.   s( 1) = (     1          0          0      )
                  (     0          1          0      )
                  (     0          0          1      )

 cart.    s( 1) = (  1.0000000  0.0000000  0.0000000 )
                  (  0.0000000  1.0000000  0.0000000 )
                  (  0.0000000  0.0000000  1.0000000 )


      isym =  2     180 deg rotation - cart. axis [0,0,1]        

 cryst.   s( 2) = (    -1          0          0      )
                  (     0         -1          0      )
                  (     0          0          1      )

 cart.    s( 2) = ( -1.0000000  0.0000000  0.0000000 )
                  (  0.0000000 -1.0000000  0.0000000 )
                  (  0.0000000  0.0000000  1.0000000 )


      isym =  3     180 deg rotation - cart. axis [0,1,0]        

 cryst.   s( 3) = (    -1          0          0      )
                  (     0          1          0      )
                  (     0          0         -1      )

 cart.    s( 3) = ( -1.0000000  0.0000000  0.0000000 )
                  (  0.0000000  1.0000000  0.0000000 )
                  (  0.0000000  0.0000000 -1.0000000 )


      isym =  4     180 deg rotation - cart. axis [1,0,0]        

 cryst.   s( 4) = (     1          0          0      )
                  (     0         -1          0      )
                  (     0          0         -1      )

 cart.    s( 4) = (  1.0000000  0.0000000  0.0000000 )
                  (  0.0000000 -1.0000000  0.0000000 )
                  (  0.0000000  0.0000000 -1.0000000 )


      isym =  5     180 deg rotation - cart. axis [1,1,0]        

 cryst.   s( 5) = (     0          1          0      )
                  (     1          0          0      )
                  (     0          0         -1      )

 cart.    s( 5) = (  0.0000000  1.0000000  0.0000000 )
                  (  1.0000000  0.0000000  0.0000000 )
                  (  0.0000000  0.0000000 -1.0000000 )


      isym =  6     180 deg rotation - cart. axis [1,-1,0]       

 cryst.   s( 6) = (     0         -1          0      )
                  (    -1          0          0      )
                  (     0          0         -1      )

 cart.    s( 6) = (  0.0000000 -1.0000000  0.0000000 )
                  ( -1.0000000  0.0000000  0.0000000 )
                  (  0.0000000  0.0000000 -1.0000000 )


      isym =  7      90 deg rotation - cart. axis [0,0,-1]       

 cryst.   s( 7) = (     0         -1          0      )
                  (     1          0          0      )
                  (     0          0          1      )

 cart.    s( 7) = (  0.0000000  1.0000000  0.0000000 )
                  ( -1.0000000  0.0000000  0.0000000 )
                  (  0.0000000  0.0000000  1.0000000 )


      isym =  8      90 deg rotation - cart. axis [0,0,1]        

 cryst.   s( 8) = (     0          1          0      )
                  (    -1          0          0      )
                  (     0          0          1      )

 cart.    s( 8) = (  0.0000000 -1.0000000  0.0000000 )
                  (  1.0000000  0.0000000  0.0000000 )
                  (  0.0000000  0.0000000  1.0000000 )


      isym =  9     180 deg rotation - cart. axis [1,0,1]        

 cryst.   s( 9) = (     0          0          1      )
                  (     0         -1          0      )
                  (     1          0          0      )

 cart.    s( 9) = (  0.0000000  0.0000000  1.0000000 )
                  (  0.0000000 -1.0000000  0.0000000 )
                  (  1.0000000  0.0000000  0.0000000 )


      isym = 10     180 deg rotation - cart. axis [-1,0,1]       

 cryst.   s(10) = (     0          0         -1      )
                  (     0         -1          0      )
                  (    -1          0          0      )

 cart.    s(10) = (  0.0000000  0.0000000 -1.0000000 )
                  (  0.0000000 -1.0000000  0.0000000 )
                  ( -1.0000000  0.0000000  0.0000000 )


      isym = 11      90 deg rotation - cart. axis [0,1,0]        

 cryst.   s(11) = (     0          0         -1      )
                  (     0          1          0      )
                  (     1          0          0      )

 cart.    s(11) = (  0.0000000  0.0000000  1.0000000 )
                  (  0.0000000  1.0000000  0.0000000 )
                  ( -1.0000000  0.0000000  0.0000000 )


      isym = 12      90 deg rotation - cart. axis [0,-1,0]       

 cryst.   s(12) = (     0          0          1      )
                  (     0          1          0      )
                  (    -1          0          0      )

 cart.    s(12) = (  0.0000000  0.0000000 -1.0000000 )
                  (  0.0000000  1.0000000  0.0000000 )
                  (  1.0000000  0.0000000  0.0000000 )


      isym = 13     180 deg rotation - cart. axis [0,1,1]        

 cryst.   s(13) = (    -1          0          0      )
                  (     0          0          1      )
                  (     0          1          0      )

 cart.    s(13) = ( -1.0000000  0.0000000  0.0000000 )
                  (  0.0000000  0.0000000  1.0000000 )
                  (  0.0000000  1.0000000  0.0000000 )


      isym = 14     180 deg rotation - cart. axis [0,1,-1]       

 cryst.   s(14) = (    -1          0          0      )
                  (     0          0         -1      )
                  (     0         -1          0      )

 cart.    s(14) = ( -1.0000000  0.0000000  0.0000000 )
                  (  0.0000000  0.0000000 -1.0000000 )
                  (  0.0000000 -1.0000000  0.0000000 )


      isym = 15      90 deg rotation - cart. axis [-1,0,0]       

 cryst.   s(15) = (     1          0          0      )
                  (     0          0         -1      )
                  (     0          1          0      )

 cart.    s(15) = (  1.0000000  0.0000000  0.0000000 )
                  (  0.0000000  0.0000000  1.0000000 )
                  (  0.0000000 -1.0000000  0.0000000 )


      isym = 16      90 deg rotation - cart. axis [1,0,0]        

 cryst.   s(16) = (     1          0          0      )
                  (     0          0          1      )
                  (     0         -1          0      )

 cart.    s(16) = (  1.0000000  0.0000000  0.0000000 )
                  (  0.0000000  0.0000000 -1.0000000 )
                  (  0.0000000  1.0000000  0.0000000 )


      isym = 17     120 deg rotation - cart. axis [-1,-1,-1]     

 cryst.   s(17) = (     0          0          1      )
                  (     1          0          0      )
                  (     0          1          0      )

 cart.    s(17) = (  0.0000000  1.0000000  0.0000000 )
                  (  0.0000000  0.0000000  1.0000000 )
                  (  1.0000000  0.0000000  0.0000000 )


      isym = 18     120 deg rotation - cart. axis [-1,1,1]       

 cryst.   s(18) = (     0          0         -1      )
                  (    -1          0          0      )
                  (     0          1          0      )

 cart.    s(18) = (  0.0000000 -1.0000000  0.0000000 )
                  (  0.0000000  0.0000000  1.0000000 )
                  ( -1.0000000  0.0000000  0.0000000 )


      isym = 19     120 deg rotation - cart. axis [1,1,-1]       

 cryst.   s(19) = (     0          0         -1      )
                  (     1          0          0      )
                  (     0         -1          0      )

 cart.    s(19) = (  0.0000000  1.0000000  0.0000000 )
                  (  0.0000000  0.0000000 -1.0000000 )
                  ( -1.0000000  0.0000000  0.0000000 )


      isym = 20     120 deg rotation - cart. axis [1,-1,1]       

 cryst.   s(20) = (     0          0          1      )
                  (    -1          0          0      )
                  (     0         -1          0      )

 cart.    s(20) = (  0.0000000 -1.0000000  0.0000000 )
                  (  0.0000000  0.0000000 -1.0000000 )
                  (  1.0000000  0.0000000  0.0000000 )


      isym = 21     120 deg rotation - cart. axis [1,1,1]        

 cryst.   s(21) = (     0          1          0      )
                  (     0          0          1      )
                  (     1          0          0      )

 cart.    s(21) = (  0.0000000  0.0000000  1.0000000 )
                  (  1.0000000  0.0000000  0.0000000 )
                  (  0.0000000  1.0000000  0.0000000 )


      isym = 22     120 deg rotation - cart. axis [-1,1,-1]      

 cryst.   s(22) = (     0         -1          0      )
                  (     0          0         -1      )
                  (     1          0          0      )

 cart.    s(22) = (  0.0000000  0.0000000  1.0000000 )
                  ( -1.0000000  0.0000000  0.0000000 )
                  (  0.0000000 -1.0000000  0.0000000 )


      isym = 23     120 deg rotation - cart. axis [1,-1,-1]      

 cryst.   s(23) = (     0         -1          0      )
                  (     0          0          1      )
                  (    -1          0          0      )

 cart.    s(23) = (  0.0000000  0.0000000 -1.0000000 )
                  ( -1.0000000  0.0000000  0.0000000 )
                  (  0.0000000  1.0000000  0.0000000 )


      isym = 24     120 deg rotation - cart. axis [-1,-1,1]      

 cryst.   s(24) = (     0          1          0      )
                  (     0          0         -1      )
                  (    -1          0          0      )

 cart.    s(24) = (  0.0000000  0.0000000 -1.0000000 )
                  (  1.0000000  0.0000000  0.0000000 )
                  (  0.0000000 -1.0000000  0.0000000 )


      isym = 25     inversion                                    

 cryst.   s(25) = (    -1          0          0      )
                  (     0         -1          0      )
                  (     0          0         -1      )

 cart.    s(25) = ( -1.0000000  0.0000000  0.0000000 )
                  (  0.0000000 -1.0000000  0.0000000 )
                  (  0.0000000  0.0000000 -1.0000000 )


      isym = 26     inv. 180 deg rotation - cart. axis [0,0,1]   

 cryst.   s(26) = (     1          0          0      )
                  (     0          1          0      )
                  (     0          0         -1      )

 cart.    s(26) = (  1.0000000  0.0000000  0.0000000 )
                  (  0.0000000  1.0000000  0.0000000 )
                  (  0.0000000  0.0000000 -1.0000000 )


      isym = 27     inv. 180 deg rotation - cart. axis [0,1,0]   

 cryst.   s(27) = (     1          0          0      )
                  (     0         -1          0      )
                  (     0          0          1      )

 cart.    s(27) = (  1.0000000  0.0000000  0.0000000 )
                  (  0.0000000 -1.0000000  0.0000000 )
                  (  0.0000000  0.0000000  1.0000000 )


      isym = 28     inv. 180 deg rotation - cart. axis [1,0,0]   

 cryst.   s(28) = (    -1          0          0      )
                  (     0          1          0      )
                  (     0          0          1      )

 cart.    s(28) = ( -1.0000000  0.0000000  0.0000000 )
                  (  0.0000000  1.0000000  0.0000000 )
                  (  0.0000000  0.0000000  1.0000000 )


      isym = 29     inv. 180 deg rotation - cart. axis [1,1,0]   

 cryst.   s(29) = (     0         -1          0      )
                  (    -1          0          0      )
                  (     0          0          1      )

 cart.    s(29) = (  0.0000000 -1.0000000  0.0000000 )
                  ( -1.0000000  0.0000000  0.0000000 )
                  (  0.0000000  0.0000000  1.0000000 )


      isym = 30     inv. 180 deg rotation - cart. axis [1,-1,0]  

 cryst.   s(30) = (     0          1          0      )
                  (     1          0          0      )
                  (     0          0          1      )

 cart.    s(30) = (  0.0000000  1.0000000  0.0000000 )
                  (  1.0000000  0.0000000  0.0000000 )
                  (  0.0000000  0.0000000  1.0000000 )


      isym = 31     inv.  90 deg rotation - cart. axis [0,0,-1]  

 cryst.   s(31) = (     0          1          0      )
                  (    -1          0          0      )
                  (     0          0         -1      )

 cart.    s(31) = (  0.0000000 -1.0000000  0.0000000 )
                  (  1.0000000  0.0000000  0.0000000 )
                  (  0.0000000  0.0000000 -1.0000000 )


      isym = 32     inv.  90 deg rotation - cart. axis [0,0,1]   

 cryst.   s(32) = (     0         -1          0      )
                  (     1          0          0      )
                  (     0          0         -1      )

 cart.    s(32) = (  0.0000000  1.0000000  0.0000000 )
                  ( -1.0000000  0.0000000  0.0000000 )
                  (  0.0000000  0.0000000 -1.0000000 )


      isym = 33     inv. 180 deg rotation - cart. axis [1,0,1]   

 cryst.   s(33) = (     0          0         -1      )
                  (     0          1          0      )
                  (    -1          0          0      )

 cart.    s(33) = (  0.0000000  0.0000000 -1.0000000 )
                  (  0.0000000  1.0000000  0.0000000 )
                  ( -1.0000000  0.0000000  0.0000000 )


      isym = 34     inv. 180 deg rotation - cart. axis [-1,0,1]  

 cryst.   s(34) = (     0          0          1      )
                  (     0          1          0      )
                  (     1          0          0      )

 cart.    s(34) = (  0.0000000  0.0000000  1.0000000 )
                  (  0.0000000  1.0000000  0.0000000 )
                  (  1.0000000  0.0000000  0.0000000 )


      isym = 35     inv.  90 deg rotation - cart. axis [0,1,0]   

 cryst.   s(35) = (     0          0          1      )
                  (     0         -1          0      )
                  (    -1          0          0      )

 cart.    s(35) = (  0.0000000  0.0000000 -1.0000000 )
                  (  0.0000000 -1.0000000  0.0000000 )
                  (  1.0000000  0.0000000  0.0000000 )


      isym = 36     inv.  90 deg rotation - cart. axis [0,-1,0]  

 cryst.   s(36) = (     0          0         -1      )
                  (     0         -1          0      )
                  (     1          0          0      )

 cart.    s(36) = (  0.0000000  0.0000000  1.0000000 )
                  (  0.0000000 -1.0000000  0.0000000 )
                  ( -1.0000000  0.0000000  0.0000000 )


      isym = 37     inv. 180 deg rotation - cart. axis [0,1,1]   

 cryst.   s(37) = (     1          0          0      )
                  (     0          0         -1      )
                  (     0         -1          0      )

 cart.    s(37) = (  1.0000000  0.0000000  0.0000000 )
                  (  0.0000000  0.0000000 -1.0000000 )
                  (  0.0000000 -1.0000000  0.0000000 )


      isym = 38     inv. 180 deg rotation - cart. axis [0,1,-1]  

 cryst.   s(38) = (     1          0          0      )
                  (     0          0          1      )
                  (     0          1          0      )

 cart.    s(38) = (  1.0000000  0.0000000  0.0000000 )
                  (  0.0000000  0.0000000  1.0000000 )
                  (  0.0000000  1.0000000  0.0000000 )


      isym = 39     inv.  90 deg rotation - cart. axis [-1,0,0]  

 cryst.   s(39) = (    -1          0          0      )
                  (     0          0          1      )
                  (     0         -1          0      )

 cart.    s(39) = ( -1.0000000  0.0000000  0.0000000 )
                  (  0.0000000  0.0000000 -1.0000000 )
                  (  0.0000000  1.0000000  0.0000000 )


      isym = 40     inv.  90 deg rotation - cart. axis [1,0,0]   

 cryst.   s(40) = (    -1          0          0      )
                  (     0          0         -1      )
                  (     0          1          0      )

 cart.    s(40) = ( -1.0000000  0.0000000  0.0000000 )
                  (  0.0000000  0.0000000  1.0000000 )
                  (  0.0000000 -1.0000000  0.0000000 )


      isym = 41     inv. 120 deg rotation - cart. axis [-1,-1,-1]

 cryst.   s(41) = (     0          0         -1      )
                  (    -1          0          0      )
                  (     0         -1          0      )

 cart.    s(41) = (  0.0000000 -1.0000000  0.0000000 )
                  (  0.0000000  0.0000000 -1.0000000 )
                  ( -1.0000000  0.0000000  0.0000000 )


      isym = 42     inv. 120 deg rotation - cart. axis [-1,1,1]  

 cryst.   s(42) = (     0          0          1      )
                  (     1          0          0      )
                  (     0         -1          0      )

 cart.    s(42) = (  0.0000000  1.0000000  0.0000000 )
                  (  0.0000000  0.0000000 -1.0000000 )
                  (  1.0000000  0.0000000  0.0000000 )


      isym = 43     inv. 120 deg rotation - cart. axis [1,1,-1]  

 cryst.   s(43) = (     0          0          1      )
                  (    -1          0          0      )
                  (     0          1          0      )

 cart.    s(43) = (  0.0000000 -1.0000000  0.0000000 )
                  (  0.0000000  0.0000000  1.0000000 )
                  (  1.0000000  0.0000000  0.0000000 )


      isym = 44     inv. 120 deg rotation - cart. axis [1,-1,1]  

 cryst.   s(44) = (     0          0         -1      )
                  (     1          0          0      )
                  (     0          1          0      )

 cart.    s(44) = (  0.0000000  1.0000000  0.0000000 )
                  (  0.0000000  0.0000000  1.0000000 )
                  ( -1.0000000  0.0000000  0.0000000 )


      isym = 45     inv. 120 deg rotation - cart. axis [1,1,1]   

 cryst.   s(45) = (     0         -1          0      )
                  (     0          0         -1      )
                  (    -1          0          0      )

 cart.    s(45) = (  0.0000000  0.0000000 -1.0000000 )
                  ( -1.0000000  0.0000000  0.0000000 )
                  (  0.0000000 -1.0000000  0.0000000 )


      isym = 46     inv. 120 deg rotation - cart. axis [-1,1,-1] 

 cryst.   s(46) = (     0          1          0      )
                  (     0          0          1      )
                  (    -1          0          0      )

 cart.    s(46) = (  0.0000000  0.0000000 -1.0000000 )
                  (  1.0000000  0.0000000  0.0000000 )
                  (  0.0000000  1.0000000  0.0000000 )


      isym = 47     inv. 120 deg rotation - cart. axis [1,-1,-1] 

 cryst.   s(47) = (     0          1          0      )
                  (     0          0         -1      )
                  (     1          0          0      )

 cart.    s(47) = (  0.0000000  0.0000000  1.0000000 )
                  (  1.0000000  0.0000000  0.0000000 )
                  (  0.0000000 -1.0000000  0.0000000 )


      isym = 48     inv. 120 deg rotation - cart. axis [-1,-1,1] 

 cryst.   s(48) = (     0         -1          0      )
                  (     0          0          1      )
                  (     1          0          0      )

 cart.    s(48) = (  0.0000000  0.0000000  1.0000000 )
                  ( -1.0000000  0.0000000  0.0000000 )
                  (  0.0000000  1.0000000  0.0000000 )


   Cartesian axes

     site n.     atom                  positions (alat units)
         1           W   tau(   1) = (   0.5000000   0.5000000   0.5000000  )

   Crystallographic axes

     site n.     atom                  positions (cryst. coord.)
         1           W   tau(   1) = (  0.5000000  0.5000000  0.5000000  )

     number of k points=     1
                       cart. coord. in units 2pi/alat
        k(    1) = (   0.0000000   0.0000000   0.0000000), wk =   1.0000000

                       cryst. coord.
        k(    1) = (   0.0000000   0.0000000   0.0000000), wk =   1.0000000

     Dense  grid: 11002772 G-vectors     FFT dimensions: ( 360, 360, 360)

     Dynamical RAM for                 wfc:       7.87 MB

     Dynamical RAM for     wfc (w. buffer):      23.61 MB

     Dynamical RAM for           str. fact:       5.25 MB

     Dynamical RAM for           local pot:       0.00 MB

     Dynamical RAM for          nlocal pot:       8.53 MB

     Dynamical RAM for                qrad:       5.57 MB

     Dynamical RAM for          rho,v,vnew:     102.67 MB

     Dynamical RAM for               rhoin:      34.22 MB

     Dynamical RAM for            rho*nmix:     167.89 MB

     Dynamical RAM for           G-vectors:      22.30 MB

     Dynamical RAM for          h,s,v(r/c):       0.00 MB

     Dynamical RAM for          <psi|beta>:       0.00 MB

     Dynamical RAM for                 psi:      31.48 MB

     Dynamical RAM for                hpsi:      31.48 MB

     Dynamical RAM for      wfcinit/wfcrot:      20.99 MB

     Estimated static dynamical RAM per process >     451.72 MB

     Estimated max dynamical RAM per process >     514.68 MB

     Estimated total dynamical RAM >      16.08 GB
     Generating pointlists ...
     new r_m :   0.4125 (alat units)  9.3541 (a.u.) for type    1

     Initial potential from superposition of free atoms

     starting charge   11.30112, renormalised to   14.00000

     negative rho (up, down):  1.759E-02 0.000E+00
     Starting wfcs are   16 randomized atomic wfcs

     total cpu time spent up to now is       16.3 secs

     Self-consistent Calculation

     iteration #  1     ecut=   580.00 Ry     beta= 0.70
     Davidson diagonalization with overlap
     ethr =  1.00E-02,  avg # of iterations = 13.5

     negative rho (up, down):  8.827E-06 5.191E-02

     total cpu time spent up to now is       43.1 secs

     total energy              =    -127.27072996 Ry
     Harris-Foulkes estimate   =    -137.26585201 Ry
     estimated scf accuracy    <      12.85814254 Ry

     total magnetization       =     4.00 Bohr mag/cell
     absolute magnetization    =     4.02 Bohr mag/cell

     iteration #  2     ecut=   580.00 Ry     beta= 0.70
     Davidson diagonalization with overlap
     ethr =  1.00E-02,  avg # of iterations =  7.5

     negative rho (up, down):  5.265E-06 5.161E-02

     total cpu time spent up to now is       64.4 secs

     total energy              =    -134.74778691 Ry
     Harris-Foulkes estimate   =    -139.02571072 Ry
     estimated scf accuracy    <       7.39817136 Ry

     total magnetization       =     4.00 Bohr mag/cell
     absolute magnetization    =     4.00 Bohr mag/cell

     iteration #  3     ecut=   580.00 Ry     beta= 0.70
     Davidson diagonalization with overlap
     ethr =  1.00E-02,  avg # of iterations =  2.5

     negative rho (up, down):  4.693E-06 5.164E-02

     total cpu time spent up to now is       77.8 secs

     total energy              =    -134.95778866 Ry
     Harris-Foulkes estimate   =    -135.17581323 Ry
     estimated scf accuracy    <       1.47365714 Ry

     total magnetization       =     4.00 Bohr mag/cell
     absolute magnetization    =     4.01 Bohr mag/cell

     iteration #  4     ecut=   580.00 Ry     beta= 0.70
     Davidson diagonalization with overlap
     ethr =  1.00E-02,  avg # of iterations =  1.0

     negative rho (up, down):  4.885E-06 5.148E-02

     total cpu time spent up to now is       89.6 secs

     total energy              =    -135.22521978 Ry
     Harris-Foulkes estimate   =    -134.97585745 Ry
     estimated scf accuracy    <       0.82798312 Ry

     total magnetization       =     4.00 Bohr mag/cell
     absolute magnetization    =     4.17 Bohr mag/cell

     iteration #  5     ecut=   580.00 Ry     beta= 0.70
     Davidson diagonalization with overlap
     ethr =  5.91E-03,  avg # of iterations =  1.0

     negative rho (up, down):  4.688E-06 5.161E-02

     total cpu time spent up to now is      101.5 secs

     total energy              =    -135.27161659 Ry
     Harris-Foulkes estimate   =    -135.27013298 Ry
     estimated scf accuracy    <       1.54084268 Ry

     total magnetization       =     4.00 Bohr mag/cell
     absolute magnetization    =     4.13 Bohr mag/cell

     iteration #  6     ecut=   580.00 Ry     beta= 0.70
     Davidson diagonalization with overlap
     ethr =  5.91E-03,  avg # of iterations =  1.0

     negative rho (up, down):  3.972E-06 5.254E-02

     total cpu time spent up to now is      113.5 secs

     total energy              =    -135.02891296 Ry
     Harris-Foulkes estimate   =    -135.27850519 Ry
     estimated scf accuracy    <       1.51349132 Ry

     total magnetization       =     4.00 Bohr mag/cell
     absolute magnetization    =     4.16 Bohr mag/cell

     iteration #  7     ecut=   580.00 Ry     beta= 0.70
     Davidson diagonalization with overlap
     ethr =  5.91E-03,  avg # of iterations =  1.0

     negative rho (up, down):  2.863E-03 5.361E-02

     total cpu time spent up to now is      125.5 secs

     total energy              =    -134.37225597 Ry
     Harris-Foulkes estimate   =    -135.05777822 Ry
     estimated scf accuracy    <       1.21389279 Ry

     total magnetization       =     4.00 Bohr mag/cell
     absolute magnetization    =     4.27 Bohr mag/cell

     iteration #  8     ecut=   580.00 Ry     beta= 0.70
     Davidson diagonalization with overlap
     ethr =  5.91E-03,  avg # of iterations =  1.0

     negative rho (up, down):  2.045E-04 5.079E-02

     total cpu time spent up to now is      137.6 secs

     total energy              =    -134.37172367 Ry
     Harris-Foulkes estimate   =    -134.41622560 Ry
     estimated scf accuracy    <       0.96512357 Ry

     total magnetization       =     4.00 Bohr mag/cell
     absolute magnetization    =     4.34 Bohr mag/cell

     iteration #  9     ecut=   580.00 Ry     beta= 0.70
     Davidson diagonalization with overlap
     ethr =  5.91E-03,  avg # of iterations =  1.0

     negative rho (up, down):  1.428E-06 4.577E-02

     total cpu time spent up to now is      149.8 secs

     total energy              =    -134.48455350 Ry
     Harris-Foulkes estimate   =    -134.38128993 Ry
     estimated scf accuracy    <       0.81012200 Ry

     total magnetization       =     4.00 Bohr mag/cell
     absolute magnetization    =     4.34 Bohr mag/cell

     iteration # 10     ecut=   580.00 Ry     beta= 0.70
     Davidson diagonalization with overlap
     ethr =  5.79E-03,  avg # of iterations =  2.0

     negative rho (up, down):  1.210E-06 3.926E-02

     total cpu time spent up to now is      162.3 secs

     total energy              =    -134.53690855 Ry
     Harris-Foulkes estimate   =    -134.55323011 Ry
     estimated scf accuracy    <       0.21943797 Ry

     total magnetization       =     4.00 Bohr mag/cell
     absolute magnetization    =     4.11 Bohr mag/cell

     iteration # 11     ecut=   580.00 Ry     beta= 0.70
     Davidson diagonalization with overlap
     ethr =  1.57E-03,  avg # of iterations =  1.0

     negative rho (up, down):  2.354E-06 3.171E-02

     total cpu time spent up to now is      174.4 secs

     total energy              =    -134.48562653 Ry
     Harris-Foulkes estimate   =    -134.54325605 Ry
     estimated scf accuracy    <       0.22086862 Ry

     total magnetization       =     4.00 Bohr mag/cell
     absolute magnetization    =     4.12 Bohr mag/cell

     iteration # 12     ecut=   580.00 Ry     beta= 0.70
     Davidson diagonalization with overlap
     ethr =  1.57E-03,  avg # of iterations =  1.0

     negative rho (up, down):  9.188E-07 5.173E-02

     total cpu time spent up to now is      186.6 secs

     total energy              =    -134.49210301 Ry
     Harris-Foulkes estimate   =    -134.50163558 Ry
     estimated scf accuracy    <       0.34683372 Ry

     total magnetization       =     4.00 Bohr mag/cell
     absolute magnetization    =     4.35 Bohr mag/cell

     iteration # 13     ecut=   580.00 Ry     beta= 0.70
     Davidson diagonalization with overlap
     ethr =  1.57E-03,  avg # of iterations =  3.0

     negative rho (up, down):  1.174E-06 2.941E-02

     total cpu time spent up to now is      202.4 secs

     total energy              =    -134.59706770 Ry
     Harris-Foulkes estimate   =    -134.76296229 Ry
     estimated scf accuracy    <       0.34610348 Ry

     total magnetization       =     4.00 Bohr mag/cell
     absolute magnetization    =     4.04 Bohr mag/cell

     iteration # 14     ecut=   580.00 Ry     beta= 0.70
     Davidson diagonalization with overlap
     ethr =  1.57E-03,  avg # of iterations =  2.5

     negative rho (up, down):  9.520E-07 1.717E-02

     total cpu time spent up to now is      216.2 secs

     total energy              =    -134.68814209 Ry
     Harris-Foulkes estimate   =    -134.69123337 Ry
     estimated scf accuracy    <       0.03129498 Ry

     total magnetization       =     4.00 Bohr mag/cell
     absolute magnetization    =     4.22 Bohr mag/cell

     iteration # 15     ecut=   580.00 Ry     beta= 0.70
     Davidson diagonalization with overlap
     ethr =  2.24E-04,  avg # of iterations =  5.5

     negative rho (up, down):  1.988E-07 1.467E-02

     total cpu time spent up to now is      231.7 secs

     total energy              =    -134.69301870 Ry
     Harris-Foulkes estimate   =    -134.69305777 Ry
     estimated scf accuracy    <       0.01283429 Ry

     total magnetization       =     4.00 Bohr mag/cell
     absolute magnetization    =     4.24 Bohr mag/cell

     iteration # 16     ecut=   580.00 Ry     beta= 0.70
     Davidson diagonalization with overlap
     ethr =  9.17E-05,  avg # of iterations =  2.0

     negative rho (up, down):  2.074E-08 1.208E-02

     total cpu time spent up to now is      244.3 secs

     total energy              =    -134.69698719 Ry
     Harris-Foulkes estimate   =    -134.69535039 Ry
     estimated scf accuracy    <       0.00238387 Ry

     total magnetization       =     4.00 Bohr mag/cell
     absolute magnetization    =     4.28 Bohr mag/cell

     iteration # 17     ecut=   580.00 Ry     beta= 0.70
     Davidson diagonalization with overlap
     ethr =  1.70E-05,  avg # of iterations =  4.5

     negative rho (up, down):  7.515E-04 4.484E-01

     total cpu time spent up to now is      259.9 secs

     total energy              =    -134.69799620 Ry
     Harris-Foulkes estimate   =    -134.69783343 Ry
     estimated scf accuracy    <       0.00114308 Ry

     total magnetization       =     4.00 Bohr mag/cell
     absolute magnetization    =     4.32 Bohr mag/cell

     iteration # 18     ecut=   580.00 Ry     beta= 0.70
     Davidson diagonalization with overlap
     ethr =  8.16E-06,  avg # of iterations =  2.5

     negative rho (up, down):  1.294E-03 4.361E-01

     total cpu time spent up to now is      273.4 secs

     total energy              =    -134.69841930 Ry
     Harris-Foulkes estimate   =    -134.69852480 Ry
     estimated scf accuracy    <       0.00133254 Ry

     total magnetization       =     4.00 Bohr mag/cell
     absolute magnetization    =     4.36 Bohr mag/cell

     iteration # 19     ecut=   580.00 Ry     beta= 0.70
     Davidson diagonalization with overlap
     ethr =  8.16E-06,  avg # of iterations =  1.0

     negative rho (up, down):  4.732E-05 4.974E-01

     total cpu time spent up to now is      285.2 secs

     total energy              =    -134.69839165 Ry
     Harris-Foulkes estimate   =    -134.69845922 Ry
     estimated scf accuracy    <       0.00095889 Ry

     total magnetization       =     4.00 Bohr mag/cell
     absolute magnetization    =     4.36 Bohr mag/cell

     iteration # 20     ecut=   580.00 Ry     beta= 0.70
     Davidson diagonalization with overlap
     ethr =  6.85E-06,  avg # of iterations =  1.0

     negative rho (up, down):  4.080E-09 3.088E-03

     total cpu time spent up to now is      297.2 secs

     total energy              =    -134.69844904 Ry
     Harris-Foulkes estimate   =    -134.69849488 Ry
     estimated scf accuracy    <       0.00044121 Ry

     total magnetization       =     4.00 Bohr mag/cell
     absolute magnetization    =     4.35 Bohr mag/cell

     iteration # 21     ecut=   580.00 Ry     beta= 0.70
     Davidson diagonalization with overlap
     ethr =  3.15E-06,  avg # of iterations =  9.0

     negative rho (up, down):  1.128E-11 3.264E-05

     total cpu time spent up to now is      312.9 secs

     total energy              =    -134.69855473 Ry
     Harris-Foulkes estimate   =    -134.69851887 Ry
     estimated scf accuracy    <       0.00005147 Ry

     total magnetization       =     4.00 Bohr mag/cell
     absolute magnetization    =     4.34 Bohr mag/cell

     iteration # 22     ecut=   580.00 Ry     beta= 0.70
     Davidson diagonalization with overlap
     ethr =  3.68E-07,  avg # of iterations =  4.5

     negative rho (up, down):  1.314E-06 2.122E-01

     total cpu time spent up to now is      328.0 secs

     total energy              =    -134.69860276 Ry
     Harris-Foulkes estimate   =    -134.69858998 Ry
     estimated scf accuracy    <       0.00001679 Ry

     total magnetization       =     4.00 Bohr mag/cell
     absolute magnetization    =     4.35 Bohr mag/cell

     iteration # 23     ecut=   580.00 Ry     beta= 0.70
     Davidson diagonalization with overlap
     ethr =  1.20E-07,  avg # of iterations =  2.0

     negative rho (up, down):  5.558E-08 8.606E-02

     total cpu time spent up to now is      340.5 secs

     total energy              =    -134.69861212 Ry
     Harris-Foulkes estimate   =    -134.69860939 Ry
     estimated scf accuracy    <       0.00000615 Ry

     total magnetization       =     4.00 Bohr mag/cell
     absolute magnetization    =     4.35 Bohr mag/cell

     iteration # 24     ecut=   580.00 Ry     beta= 0.70
     Davidson diagonalization with overlap
     ethr =  4.39E-08,  avg # of iterations =  2.5
 
     Magnetic moment per site:
     atom:    1    charge:   13.9994    magn:    4.0001    constr:    0.0000

     total cpu time spent up to now is      352.2 secs

     End of self-consistent calculation

 ------ SPIN UP ------------


          k = 0.0000 0.0000 0.0000 (****** PWs)   bands (ev):

   -77.8237 -42.9106 -42.8804 -42.8793  -5.7636  -4.7959  -4.7947  -4.7755
    -4.7755  -3.9320  -1.2474  -1.2472

     occupation numbers 
     1.0000   1.0000   1.0000   1.0000   1.0000   1.0000   1.0000   1.0000
     1.0000   0.0000   0.0000   0.0000

 ------ SPIN DOWN ----------


          k = 0.0000 0.0000 0.0000 (****** PWs)   bands (ev):

   -76.2766 -41.3639 -40.5209 -40.5196  -4.4846  -2.8918  -2.2495  -2.2491
    -1.7688  -1.7679  -0.8702  -0.2263

     occupation numbers 
     1.0000   1.0000   1.0000   1.0000   1.0000   0.0000   0.0000   0.0000
     0.0000   0.0000   0.0000   0.0000

     highest occupied, lowest unoccupied level (ev):    -4.4846   -3.9320

!    total energy              =    -134.69861466 Ry
     Harris-Foulkes estimate   =    -134.69861409 Ry
     estimated scf accuracy    <       0.00000099 Ry

     The total energy is the sum of the following terms:

     one-electron contribution =    -177.78389830 Ry
     hartree contribution      =      82.76995144 Ry
     xc contribution           =     -15.16125951 Ry
     ewald contribution        =     -24.52340829 Ry

     total magnetization       =     4.00 Bohr mag/cell
     absolute magnetization    =     4.35 Bohr mag/cell

     convergence has been achieved in  24 iterations

     Writing output data file pwscf.save/
 
     init_run     :     15.45s CPU     16.05s WALL (       1 calls)
     electrons    :    328.04s CPU    337.28s WALL (       1 calls)

     Called by init_run:
     wfcinit      :      3.12s CPU      3.23s WALL (       1 calls)
     wfcinit:atom :      0.06s CPU      0.07s WALL (       2 calls)
     wfcinit:wfcr :      2.97s CPU      3.05s WALL (       2 calls)
     potinit      :      3.76s CPU      3.97s WALL (       1 calls)
     hinit0       :      0.42s CPU      0.55s WALL (       1 calls)

     Called by electrons:
     c_bands      :    164.04s CPU    166.11s WALL (      24 calls)
     sum_band     :     52.37s CPU     52.53s WALL (      24 calls)
     v_of_rho     :     85.68s CPU     89.44s WALL (      25 calls)
     v_h          :      6.51s CPU      6.55s WALL (      25 calls)
     v_xc         :     79.17s CPU     82.89s WALL (      25 calls)
     mix_rho      :     26.30s CPU     28.73s WALL (      24 calls)

     Called by c_bands:
     init_us_2    :      1.63s CPU      1.64s WALL (      98 calls)
     regterg      :    161.17s CPU    163.22s WALL (      48 calls)

     Called by sum_band:

     Called by *egterg:
     h_psi        :    149.09s CPU    149.42s WALL (     197 calls)
     g_psi        :      0.47s CPU      0.47s WALL (     147 calls)
     rdiaghg      :      0.21s CPU      0.22s WALL (     195 calls)
     regterg:over :      3.20s CPU      3.20s WALL (     147 calls)
     regterg:upda :      6.49s CPU      6.59s WALL (     147 calls)
     regterg:last :      1.99s CPU      1.99s WALL (      55 calls)
     rdiaghg:chol :      0.03s CPU      0.04s WALL (     195 calls)
     rdiaghg:inve :      0.01s CPU      0.01s WALL (     195 calls)
     rdiaghg:para :      0.02s CPU      0.02s WALL (     390 calls)

     Called by h_psi:
     h_psi:pot    :    148.14s CPU    148.46s WALL (     197 calls)
     h_psi:calbec :      0.79s CPU      0.81s WALL (     197 calls)
     vloc_psi     :    146.09s CPU    146.38s WALL (     197 calls)
     add_vuspsi   :      1.25s CPU      1.26s WALL (     197 calls)

     General routines
     calbec       :      0.78s CPU      0.81s WALL (     197 calls)
     fft          :     72.05s CPU     72.69s WALL (     371 calls)
     ffts         :      7.36s CPU      7.40s WALL (      48 calls)
     fftw         :    143.56s CPU    143.91s WALL (    1954 calls)
 
     Parallel routines
     fft_scatt_xy :     39.55s CPU     39.58s WALL (    2373 calls)
     fft_scatt_yz :     78.78s CPU     79.43s WALL (    2373 calls)
 
     PWSCF        :   5m44.53s CPU   5m56.31s WALL

 
   This run was terminated on:  19:57:52  17Jan2022            

=------------------------------------------------------------------------------=
   JOB DONE.
=------------------------------------------------------------------------------=
