
 Primary working directories    : /global/cscratch1/sd/haihan
 Secondary working directories  : /global/cscratch1/sd/haihan
 Wavefunction directory         : /global/homes/h/haihan/wfu/
 Main file repository           : /global/cscratch1/sd/haihan/

 SHA1      : 19cd028119e0e09f93f0674bd8af7968d9b3eff6
 NAME      : 2015.1.36
 ARCHNAME  : linux/x86_64
 FC        : /opt/cray/pe/craype/2.5.14/bin/ftn
 BLASLIB   : -L/opt/intel/compilers_and_libraries_2018.1.163/linux/mkl/lib/intel64 -Wl,-_start-group -lmkl_intel_ilp64 -lmkl_intel_thread -lmkl_core -Wl,-_end-group -liomp5
 id        : lbl

 Nodes     nprocs
 nid00010    11
 Number of processes for MPI-2 version of Molpro:   nprocs(total)=   12   nprocs(compute)=   11   nprocs(helper)=    1

 Using customized tuning parameters: mindgm=7; mindgv=16; mindgc=1; mindgr=1; noblas=0; minvec=7
 default implementation of scratch files=sf  

 ***,Calculation for Mo atom, singlet and triplet
 memory,1,g
 
 gthresh,twoint=1.0E-15
 gthresh,oneint=1.0E-15
 
 geometry={
 1
 Mo
 Mo  0.0 0.0 0.0
 }
 
 basis={
 Including file /global/u2/h/haihan/Research/HZECP/Mo/atom/regstu/Mo.ecp
 
 Including file /global/u2/h/haihan/Research/HZECP/Mo/atom/regstu/aug-cc-pwCVTZ.basis
 }
 
 
 
 Including file /global/u2/h/haihan/Research/HZECP/Mo/atom/regstu/states.proc
 
 
 do i=1,16
     if (i.eq.1) then
         IId4s2
     else if (i.eq.2) then
         Id5s1
     else if (i.eq.3) then
         Id5p1
     else if (i.eq.4) then
         EAd5s2
     else if (i.eq.5) then
         IId4s1
     else if (i.eq.6) then
         Id5
     else if (i.eq.7) then
         IId3s2
     else if (i.eq.8) then
         IIId4
     else if (i.eq.9) then
         IVd3
     else if (i.eq.10) then
         Vd2
     else if (i.eq.11) then
         VId1
     else if (i.eq.12) then
         VIp1
     else if (i.eq.13) then
         VI5f1
     else if (i.eq.14) then
         VIIXeandF
     else if (i.eq.15) then
         Xp3
     else if (i.eq.16) then
         XIIIs2
     endif
     scf(i)=energy
     _CC_NORM_MAX=2.0
     {rccsd(t),shifts=0.2,shiftp=0.2,thrdis=1.0;diis,1,1,15,1;maxit,100;core
     orbital,ignore_error}
     ccsd(i)=energy
 enddo
 
 table,scf,ccsd
 type,csv
 save

 Variables initialized (889), CPU time= 0.01 sec
 Commands  initialized (702), CPU time= 0.01 sec, 572 directives.
 Default parameters read. Elapsed time= 0.24 sec

 Checking input...
 Passed
1


                                         ***  PROGRAM SYSTEM MOLPRO  ***
                                       Copyright, TTI GmbH Stuttgart, 2015
                                    Version 2015.1 linked Dec 29 2018 15:55:43


 **********************************************************************************************************************************
 LABEL *   Calculation for Mo atom, singlet and triplet                                  
  64 bit mpp version                                                                     DATE: 24-Mar-21          TIME: 06:35:21  
 **********************************************************************************************************************************

 SHA1:             19cd028119e0e09f93f0674bd8af7968d9b3eff6
 **********************************************************************************************************************************

 THRESHOLDS:

 ZERO    =  1.00D-12  ONEINT  =  1.00D-12  TWOINT  =  1.00D-15  PREFAC  =  1.00D-14  LOCALI  =  1.00D-09  EORDER  =  1.00D-04
 ENERGY  =  0.00D+00  ETEST   =  0.00D+00  EDENS   =  0.00D+00  THRDEDEF=  1.00D-06  GRADIENT=  1.00D-02  STEP    =  1.00D-03
 ORBITAL =  1.00D-05  CIVEC   =  1.00D-05  COEFF   =  1.00D-04  PRINTCI =  5.00D-02  PUNCHCI =  9.90D+01  OPTGRAD =  3.00D-04
 OPTENERG=  1.00D-06  OPTSTEP =  3.00D-04  THRGRAD =  1.00D-10  COMPRESS=  1.00D-11  VARMIN  =  1.00D-07  VARMAX  =  1.00D-03
 THRDOUB =  0.00D+00  THRDIV  =  1.00D-05  THRRED  =  1.00D-07  THRPSP  =  1.00D+00  THRDC   =  1.00D-10  THRCS   =  1.00D-10
 THRNRM  =  1.00D-08  THREQ   =  0.00D+00  THRDE   =  1.00D+00  THRREF  =  1.00D-05  SPARFAC =  1.00D+00  THRDLP  =  1.00D-07
 THRDIA  =  1.00D-10  THRDLS  =  1.00D-07  THRGPS  =  0.00D+00  THRKEX  =  0.00D+00  THRDIS  =  2.00D-01  THRVAR  =  1.00D-10
 THRLOC  =  1.00D-06  THRGAP  =  1.00D-06  THRLOCT = -1.00D+00  THRGAPT = -1.00D+00  THRORB  =  1.00D-06  THRMLTP =  0.00D+00
 THRCPQCI=  1.00D-10  KEXTA   =  0.00D+00  THRCOARS=  0.00D+00  SYMTOL  =  1.00D-06  GRADTOL =  1.00D-06  THROVL  =  1.00D-08
 THRORTH =  1.00D-08  GRID    =  1.00D-06  GRIDMAX =  1.00D-03  DTMAX   =  0.00D+00  THROCCDE=  1.00D-01  THROCCDE=  1.00D-01



 THRESHOLDS:

 ZERO    =  1.00D-12  ONEINT  =  1.00D-15  TWOINT  =  1.00D-15  PREFAC  =  1.00D-14  LOCALI  =  1.00D-09  EORDER  =  1.00D-04
 ENERGY  =  0.00D+00  ETEST   =  0.00D+00  EDENS   =  0.00D+00  THRDEDEF=  1.00D-06  GRADIENT=  1.00D-02  STEP    =  1.00D-03
 ORBITAL =  1.00D-05  CIVEC   =  1.00D-05  COEFF   =  1.00D-04  PRINTCI =  5.00D-02  PUNCHCI =  9.90D+01  OPTGRAD =  3.00D-04
 OPTENERG=  1.00D-06  OPTSTEP =  3.00D-04  THRGRAD =  1.00D-10  COMPRESS=  1.00D-11  VARMIN  =  1.00D-07  VARMAX  =  1.00D-03
 THRDOUB =  0.00D+00  THRDIV  =  1.00D-05  THRRED  =  1.00D-07  THRPSP  =  1.00D+00  THRDC   =  1.00D-10  THRCS   =  1.00D-10
 THRNRM  =  1.00D-08  THREQ   =  0.00D+00  THRDE   =  1.00D+00  THRREF  =  1.00D-05  SPARFAC =  1.00D+00  THRDLP  =  1.00D-07
 THRDIA  =  1.00D-10  THRDLS  =  1.00D-07  THRGPS  =  0.00D+00  THRKEX  =  0.00D+00  THRDIS  =  2.00D-01  THRVAR  =  1.00D-10
 THRLOC  =  1.00D-06  THRGAP  =  1.00D-06  THRLOCT = -1.00D+00  THRGAPT = -1.00D+00  THRORB  =  1.00D-06  THRMLTP =  0.00D+00
 THRCPQCI=  1.00D-10  KEXTA   =  0.00D+00  THRCOARS=  0.00D+00  SYMTOL  =  1.00D-06  GRADTOL =  1.00D-06  THROVL  =  1.00D-08
 THRORTH =  1.00D-08  GRID    =  1.00D-06  GRIDMAX =  1.00D-03  DTMAX   =  0.00D+00  THROCCDE=  1.00D-01  THROCCDE=  1.00D-01



Geometry recognized as XYZ


 Variable memory set to 1000000000 words,  buffer space   230000 words

 SETTING BASIS          =    USERDEF

 DO I                   =         1.00000000   

 Running procedure=IID4S2


 Recomputing integrals since basis changed


 Using spherical harmonics



 PROGRAM * SEWARD (Integral evaluation for generally contracted gaussian basis sets)     Author: Roland Lindh, 1990

 Geometry written to block  1 of record 700

 Orientation using atomic masses  
 Molecule type: Atom
 Symmetry elements: X,Y,Z
 Rotational constants:       0.0000000      0.0000000      0.0000000 GHz  (calculated with average atomic masses)

 Point group  D2h 



 ATOMIC COORDINATES

 NR  ATOM    CHARGE       X              Y              Z

   1  MO     14.00    0.000000000    0.000000000    0.000000000

 NUCLEAR CHARGE:                   14
 NUMBER OF PRIMITIVE AOS:         312
 NUMBER OF SYMMETRY AOS:          256
 NUMBER OF CONTRACTIONS:          256   (  74Ag  +  34B3u +  34B2u +  25B1g +  34B1u +  25B2g +  25B3g +   5Au  )
 NUMBER OF CORE ORBITALS:           4   (   1Ag  +   1B3u +   1B2u +   0B1g +   1B1u +   0B2g +   0B3g +   0Au  )
 NUMBER OF VALENCE ORBITALS:        6   (   3Ag  +   0B3u +   0B2u +   1B1g +   0B1u +   1B2g +   1B3g +   0Au  )


 NUCLEAR REPULSION ENERGY    0.00000000

 EXTRA SYMMETRY OF AOS IN SYMMETRY 1:   1 1 1 1 1 1 1 1 1 1   1 1 1 1 1 1 1 1 1 1   1 1 1 1 1 1 1 1 2 3   2 3 2 3 2 3 2 3 2 3
                                        2 3 2 3 2 3 2 3 2 3   2 3 2 3 2 3 2 3 2 3   2 3 4 5 6 4 5 6 4 5   6 4 5 6
 EXTRA SYMMETRY OF AOS IN SYMMETRY 2:   1 1 1 1 1 1 1 1 1 1   1 1 1 1 1 1 1 1 1 1   1 1 1 1 2 3 2 3 2 3   2 3 2 3
 EXTRA SYMMETRY OF AOS IN SYMMETRY 3:   1 1 1 1 1 1 1 1 1 1   1 1 1 1 1 1 1 1 1 1   1 1 1 1 2 3 2 3 2 3   2 3 2 3
 EXTRA SYMMETRY OF AOS IN SYMMETRY 4:   1 1 1 1 1 1 1 1 1 1   1 1 1 1 1 1 1 2 3 2   3 2 3 2 3
 EXTRA SYMMETRY OF AOS IN SYMMETRY 5:   1 1 1 1 1 1 1 1 1 1   1 1 1 1 1 1 1 1 1 1   1 1 1 1 2 3 2 3 2 3   2 3 2 3
 EXTRA SYMMETRY OF AOS IN SYMMETRY 6:   1 1 1 1 1 1 1 1 1 1   1 1 1 1 1 1 1 2 3 2   3 2 3 2 3
 EXTRA SYMMETRY OF AOS IN SYMMETRY 7:   1 1 1 1 1 1 1 1 1 1   1 1 1 1 1 1 1 2 3 2   3 2 3 2 3

 Eigenvalues of metric

         1 0.976E-04 0.242E-03 0.242E-03 0.322E-03 0.749E-03 0.149E-02 0.236E-02 0.325E-02
         2 0.140E-04 0.464E-03 0.146E-02 0.372E-02 0.847E-02 0.144E-01 0.248E-01 0.407E-01
         3 0.140E-04 0.464E-03 0.146E-02 0.372E-02 0.847E-02 0.144E-01 0.248E-01 0.407E-01
         4 0.242E-03 0.325E-02 0.114E-01 0.303E-01 0.500E-01 0.974E-01 0.153E+00 0.193E+00
         5 0.140E-04 0.464E-03 0.146E-02 0.372E-02 0.847E-02 0.144E-01 0.248E-01 0.407E-01
         6 0.242E-03 0.325E-02 0.114E-01 0.303E-01 0.500E-01 0.974E-01 0.153E+00 0.193E+00
         7 0.242E-03 0.325E-02 0.114E-01 0.303E-01 0.500E-01 0.974E-01 0.153E+00 0.193E+00
         8 0.112E+00 0.295E+00 0.757E+00 0.154E+01 0.229E+01


 Contracted 2-electron integrals neglected if value below      1.0D-15
 AO integral compression algorithm  1   Integral accuracy      1.0D-15

     561.512 MB (compressed) written to integral file ( 51.7%)

     Node minimum: 30.933 MB, node maximum: 71.565 MB


 NUMBER OF SORTED TWO-ELECTRON INTEGRALS:    6439622.     BUFFER LENGTH:  32768
 NUMBER OF SEGMENTS:   1  SEGMENT LENGTH:    6439622      RECORD LENGTH: 524288

 Memory used in sort:       7.00 MW

 SORT1 READ   135748860. AND WROTE     4149201. INTEGRALS IN     12 RECORDS. CPU TIME:     3.18 SEC, REAL TIME:     3.41 SEC
 SORT2 READ    45683255. AND WROTE    70721685. INTEGRALS IN   1716 RECORDS. CPU TIME:     0.27 SEC, REAL TIME:     0.66 SEC

 Node minimum:     6370092.  Node maximum:     6530222. integrals

 OPERATOR DM      FOR CENTER  0  COORDINATES:    0.000000    0.000000    0.000000


 **********************************************************************************************************************************
 DATASETS  * FILE   NREC   LENGTH (MB)   RECORD NAMES
              1      19       20.40       500      610      700      900      950      970     1000      129      960     1100   
                                          VAR    BASINP    GEOM    SYMINP    ZMAT    AOBASIS   BASIS     P2S    ABASIS      S 
                                         1400     1410     1420     1200     1210     1080     1600     1650     1700   
                                           T        V       ECP      H0       H01     AOSYM     SMH    MOLCAS    OPER   

 PROGRAMS   *        TOTAL       INT
 CPU TIMES  *        22.79     22.44
 REAL TIME  *        26.53 SEC
 DISK USED  *         1.08 GB      
 GA USED    *         0.00 MB       (max)       0.00 MB       (current)
 **********************************************************************************************************************************


 PROGRAM * RHF-SCF (OPEN SHELL)       Authors: W. Meyer, H.-J. Werner


 NUMBER OF ELECTRONS:       9+    5-    SPACE SYMMETRY=1    SPIN SYMMETRY: Quintet 
 CONVERGENCE THRESHOLDS:    1.00E-05 (Density)    1.00E-07 (Energy)
 MAX. NUMBER OF ITERATIONS:       60
 INTERPOLATION TYPE:            DIIS
 INTERPOLATION STEPS:              2 (START)      1 (STEP)
 LEVEL SHIFTS:                 -0.60 (CLOSED) -0.30 (OPEN) 

 Number of closed-shell orbitals:    5 (   2   1   1   0   1   0   0   0 )
 Number of open-shell orbitals:      4 (   1   0   0   1   0   1   1   0 )


 
 Extra symmetries of mos in symmetry 1:   1   1   3   2
 Orbital guess generated from atomic densities. Full valence occupancy:    4   1   1   1   1   1   1   0


 Molecular orbital dump at record        4202.2

 ITERATION    DDIFF          GRAD             ENERGY        2-EL.EN.            DIPOLE MOMENTS         DIIS   ORB.
    1      0.000D+00      0.000D+00       -67.05144505     88.231638    0.00000    0.00000    0.00000    0    start
    2      0.000D+00      0.154D-01       -67.23605950     94.540014    0.00000    0.00000    0.00000    1    diag,B
    3      0.805D-02      0.579D-02       -67.24953912     94.683661    0.00000    0.00000    0.00000    2    diag,B
    4      0.259D-02      0.226D-02       -67.25559255     95.118106    0.00000    0.00000    0.00000    3    diag,B
    5      0.295D-02      0.629D-03       -67.25645427     95.293947    0.00000    0.00000    0.00000    4    diag,B
    6      0.233D-02      0.299D-03       -67.25677476     95.352295    0.00000    0.00000    0.00000    5    diag,B
    7      0.182D-02      0.161D-03       -67.25691743     95.395711    0.00000    0.00000    0.00000    6    fixocc
    8      0.742D-03      0.785D-04       -67.25695420     95.412644    0.00000    0.00000    0.00000    7    diag,B
    9      0.506D-03      0.501D-04       -67.25696913     95.416027    0.00000    0.00000    0.00000    8    diag,B
   10      0.251D-03      0.399D-04       -67.25698649     95.418884    0.00000    0.00000    0.00000    9    orth
   11      0.102D-03      0.258D-04       -67.25699337     95.418739    0.00000    0.00000    0.00000    9    diag,B
   12      0.991D-04      0.180D-04       -67.25699615     95.418495    0.00000    0.00000    0.00000    9    diag,B
   13      0.450D-04      0.145D-04       -67.25699939     95.419302    0.00000    0.00000    0.00000    9    diag,B
   14      0.385D-04      0.106D-04       -67.25700128     95.419633    0.00000    0.00000    0.00000    9    diag,B
   15      0.246D-04      0.879D-05       -67.25700239     95.419651    0.00000    0.00000    0.00000    9    diag,B
   16      0.188D-04      0.806D-05       -67.25700303     95.419322    0.00000    0.00000    0.00000    9    diag,B
   17      0.920D-05      0.784D-05       -67.25700360     95.419220    0.00000    0.00000    0.00000    9    diag,B
   18      0.596D-05      0.778D-05       -67.25700500     95.419126    0.00000    0.00000    0.00000    9    diag,B
   19      0.148D-04      0.764D-05       -67.25701024     95.419031    0.00000    0.00000    0.00000    9    diag,B
   20      0.536D-04      0.723D-05       -67.25701633     95.418834    0.00000    0.00000    0.00000    9    orth
   21      0.653D-04      0.666D-05       -67.25702830     95.418862    0.00000    0.00000    0.00000    9    diag,B
   22      0.160D-03      0.781D-05       -67.25703051     95.419567    0.00000    0.00000    0.00000    9    diag,B
   23      0.406D-04      0.138D-04       -67.25703445     95.420007    0.00000    0.00000    0.00000    9    diag,B
   24      0.886D-04      0.181D-04       -67.25703455     95.420096    0.00000    0.00000    0.00000    9    diag,B
   25      0.330D-05      0.190D-04       -67.25703497     95.420060    0.00000    0.00000    0.00000    9    diag,B
   26      0.116D-04      0.190D-04       -67.25703634     95.419360    0.00000    0.00000    0.00000    9    diag,B
   27      0.402D-04      0.148D-04       -67.25703737     95.418857    0.00000    0.00000    0.00000    9    diag,B
   28      0.405D-04      0.123D-04       -67.25703831     95.418316    0.00000    0.00000    0.00000    9    diag,B
   29      0.585D-04      0.989D-05       -67.25703761     95.416702    0.00000    0.00000    0.00000    9    diag,B
   30      0.475D-04      0.373D-05       -67.25703857     95.418493    0.00000    0.00000    0.00000    9    orth
   31      0.934D-04      0.127D-04       -67.25703858     95.418424    0.00000    0.00000    0.00000    9    diag,B
   32      0.105D-05      0.122D-04       -67.25703859     95.418301    0.00000    0.00000    0.00000    9    diag,B
   33      0.455D-05      0.111D-04       -67.25703860     95.418259    0.00000    0.00000    0.00000    9    diag,B
   34      0.302D-05      0.106D-04       -67.25703859     95.418354    0.00000    0.00000    0.00000    9    diag,B
   35      0.454D-05      0.110D-04       -67.25703858     95.418380    0.00000    0.00000    0.00000    9    diag,B
   36      0.214D-05      0.117D-04       -67.25703858     95.418480    0.00000    0.00000    0.00000    9    diag,B
   37      0.360D-05      0.118D-04       -67.25703858     95.418486    0.00000    0.00000    0.00000    9    diag,B
   38      0.772D-06      0.120D-04       -67.25703860     95.418361    0.00000    0.00000    0.00000    9    diag,B
   39      0.320D-05      0.104D-04       -67.25703863     95.418022    0.00000    0.00000    0.00000    9    diag,B
   40      0.332D-05      0.702D-05       -67.25703865     95.417354    0.00000    0.00000    0.00000    0    orth

 Final alpha occupancy:   3   1   1   1   1   1   1   0
 Final beta  occupancy:   2   1   1   0   1   0   0   0

 !RHF STATE 1.1 Energy                -67.257038654304
 Nuclear energy                         0.00000000
 One-electron energy                 -114.96571570
 Two-electron energy                   47.70867705
 Virial quotient                       -2.89807691
 !RHF STATE 1.1 Dipole moment           0.00000000     0.00000000     0.00000000
 Dipole moment /Debye                   0.00000000     0.00000000     0.00000000

 ELECTRON ORBITALS
 =================


   Orb  Occ    Energy  Couls-En    Coefficients

                                   1 1s      1 1s      1 1s      1 1s      1 1s      1 1s      1 1s      1 1s      1 1s      1 1s   
                                   1 1s      1 1s      1 1s      1 1s      1 1s      1 1s      1 1s      1 1s      1 1s      1 1s   
                                   1 1s      1 1s      1 1s      1 1s      1 1s      1 1s      1 1s      1 1s      1 3d0     1 3d2+ 
                                   1 3d0     1 3d2+    1 3d0     1 3d2+    1 3d0     1 3d2+    1 3d0     1 3d2+    1 3d0     1 3d2+ 
                                   1 3d0     1 3d2+    1 3d0     1 3d2+    1 3d0     1 3d2+    1 3d0     1 3d2+    1 3d0     1 3d2+ 
                                   1 3d0     1 3d2+    1 3d0     1 3d2+    1 3d0     1 3d2+    1 3d0     1 3d2+    1 3d0     1 3d2+ 
                                   1 3d0     1 3d2+    1 5g0     1 5g4+    1 5g2+    1 5g0     1 5g4+    1 5g2+    1 5g0     1 5g4+ 
                                   1 5g2+    1 5g0     1 5g4+    1 5g2+ 

   1.1   2    -3.0303  -13.8295 -0.000000  0.000000 -0.000000  0.000000 -0.000000  0.000000 -0.000001  0.000003 -0.000010  0.000028
                                -0.000076  0.000196 -0.000498  0.001250 -0.003135  0.007973 -0.020213  0.026739  0.161843 -0.580548
                                -0.134323  0.813833  0.525616  0.030263 -0.014093  0.005573 -0.002214  0.000517 -0.000000  0.000000
                                 0.000000 -0.000000 -0.000000  0.000000  0.000001 -0.000001 -0.000002  0.000003  0.000007 -0.000012
                                 0.000012 -0.000022 -0.000127  0.000220 -0.000017  0.000031  0.000261 -0.000445  0.001113 -0.001924
                                 0.000446 -0.000770  0.000089 -0.000155  0.002012 -0.003492  0.002596 -0.004507 -0.000014  0.000024
                                 0.000004 -0.000008 -0.000190 -0.000048 -0.000150 -0.000786 -0.000227 -0.000581 -0.000345 -0.000098
                                -0.000257  0.000017  0.000007  0.000011

   2.1   2    -0.2338   -4.4138  0.000000 -0.000000  0.000000 -0.000000  0.000000 -0.000000  0.000000 -0.000001  0.000003 -0.000009
                                 0.000024 -0.000061  0.000155 -0.000391  0.000983 -0.002522  0.006526 -0.009564 -0.048908  0.195311
                                 0.031070 -0.323331 -0.353806  0.252271  0.629571  0.309990 -0.002950  0.002705 -0.000000  0.000000
                                 0.000000 -0.000000 -0.000001  0.000002  0.000004 -0.000007 -0.000014  0.000024  0.000049 -0.000085
                                 0.000017 -0.000030 -0.000547  0.000950  0.000791 -0.001374  0.010474 -0.018196  0.019379 -0.033669
                                 0.014691 -0.025524  0.005565 -0.009643  0.007850 -0.013632  0.006993 -0.012142  0.000042 -0.000081
                                 0.000078 -0.000126 -0.000253 -0.000000 -0.000282 -0.000141  0.000160 -0.000369  0.000405  0.000311
                                 0.000044  0.000229  0.000135  0.000079

   3.1   +    -0.4300   -7.3801  0.000000 -0.000000  0.000000 -0.000000  0.000000 -0.000000  0.000000 -0.000000  0.000000 -0.000001
                                 0.000003 -0.000009  0.000023 -0.000056  0.000139 -0.000343  0.000844 -0.001412 -0.003390  0.016466
                                 0.005735 -0.039329 -0.030868  0.057578  0.044661  0.025358 -0.002661  0.000787  0.000000 -0.000001
                                -0.000003  0.000005  0.000014 -0.000024 -0.000056  0.000097  0.000183 -0.000317 -0.000630  0.001089
                                -0.000167  0.000289  0.006707 -0.011592 -0.008682  0.015005 -0.128626  0.222307 -0.188561  0.325899
                                -0.080079  0.138405 -0.011621  0.020085 -0.102677  0.177460 -0.093320  0.161289  0.001168 -0.002018
                                -0.000352  0.000608  0.000754 -0.000595  0.001626  0.001837 -0.001036  0.003415  0.001615 -0.000350
                                 0.002263  0.000313 -0.000036  0.000397

   4.1   0     0.0193   -4.5571  0.000000 -0.000000  0.000000 -0.000000  0.000000 -0.000000  0.000000 -0.000000  0.000000 -0.000000
                                 0.000000 -0.000000  0.000000 -0.000000  0.000000 -0.000001  0.000001 -0.000002 -0.000003  0.000018
                                 0.000011 -0.000051 -0.000025 -0.000024  0.000190 -0.000293  0.000720 -0.000487 -0.000000 -0.000000
                                 0.000003  0.000002 -0.000014 -0.000008  0.000055  0.000032 -0.000179 -0.000103  0.000631  0.000365
                                 0.000425  0.000246 -0.008203 -0.004746  0.010721  0.006202  0.126208  0.073018  0.252831  0.146278
                                 0.168802  0.097664  0.171288  0.099102  0.112642  0.065169  0.125182  0.072425 -0.025415 -0.014704
                                 0.452851  0.262005 -0.000105  0.000125  0.000095 -0.000377  0.000449  0.000339 -0.000383  0.000456
                                 0.000344 -0.000012  0.000014  0.000011

   5.1   0     0.0084   -0.9438 -0.000000  0.000000 -0.000000  0.000000 -0.000000  0.000000 -0.000000  0.000000 -0.000001  0.000004
                                -0.000010  0.000026 -0.000067  0.000164 -0.000396  0.000935 -0.002141  0.003906  0.000290 -0.013091
                                -0.019104  0.061896  0.009588  0.096497 -0.443300  0.710238 -1.645808  1.942982  0.000000 -0.000000
                                -0.000000  0.000000  0.000000 -0.000000 -0.000000  0.000000  0.000000 -0.000000 -0.000001  0.000001
                                -0.000001  0.000001  0.000010 -0.000020 -0.000019  0.000037 -0.000163  0.000340 -0.000452  0.000881
                                -0.000476  0.000898 -0.000200  0.000397 -0.000101  0.000220 -0.000115  0.000242 -0.000050  0.000108
                                -0.000086  0.000183  0.000016  0.000003  0.000013  0.000154  0.000045  0.000113  0.000156  0.000047
                                 0.000113  0.000114  0.000032  0.000085

                                   1 2px     1 2px     1 2px     1 2px     1 2px     1 2px     1 2px     1 2px     1 2px     1 2px  
                                   1 2px     1 2px     1 2px     1 2px     1 2px     1 2px     1 2px     1 2px     1 2px     1 2px  
                                   1 2px     1 2px     1 2px     1 2px     1 4f1+    1 4f3+    1 4f1+    1 4f3+    1 4f1+    1 4f3+ 
                                   1 4f1+    1 4f3+    1 4f1+    1 4f3+ 

   1.2   2    -1.8692  -11.3734  0.000000 -0.000000  0.000000 -0.000000  0.000002 -0.000006  0.000023 -0.000073  0.000213 -0.000596
                                 0.001768 -0.006985  0.038430 -0.098246 -0.166525  0.280634  0.544692  0.326741  0.048562 -0.004100
                                 0.002694  0.026999 -0.001146  0.000338  0.001578 -0.002046  0.002060 -0.002672  0.000508 -0.000663
                                -0.000044  0.000057  0.000028 -0.000036

   2.2   0     0.0079   -1.1591 -0.000000  0.000000 -0.000000  0.000000 -0.000000  0.000001 -0.000004  0.000014 -0.000040  0.000107
                                -0.000283  0.000856 -0.003509  0.009708 -0.010583 -0.036871 -0.028966 -0.041183  0.061992  0.033277
                                 0.274916  0.027813 -0.286248  1.082073 -0.000100  0.000129 -0.000115  0.000148  0.000253 -0.000332
                                 0.000567 -0.000736  0.000499 -0.000645

   3.2   0     0.0217   -1.8298 -0.000000  0.000000 -0.000000  0.000000 -0.000000  0.000001 -0.000005  0.000014 -0.000040  0.000099
                                -0.000211  0.000171  0.002335 -0.005625 -0.072959 -0.001255  0.113888  0.020209 -0.008864 -0.351687
                                 0.143077  0.076796 -1.413507  1.163699  0.000203 -0.000262  0.000233 -0.000299 -0.000519  0.000679
                                -0.001133  0.001472 -0.001014  0.001312

                                   1 2py     1 2py     1 2py     1 2py     1 2py     1 2py     1 2py     1 2py     1 2py     1 2py  
                                   1 2py     1 2py     1 2py     1 2py     1 2py     1 2py     1 2py     1 2py     1 2py     1 2py  
                                   1 2py     1 2py     1 2py     1 2py     1 4f1-    1 4f3-    1 4f1-    1 4f3-    1 4f1-    1 4f3- 
                                   1 4f1-    1 4f3-    1 4f1-    1 4f3- 

   1.3   2    -1.8752  -11.3854  0.000000 -0.000000  0.000000 -0.000000  0.000002 -0.000006  0.000023 -0.000072  0.000211 -0.000593
                                 0.001760 -0.006971  0.038413 -0.098060 -0.168265  0.279959  0.549294  0.323877  0.045926 -0.003445
                                 0.002497  0.028417 -0.001043  0.000307  0.002958 -0.000730  0.004672 -0.000510  0.003724  0.001240
                                -0.000024  0.000032  0.000130  0.000030

   2.3   0     0.0077   -1.1962 -0.000000  0.000000 -0.000000  0.000000 -0.000000  0.000001 -0.000004  0.000014 -0.000040  0.000106
                                -0.000282  0.000860 -0.003583  0.009888 -0.009333 -0.037144 -0.031346 -0.042489  0.062309  0.042977
                                 0.278797  0.026685 -0.262002  1.057223  0.000009  0.000152  0.000433  0.000405  0.001645  0.000492
                                 0.001294 -0.000198  0.000498 -0.000511

   3.3   0     0.0211   -1.8143 -0.000000  0.000000 -0.000000  0.000000 -0.000000  0.000001 -0.000005  0.000014 -0.000039  0.000098
                                -0.000207  0.000166  0.002307 -0.005541 -0.071871 -0.001262  0.112340  0.021014 -0.008096 -0.352158
                                 0.132401  0.075563 -1.395432  1.180345 -0.000020 -0.000294 -0.000829 -0.000775 -0.003165 -0.000944
                                -0.002470  0.000352 -0.001159  0.000874

                                   1 3d2-    1 3d2-    1 3d2-    1 3d2-    1 3d2-    1 3d2-    1 3d2-    1 3d2-    1 3d2-    1 3d2- 
                                   1 3d2-    1 3d2-    1 3d2-    1 3d2-    1 3d2-    1 3d2-    1 3d2-    1 5g2-    1 5g4-    1 5g2- 
                                   1 5g4-    1 5g2-    1 5g4-    1 5g2-    1 5g4- 

   1.4   +    -0.4405   -7.4291 -0.000001  0.000006 -0.000028  0.000113 -0.000370  0.001272  0.000330 -0.013493  0.017364  0.260014
                                 0.378023  0.157308  0.022258  0.207023  0.187739 -0.002206  0.000670  0.001226 -0.000436  0.002679
                                -0.000556  0.001868  0.000128  0.000329  0.000053

   2.4   0     0.0236   -0.8734  0.000000 -0.000001  0.000007 -0.000028  0.000092 -0.000259  0.000612 -0.001325  0.003778 -0.071839
                                 0.025994 -0.050427  0.126112 -0.012175  0.058479 -0.353588  1.186040 -0.000015  0.000007 -0.000028
                                 0.000011 -0.000007 -0.000001  0.000002 -0.000086

   3.4   0     0.0791   -1.3720 -0.000001  0.000004 -0.000020  0.000079 -0.000253  0.000688 -0.002008  0.005849 -0.014356  0.203282
                                -0.130669  0.165452 -0.428961  0.015026 -0.212346  1.626248 -0.782595 -0.000083  0.000042 -0.000155
                                 0.000074 -0.000029 -0.000035  0.000016 -0.000518

                                   1 2pz     1 2pz     1 2pz     1 2pz     1 2pz     1 2pz     1 2pz     1 2pz     1 2pz     1 2pz  
                                   1 2pz     1 2pz     1 2pz     1 2pz     1 2pz     1 2pz     1 2pz     1 2pz     1 2pz     1 2pz  
                                   1 2pz     1 2pz     1 2pz     1 2pz     1 4f0     1 4f2+    1 4f0     1 4f2+    1 4f0     1 4f2+ 
                                   1 4f0     1 4f2+    1 4f0     1 4f2+ 

   1.5   2    -1.8752  -11.3854  0.000000 -0.000000  0.000000 -0.000000  0.000002 -0.000006  0.000023 -0.000072  0.000211 -0.000593
                                 0.001760 -0.006971  0.038413 -0.098060 -0.168264  0.279958  0.549287  0.323882  0.045929 -0.003447
                                 0.002497  0.028417 -0.001043  0.000307 -0.001238 -0.002791 -0.002459 -0.004014 -0.003255 -0.002189
                                -0.000010  0.000039 -0.000103 -0.000085

   2.5   0     0.0077   -1.1961 -0.000000  0.000000 -0.000000  0.000000 -0.000000  0.000001 -0.000004  0.000014 -0.000040  0.000106
                                -0.000282  0.000860 -0.003582  0.009886 -0.009339 -0.037141 -0.031332 -0.042482  0.062299  0.042932
                                 0.278784  0.026691 -0.262097  1.057325 -0.000125  0.000086 -0.000585 -0.000094 -0.001396 -0.001002
                                -0.000638 -0.001146  0.000098 -0.000707

   3.5   0     0.0211   -1.8143 -0.000000  0.000000 -0.000000  0.000000 -0.000000  0.000001 -0.000005  0.000014 -0.000039  0.000098
                                -0.000207  0.000166  0.002306 -0.005540 -0.071874 -0.001267  0.112338  0.021007 -0.008082 -0.352150
                                 0.132447  0.075567 -1.395528  1.180286  0.000244 -0.000164  0.001119  0.000182  0.002685  0.001930
                                 0.001237  0.002173  0.000021  0.001454

                                   1 3d1+    1 3d1+    1 3d1+    1 3d1+    1 3d1+    1 3d1+    1 3d1+    1 3d1+    1 3d1+    1 3d1+ 
                                   1 3d1+    1 3d1+    1 3d1+    1 3d1+    1 3d1+    1 3d1+    1 3d1+    1 5g1+    1 5g3+    1 5g1+ 
                                   1 5g3+    1 5g1+    1 5g3+    1 5g1+    1 5g3+ 

   1.6   +    -0.4404   -7.4290 -0.000001  0.000006 -0.000028  0.000113 -0.000370  0.001272  0.000330 -0.013493  0.017364  0.260004
                                 0.378023  0.157329  0.022269  0.207017  0.187736 -0.002207  0.000670 -0.000028 -0.001305 -0.000432
                                -0.002711 -0.000782 -0.001708 -0.000167 -0.000291

   2.6   0     0.0236   -0.8734  0.000000 -0.000001  0.000007 -0.000028  0.000092 -0.000259  0.000612 -0.001325  0.003778 -0.071839
                                 0.025993 -0.050428  0.126111 -0.012175  0.058479 -0.353588  1.186040 -0.000002  0.000016 -0.000000
                                 0.000031  0.000004  0.000006  0.000080 -0.000032

   3.6   0     0.0791   -1.3720 -0.000001  0.000004 -0.000020  0.000079 -0.000253  0.000688 -0.002008  0.005849 -0.014357  0.203283
                                -0.130673  0.165448 -0.428969  0.015025 -0.212349  1.626254 -0.782597 -0.000010  0.000093 -0.000014
                                 0.000172  0.000043  0.000015  0.000478 -0.000198

                                   1 3d1-    1 3d1-    1 3d1-    1 3d1-    1 3d1-    1 3d1-    1 3d1-    1 3d1-    1 3d1-    1 3d1- 
                                   1 3d1-    1 3d1-    1 3d1-    1 3d1-    1 3d1-    1 3d1-    1 3d1-    1 5g1-    1 5g3-    1 5g1- 
                                   1 5g3-    1 5g1-    1 5g3-    1 5g1-    1 5g3- 

   1.7   +    -0.4699   -7.5006 -0.000001  0.000006 -0.000029  0.000115 -0.000378  0.001295  0.000316 -0.013608  0.017178  0.265546
                                 0.376431  0.146413  0.018395  0.210209  0.189626 -0.001903  0.000569  0.000302 -0.000803  0.000570
                                -0.001510  0.000282 -0.000747  0.000042 -0.000112

   2.7   0     0.0236   -0.8736  0.000000 -0.000001  0.000007 -0.000028  0.000092 -0.000259  0.000612 -0.001331  0.003788 -0.071710
                                 0.026256 -0.050007  0.126522 -0.012078  0.058547 -0.353176  1.185761 -0.000004  0.000010 -0.000007
                                 0.000018 -0.000000  0.000000  0.000017 -0.000046

   3.7   0     0.0789   -1.3743 -0.000001  0.000004 -0.000020  0.000078 -0.000253  0.000686 -0.001998  0.005799 -0.014247  0.202724
                                -0.128979  0.167049 -0.423568  0.015245 -0.211181  1.622081 -0.781840 -0.000022  0.000058 -0.000040
                                 0.000105  0.000006 -0.000016  0.000105 -0.000280

                                   1 4f2-    1 4f2-    1 4f2-    1 4f2-    1 4f2- 

   1.8   0     0.1906   -1.6827  0.008420 -0.015684  0.087820 -0.253864  1.133558

   2.8   0     0.5151   -2.4251  0.006741  0.096068 -0.085854  1.320016 -0.677589

 HOMO      3.1    -0.430015 =     -11.7013eV
 LUMO      2.3     0.007716 =       0.2100eV
 LUMO-HOMO         0.437731 =      11.9113eV


 **********************************************************************************************************************************
 DATASETS  * FILE   NREC   LENGTH (MB)   RECORD NAMES
              1      19       20.43       500      610      700      900      950      970     1000      129      960     1100   
                                          VAR    BASINP    GEOM    SYMINP    ZMAT    AOBASIS   BASIS     P2S    ABASIS      S 
                                         1400     1410     1420     1200     1210     1080     1600     1650     1700   
                                           T        V       ECP      H0       H01     AOSYM     SMH    MOLCAS    OPER   

              2       5        5.68       200      700     1000      520     4202   
                                        OPTIONS   GEOM     BASIS   MCVARS     RHF  

 PROGRAMS   *        TOTAL       RHF       INT
 CPU TIMES  *        24.62      1.82     22.44
 REAL TIME  *        29.51 SEC
 DISK USED  *         1.39 GB      
 SF USED    *         0.04 MB      
 GA USED    *         0.00 MB       (max)       0.00 MB       (current)
 **********************************************************************************************************************************


 PROGRAM * POP (Mulliken population analysis)

 
 Density matrix read from record         4202.2  Type=RHF/CHARGE (state 1.1)
 
 Population analysis by basis function type

 Unique atom        s        p        d        f        g    Total    Charge
   1  MO      3.98913  5.99957  4.01076  0.00043  0.00011 14.00000  - 0.00000


 **********************************************************************************************************************************
 DATASETS  * FILE   NREC   LENGTH (MB)   RECORD NAMES
              1      19       20.43       500      610      700      900      950      970     1000      129      960     1100   
                                          VAR    BASINP    GEOM    SYMINP    ZMAT    AOBASIS   BASIS     P2S    ABASIS      S 
                                         1400     1410     1420     1200     1210     1080     1600     1650     1700   
                                           T        V       ECP      H0       H01     AOSYM     SMH    MOLCAS    OPER   

              2       5        5.68       200      700     1000      520     4202   
                                        OPTIONS   GEOM     BASIS   MCVARS     RHF  

 PROGRAMS   *        TOTAL       POP       RHF       INT
 CPU TIMES  *        24.62      0.00      1.82     22.44
 REAL TIME  *        29.52 SEC
 DISK USED  *         1.39 GB      
 SF USED    *         0.04 MB      
 GA USED    *         0.00 MB       (max)       0.00 MB       (current)
 **********************************************************************************************************************************


 PROGRAM * MULTI (Direct Multiconfiguration SCF)       Authors: P.J. Knowles, H.-J. Werner (1984)     S.T. Elbert (1988)


 Number of closed-shell orbitals:   5 (   2   1   1   0   1   0   0   0 )
 Number of active  orbitals:        5 (   2   0   0   1   0   1   1   0 )
 Number of external orbitals:     246 (  70  33  33  24  33  24  24   5 )

 State symmetry 1

 Number of electrons:     4    Spin symmetry=Quintet   Space symmetry=1
 Number of states:        2
 Number of CSFs:          2   (2 determinants, 5 intermediate states)

 State symmetry 2

 Number of electrons:     4    Spin symmetry=Quintet   Space symmetry=4
 Number of states:        1
 Number of CSFs:          1   (1 determinants, 5 intermediate states)

 State symmetry 3

 Number of electrons:     4    Spin symmetry=Quintet   Space symmetry=6
 Number of states:        1
 Number of CSFs:          1   (1 determinants, 5 intermediate states)

 State symmetry 4

 Number of electrons:     4    Spin symmetry=Quintet   Space symmetry=7
 Number of states:        1
 Number of CSFs:          1   (1 determinants, 5 intermediate states)

 Molecular orbitals read from record     4202.2  Type=RHF/CANONICAL (state 1.1)
 *** IN SYMMETRY 1 ORBITAL  1 SYMMETRY CONTAMINATION OF 0.895D-02 HAS BEEN REMOVED
 *** IN SYMMETRY 1 ORBITAL  2 SYMMETRY CONTAMINATION OF 0.783D-01 HAS BEEN REMOVED
 *** IN SYMMETRY 1 ORBITAL  3 SYMMETRY CONTAMINATION OF 0.446D+00 HAS BEEN REMOVED
 *** IN SYMMETRY 1 ORBITAL  4 SYMMETRY CONTAMINATION OF 0.368D+00 HAS BEEN REMOVED

 EXTRA SYMMETRY OF MOS IN SYMMETRY 1:   1 1 3 2 1 3 2 1 3 2   1 3 2 1 4 5 6 3 2 4   5 3 3 2 1 2 3 6 5 4   2 3 1 4 5 6 2 3 1 2
                                        3 2 3 1 1 2 3 1 2 3   1 2 3 1 1 2 3 1 2 3   1 1 2 1 1 1 1 1 1 1   1 1 1 6
 *** IN SYMMETRY 2 ORBITAL  1 SYMMETRY CONTAMINATION OF 0.622D-02 HAS BEEN REMOVED
 EXTRA SYMMETRY OF MOS IN SYMMETRY 2:   1 1 1 1 3 2 1 3 2 1   3 2 1 3 2 1 2 3 1 1   1 1 1 1 1 1 1 1 1 1   1 1 1 1
 *** IN SYMMETRY 3 ORBITAL  1 SYMMETRY CONTAMINATION OF 0.899D-02 HAS BEEN REMOVED
 EXTRA SYMMETRY OF MOS IN SYMMETRY 3:   1 1 1 1 2 3 1 3 2 1   3 2 1 2 3 1 2 3 1 1   1 1 1 1 1 1 1 1 1 1   1 1 1 1
 *** IN SYMMETRY 4 ORBITAL  1 SYMMETRY CONTAMINATION OF 0.579D-02 HAS BEEN REMOVED
 EXTRA SYMMETRY OF MOS IN SYMMETRY 4:   1 1 1 1 2 3 1 2 3 1   1 2 3 1 2 3 1 1 1 1   1 1 1 1 1
 *** IN SYMMETRY 5 ORBITAL  1 SYMMETRY CONTAMINATION OF 0.103D-01 HAS BEEN REMOVED
 EXTRA SYMMETRY OF MOS IN SYMMETRY 5:   1 1 1 1 3 2 1 3 2 1   3 2 1 3 2 1 2 3 1 1   1 1 1 1 1 1 1 1 1 1   1 1 1 1
 *** IN SYMMETRY 6 ORBITAL  1 SYMMETRY CONTAMINATION OF 0.591D-02 HAS BEEN REMOVED
 EXTRA SYMMETRY OF MOS IN SYMMETRY 6:   1 1 1 1 2 3 1 3 2 1   1 3 2 1 3 2 1 1 1 1   1 1 1 1 1
 *** IN SYMMETRY 7 ORBITAL  1 SYMMETRY CONTAMINATION OF 0.351D-02 HAS BEEN REMOVED
 EXTRA SYMMETRY OF MOS IN SYMMETRY 7:   1 1 1 1 2 3 1 2 3 1   1 2 3 1 2 3 1 1 1 1   1 1 1 1 1

 Wavefunction dump at record             5202.2

 Convergence thresholds  0.10E-01 (gradient)  0.10E-05 (energy)  0.10E-02 (step length)

 Weight factors for state symmetry  1:    0.20000   0.20000
 Weight factors for state symmetry  2:    0.20000
 Weight factors for state symmetry  3:    0.20000
 Weight factors for state symmetry  4:    0.20000

 Number of orbital rotations:      455   (     4 Core/Active    239 Core/Virtual   0 Active/Active    212 Active/Virtual)
 Total number of variables:        462


 ITER. MIC  NCI  NEG     ENERGY(VAR)     ENERGY(PROJ)   ENERGY CHANGE     GRAD(0)  GRAD(ORB)   GRAD(CI)     STEP       TIME

   1   47   16    0     -67.14032351     -67.25398090   -0.11365739    0.21249362 0.00000000 0.00000000  0.59D+00      0.20
   2   22   20    0     -67.25326107     -67.25362063   -0.00035956    0.02702128 0.00000000 0.00000000  0.22D-01      0.38
   3   29   20    0     -67.25362238     -67.25362240   -0.00000002    0.00017061 0.00000000 0.00000000  0.17D-03      0.54

 ** WVFN ****  CONVERGENCE REACHED, FINAL GRADIENT:  0.11D-07



 Results for state 1.1
 =====================

 !MCSCF STATE 1.1 Energy              -67.253622396898
 Nuclear energy                         0.00000000
 Kinetic energy                        23.20061982
 One electron energy                 -114.95046496
 Two electron energy                   47.69684257
 Virial ratio                           3.89878559

 !MCSCF STATE 1.1 Dipole moment         0.00000000     0.00000000     0.00000000
 Dipole moment /Debye                   0.00000000     0.00000000     0.00000000

 Results for state 2.1
 =====================

 !MCSCF STATE 2.1 Energy              -67.253622396869
 Nuclear energy                         0.00000000
 Kinetic energy                        23.20061983
 One electron energy                 -114.95046498
 Two electron energy                   47.69684258
 Virial ratio                           3.89878559

 !MCSCF STATE 2.1 Dipole moment         0.00000000     0.00000000     0.00000000
 Dipole moment /Debye                   0.00000000     0.00000000     0.00000000



 Results for state 1.4
 =====================

 !MCSCF STATE 1.4 Energy              -67.253622396900
 Nuclear energy                         0.00000000
 Kinetic energy                        23.20061982
 One electron energy                 -114.95046496
 Two electron energy                   47.69684257
 Virial ratio                           3.89878559

 !MCSCF STATE 1.4 Dipole moment         0.00000000     0.00000000     0.00000000
 Dipole moment /Debye                   0.00000000     0.00000000     0.00000000



 Results for state 1.6
 =====================

 !MCSCF STATE 1.6 Energy              -67.253622396825
 Nuclear energy                         0.00000000
 Kinetic energy                        23.20061982
 One electron energy                 -114.95046496
 Two electron energy                   47.69684256
 Virial ratio                           3.89878559

 !MCSCF STATE 1.6 Dipole moment         0.00000000     0.00000000     0.00000000
 Dipole moment /Debye                   0.00000000     0.00000000     0.00000000



 Results for state 1.7
 =====================

 !MCSCF STATE 1.7 Energy              -67.253622396823
 Nuclear energy                         0.00000000
 Kinetic energy                        23.20061982
 One electron energy                 -114.95046496
 Two electron energy                   47.69684257
 Virial ratio                           3.89878559

 !MCSCF STATE 1.7 Dipole moment         0.00000000     0.00000000     0.00000000
 Dipole moment /Debye                   0.00000000     0.00000000     0.00000000

 State-averaged charge density matrix saved on record  5202.2 (density set 1)


 NATURAL ORBITALS (state averaged)
 =================================

   Orb     Occ        Energy       Coefficients

                                   1 1s      1 1s      1 1s      1 1s      1 1s      1 1s      1 1s      1 1s      1 1s      1 1s   
                                   1 1s      1 1s      1 1s      1 1s      1 1s      1 1s      1 1s      1 1s      1 1s      1 1s   
                                   1 1s      1 1s      1 1s      1 1s      1 1s      1 1s      1 1s      1 1s      1 3d0     1 3d2+ 
                                   1 3d0     1 3d2+    1 3d0     1 3d2+    1 3d0     1 3d2+    1 3d0     1 3d2+    1 3d0     1 3d2+ 
                                   1 3d0     1 3d2+    1 3d0     1 3d2+    1 3d0     1 3d2+    1 3d0     1 3d2+    1 3d0     1 3d2+ 
                                   1 3d0     1 3d2+    1 3d0     1 3d2+    1 3d0     1 3d2+    1 3d0     1 3d2+    1 3d0     1 3d2+ 
                                   1 3d0     1 3d2+    1 5g0     1 5g4+    1 5g2+    1 5g0     1 5g4+    1 5g2+    1 5g0     1 5g4+ 
                                   1 5g2+    1 5g0     1 5g4+    1 5g2+ 

   1.1  2.00000    -3.031802    -0.000000  0.000000 -0.000000  0.000000 -0.000000  0.000000 -0.000001  0.000003 -0.000010  0.000028
                                -0.000076  0.000196 -0.000498  0.001250 -0.003135  0.007974 -0.020213  0.026742  0.161816 -0.580460
                                -0.134347  0.813770  0.525378  0.030485 -0.013762  0.005684 -0.002215  0.000518  0.000000  0.000000
                                 0.000000  0.000000  0.000000  0.000000  0.000000  0.000000  0.000000  0.000000  0.000000  0.000000
                                 0.000000  0.000000  0.000000  0.000000  0.000000  0.000000  0.000000  0.000000  0.000000  0.000000
                                 0.000000  0.000000  0.000000  0.000000  0.000000  0.000000  0.000000  0.000000  0.000000  0.000000
                                 0.000000  0.000000  0.000000  0.000000  0.000000  0.000000  0.000000  0.000000  0.000000  0.000000
                                 0.000000  0.000000  0.000000  0.000000

   2.1  2.00000    -0.233087     0.000000 -0.000000  0.000000 -0.000000  0.000000 -0.000000  0.000000 -0.000001  0.000003 -0.000009
                                 0.000024 -0.000061  0.000156 -0.000391  0.000985 -0.002526  0.006538 -0.009580 -0.049050  0.195845
                                 0.031123 -0.324010 -0.355476  0.252736  0.632847  0.312207 -0.002755  0.002684  0.000000  0.000000
                                 0.000000  0.000000  0.000000  0.000000  0.000000  0.000000  0.000000  0.000000  0.000000  0.000000
                                 0.000000  0.000000  0.000000  0.000000  0.000000  0.000000  0.000000  0.000000  0.000000  0.000000
                                 0.000000  0.000000  0.000000  0.000000  0.000000  0.000000  0.000000  0.000000  0.000000  0.000000
                                 0.000000  0.000000  0.000000  0.000000  0.000000  0.000000  0.000000  0.000000  0.000000  0.000000
                                 0.000000  0.000000  0.000000  0.000000

   3.1  0.80000    -0.094330     0.000000  0.000000  0.000000  0.000000  0.000000  0.000000  0.000000  0.000000  0.000000  0.000000
                                 0.000000  0.000000  0.000000  0.000000  0.000000  0.000000  0.000000  0.000000  0.000000  0.000000
                                 0.000000  0.000000  0.000000  0.000000  0.000000  0.000000  0.000000  0.000000 -0.000001  0.000000
                                 0.000006  0.000000 -0.000028  0.000000  0.000114  0.000000 -0.000372  0.000000  0.001277  0.000000
                                 0.000327  0.000000 -0.013517  0.000000  0.017349  0.000000  0.261049  0.000000  0.377585  0.000000
                                 0.155321  0.000000  0.021623  0.000000  0.207688  0.000000  0.188139  0.000000 -0.002161  0.000000
                                 0.000656  0.000000  0.000000  0.000000  0.000000  0.000000  0.000000  0.000000  0.000000  0.000000
                                 0.000000  0.000000  0.000000  0.000000

   4.1  0.80000    -0.094330     0.000000  0.000000  0.000000  0.000000  0.000000  0.000000  0.000000  0.000000  0.000000  0.000000
                                 0.000000  0.000000  0.000000  0.000000  0.000000  0.000000  0.000000  0.000000  0.000000  0.000000
                                 0.000000  0.000000  0.000000  0.000000  0.000000  0.000000  0.000000  0.000000  0.000000 -0.000001
                                 0.000000  0.000006  0.000000 -0.000028  0.000000  0.000114  0.000000 -0.000372  0.000000  0.001277
                                 0.000000  0.000327  0.000000 -0.013517  0.000000  0.017349  0.000000  0.261049  0.000000  0.377585
                                 0.000000  0.155321  0.000000  0.021623  0.000000  0.207688  0.000000  0.188139  0.000000 -0.002161
                                 0.000000  0.000656  0.000000  0.000000  0.000000  0.000000  0.000000  0.000000  0.000000  0.000000
                                 0.000000  0.000000  0.000000  0.000000

                                   1 2px     1 2px     1 2px     1 2px     1 2px     1 2px     1 2px     1 2px     1 2px     1 2px  
                                   1 2px     1 2px     1 2px     1 2px     1 2px     1 2px     1 2px     1 2px     1 2px     1 2px  
                                   1 2px     1 2px     1 2px     1 2px     1 4f1+    1 4f3+    1 4f1+    1 4f3+    1 4f1+    1 4f3+ 
                                   1 4f1+    1 4f3+    1 4f1+    1 4f3+ 

   1.2  2.00000    -1.874465     0.000000 -0.000000  0.000000 -0.000000  0.000002 -0.000006  0.000023 -0.000072  0.000212 -0.000594
                                 0.001762 -0.006975  0.038420 -0.098126 -0.167768  0.280168  0.547904  0.324778  0.046703 -0.003648
                                 0.002556  0.028039 -0.001074  0.000317  0.000000  0.000000  0.000000  0.000000  0.000000  0.000000
                                 0.000000  0.000000  0.000000  0.000000

                                   1 2py     1 2py     1 2py     1 2py     1 2py     1 2py     1 2py     1 2py     1 2py     1 2py  
                                   1 2py     1 2py     1 2py     1 2py     1 2py     1 2py     1 2py     1 2py     1 2py     1 2py  
                                   1 2py     1 2py     1 2py     1 2py     1 4f1-    1 4f3-    1 4f1-    1 4f3-    1 4f1-    1 4f3- 
                                   1 4f1-    1 4f3-    1 4f1-    1 4f3- 

   1.3  2.00000    -1.874465     0.000000 -0.000000  0.000000 -0.000000  0.000002 -0.000006  0.000023 -0.000072  0.000212 -0.000594
                                 0.001762 -0.006975  0.038420 -0.098126 -0.167768  0.280168  0.547904  0.324778  0.046703 -0.003648
                                 0.002556  0.028039 -0.001074  0.000317  0.000000  0.000000  0.000000  0.000000  0.000000  0.000000
                                 0.000000  0.000000  0.000000  0.000000

                                   1 3d2-    1 3d2-    1 3d2-    1 3d2-    1 3d2-    1 3d2-    1 3d2-    1 3d2-    1 3d2-    1 3d2- 
                                   1 3d2-    1 3d2-    1 3d2-    1 3d2-    1 3d2-    1 3d2-    1 3d2-    1 5g2-    1 5g4-    1 5g2- 
                                   1 5g4-    1 5g2-    1 5g4-    1 5g2-    1 5g4- 

   1.4  0.80000    -0.094330    -0.000001  0.000006 -0.000028  0.000114 -0.000372  0.001277  0.000327 -0.013517  0.017349  0.261049
                                 0.377585  0.155321  0.021623  0.207688  0.188139 -0.002161  0.000656  0.000000  0.000000  0.000000
                                 0.000000  0.000000  0.000000  0.000000  0.000000

                                   1 2pz     1 2pz     1 2pz     1 2pz     1 2pz     1 2pz     1 2pz     1 2pz     1 2pz     1 2pz  
                                   1 2pz     1 2pz     1 2pz     1 2pz     1 2pz     1 2pz     1 2pz     1 2pz     1 2pz     1 2pz  
                                   1 2pz     1 2pz     1 2pz     1 2pz     1 4f0     1 4f2+    1 4f0     1 4f2+    1 4f0     1 4f2+ 
                                   1 4f0     1 4f2+    1 4f0     1 4f2+ 

   1.5  2.00000    -1.874465     0.000000 -0.000000  0.000000 -0.000000  0.000002 -0.000006  0.000023 -0.000072  0.000212 -0.000594
                                 0.001762 -0.006975  0.038420 -0.098126 -0.167768  0.280168  0.547904  0.324778  0.046703 -0.003648
                                 0.002556  0.028039 -0.001074  0.000317  0.000000  0.000000  0.000000  0.000000  0.000000  0.000000
                                 0.000000  0.000000  0.000000  0.000000

                                   1 3d1+    1 3d1+    1 3d1+    1 3d1+    1 3d1+    1 3d1+    1 3d1+    1 3d1+    1 3d1+    1 3d1+ 
                                   1 3d1+    1 3d1+    1 3d1+    1 3d1+    1 3d1+    1 3d1+    1 3d1+    1 5g1+    1 5g3+    1 5g1+ 
                                   1 5g3+    1 5g1+    1 5g3+    1 5g1+    1 5g3+ 

   1.6  0.80000    -0.094330    -0.000001  0.000006 -0.000028  0.000114 -0.000372  0.001277  0.000327 -0.013517  0.017349  0.261049
                                 0.377585  0.155321  0.021623  0.207688  0.188139 -0.002161  0.000656  0.000000  0.000000  0.000000
                                 0.000000  0.000000  0.000000  0.000000  0.000000

                                   1 3d1-    1 3d1-    1 3d1-    1 3d1-    1 3d1-    1 3d1-    1 3d1-    1 3d1-    1 3d1-    1 3d1- 
                                   1 3d1-    1 3d1-    1 3d1-    1 3d1-    1 3d1-    1 3d1-    1 3d1-    1 5g1-    1 5g3-    1 5g1- 
                                   1 5g3-    1 5g1-    1 5g3-    1 5g1-    1 5g3- 

   1.7  0.80000    -0.094330    -0.000001  0.000006 -0.000028  0.000114 -0.000372  0.001277  0.000327 -0.013517  0.017349  0.261049
                                 0.377585  0.155321  0.021623  0.207688  0.188139 -0.002161  0.000656  0.000000  0.000000  0.000000
                                 0.000000  0.000000  0.000000  0.000000  0.000000
 

 EXTRA SYMMETRY OF MOS IN SYMMETRY 1:   1 1 2 3 1 2 3 1 3 2   1 3 2 1 5 6 4 3 2 5   6 4 3 2 1 3 2 6 4 5   2 3 1 4 6 5 2 3 1 2
                                        3 2 3 1 1 2 3 1 2 3   1 2 3 1 1 2 3 1 2 3   1 1 2 3 1 1 1 1 1 1   1 1 1 1
 EXTRA SYMMETRY OF MOS IN SYMMETRY 2:   1 1 1 1 2 3 1 3 2 1   3 2 1 2 3 1 2 3 1 1   1 1 1 1 1 1 1 1 1 1   1 1 1 1
 EXTRA SYMMETRY OF MOS IN SYMMETRY 3:   1 1 1 1 3 2 1 2 3 1   3 2 1 3 2 1 2 3 1 1   1 1 1 1 1 1 1 1 1 1   1 1 1 1
 EXTRA SYMMETRY OF MOS IN SYMMETRY 4:   1 1 1 1 3 2 1 3 2 1   1 2 3 1 2 3 1 1 1 1   1 1 1 1 1
 EXTRA SYMMETRY OF MOS IN SYMMETRY 5:   1 1 1 1 3 2 1 2 3 1   3 2 1 3 2 1 2 3 1 1   1 1 1 1 1 1 1 1 1 1   1 1 1 1
 EXTRA SYMMETRY OF MOS IN SYMMETRY 6:   1 1 1 1 3 2 1 3 2 1   1 2 3 1 2 3 1 1 1 1   1 1 1 1 1
 EXTRA SYMMETRY OF MOS IN SYMMETRY 7:   1 1 1 1 3 2 1 3 2 1   1 2 3 1 2 3 1 1 1 1   1 1 1 1 1

 Natural orbital dump (state averaged) at molpro section  5202.2    (Orbital set 2)


 CI vector for state symmetry 1
 ==============================

 0a a a a          0.1535554   0.9881400
 a0 a a a          0.9881400  -0.1535554

 TOTAL ENERGIES                       -67.25362240   -67.25362240

 CI vector for state symmetry 2
 ==============================

 aa 0 a a          1.0000000

 TOTAL ENERGIES                       -67.25362240

 CI vector for state symmetry 3
 ==============================

 aa a 0 a          1.0000000

 TOTAL ENERGIES                       -67.25362240

 CI vector for state symmetry 4
 ==============================

 aa a a 0          1.0000000

 TOTAL ENERGIES                       -67.25362240



 **********************************************************************************************************************************
 DATASETS  * FILE   NREC   LENGTH (MB)   RECORD NAMES
              1      20       26.43       500      610      700      900      950      970     1000      129      960     1100   
                                          VAR    BASINP    GEOM    SYMINP    ZMAT    AOBASIS   BASIS     P2S    ABASIS      S 
                                         1400     1410     1420     1200     1210     1080     1600     1650     1700     1380   
                                           T        V       ECP      H0       H01     AOSYM     SMH    MOLCAS    OPER     JKOP   

              2       6        8.57       200      700     1000      520     4202     5202   
                                        OPTIONS   GEOM     BASIS   MCVARS     RHF     MCSCF   

 PROGRAMS   *        TOTAL     MULTI       POP       RHF       INT
 CPU TIMES  *        25.34      0.72      0.00      1.82     22.44
 REAL TIME  *        31.30 SEC
 DISK USED  *         1.39 GB      
 SF USED    *        32.14 MB      
 GA USED    *         0.00 MB       (max)       0.00 MB       (current)
 **********************************************************************************************************************************


 PROGRAM * RHF-SCF (OPEN SHELL)       Authors: W. Meyer, H.-J. Werner


 NUMBER OF ELECTRONS:       9+    5-    SPACE SYMMETRY=1    SPIN SYMMETRY: Quintet 
 CONVERGENCE THRESHOLDS:    1.00E-05 (Density)    1.00E-07 (Energy)
 MAX. NUMBER OF ITERATIONS:        0
 INTERPOLATION TYPE:            DIIS
 INTERPOLATION STEPS:              2 (START)      1 (STEP)
 LEVEL SHIFTS:                 -0.60 (CLOSED) -0.30 (OPEN) 

 Number of closed-shell orbitals:    5 (   2   1   1   0   1   0   0   0 )
 Number of open-shell orbitals:      4 (   1   0   0   1   0   1   1   0 )


 
 Extra symmetries of mos in symmetry 1:   1   1   3   2
 Molecular orbitals read from record     5202.2  Type=MCSCF/NATURAL (state averaged)

 Molecular orbital dump at record        2111.2

 ITERATION    DDIFF          GRAD             ENERGY        2-EL.EN.            DIPOLE MOMENTS         DIIS   ORB.
    1      0.000D+00      0.000D+00       -67.25362240     95.393685    0.00000    0.00000    0.00000    0    start

 Final alpha occupancy:   3   1   1   1   1   1   1   0
 Final beta  occupancy:   2   1   1   0   1   0   0   0

 !RHF STATE 1.1 Energy                -67.253622396869
 Nuclear energy                         0.00000000
 One-electron energy                 -114.95046498
 Two-electron energy                   47.69684258
 Virial quotient                       -2.89878559
 !RHF STATE 1.1 Dipole moment           0.00000000     0.00000000     0.00000000
 Dipole moment /Debye                   0.00000000     0.00000000     0.00000000

 Orbital energies:

         1.1          2.1          3.1          4.1          5.1
     -3.031802    -0.233087    -0.094330    -0.094330     0.008617

         1.2          2.2          3.2
     -1.874465     0.008433     0.024319

         1.3          2.3          3.3
     -1.874465     0.008433     0.024319

         1.4          2.4          3.4
     -0.094330     0.023611     0.079658

         1.5          2.5          3.5
     -1.874465     0.008433     0.024319

         1.6          2.6          3.6
     -0.094330     0.023611     0.079658

         1.7          2.7          3.7
     -0.094330     0.023611     0.079658

         1.8          2.8
      0.191122     0.529209

 HOMO      3.1    -0.094330 =      -2.5668eV
 LUMO      4.1    -0.094330 =      -2.5668eV
 LUMO-HOMO        -0.000000 =      -0.0000eV


 **********************************************************************************************************************************
 DATASETS  * FILE   NREC   LENGTH (MB)   RECORD NAMES
              1      20       26.43       500      610      700      900      950      970     1000      129      960     1100   
                                          VAR    BASINP    GEOM    SYMINP    ZMAT    AOBASIS   BASIS     P2S    ABASIS      S 
                                         1400     1410     1420     1200     1210     1080     1600     1650     1700     1380   
                                           T        V       ECP      H0       H01     AOSYM     SMH    MOLCAS    OPER     JKOP   

              2       7       11.64       200      700     1000      520     4202     5202     2111   
                                        OPTIONS   GEOM     BASIS   MCVARS     RHF     MCSCF     RHF  

 PROGRAMS   *        TOTAL       RHF     MULTI       POP       RHF       INT
 CPU TIMES  *        25.60      0.26      0.72      0.00      1.82     22.44
 REAL TIME  *        32.13 SEC
 DISK USED  *         1.39 GB      
 SF USED    *        32.14 MB      
 GA USED    *         0.00 MB       (max)       0.00 MB       (current)
 **********************************************************************************************************************************
 SETTING SCF(1)         =       -67.25362240  AU                              
 SETTING _CC_NORM_MAX   =         2.00000000                                  


 PROGRAM * CCSD (Restricted open-shell coupled cluster)     Authors: C. Hampel, H.-J. Werner, 1991, M. Deegan, P.J. Knowles, 1992


 Convergence thresholds:  THRVAR = 1.00D-08  THRDEN = 1.00D-06

 CCSD(T)     terms to be evaluated (factor= 1.000)


 Number of closed-shell orbitals:   5 (   2   1   1   0   1   0   0   0 )
 Number of active  orbitals:        4 (   1   0   0   1   0   1   1   0 )
 Number of external orbitals:     247 (  71  33  33  24  33  24  24   5 )

 Memory could be reduced to 33.67 Mwords without degradation in triples

 Number of N-1 electron functions:              14
 Number of N-2 electron functions:              91
 Number of singly external CSFs:               633
 Number of doubly external CSFs:            554905
 Total number of CSFs:                      555538

 Molecular orbitals read from record     2111.2  Type=RHF/CANONICAL (state 1.1)

 Integral transformation finished. Total CPU:   0.64 sec, npass=  1  Memory used:   5.85 MW

 Starting RMP2 calculation

 Wavefunction is spin-projected

 ITER.      SQ.NORM     CORR.ENERGY   TOTAL ENERGY   ENERGY CHANGE        DEN1      VAR(S)    VAR(P)  DIIS     TIME
   1      1.12675060    -0.46832298   -67.72194537    -0.46832298    -0.00206730  0.12D-03  0.14D-02  1  1     0.77
   2      1.13104128    -0.47061869   -67.72424108    -0.00229571    -0.00003798  0.13D-04  0.33D-04  2  2     0.88
   3      1.13182540    -0.47085024   -67.72447263    -0.00023155    -0.00000111  0.13D-05  0.34D-06  3  3     0.97
   4      1.13190414    -0.47086312   -67.72448552    -0.00001289    -0.00000006  0.76D-07  0.16D-07  4  4     1.11
   5      1.13190575    -0.47086208   -67.72448447     0.00000105    -0.00000000  0.10D-08  0.61D-09  5  5     1.18
   6      1.13190669    -0.47086222   -67.72448462    -0.00000015    -0.00000000  0.83D-11  0.23D-10  6  6     1.35

 Norm of t1 vector:      0.06368791      S-energy:    -0.00669449      T1 diagnostic:  0.00741338
 Norm of t2 vector:      0.35756194      P-energy:    -0.46416773
                                         Alpha-Beta:  -0.32327421
                                         Alpha-Alpha: -0.10450983
                                         Beta-Beta:   -0.03638369

 Spin contamination <S**2-Sz**2-Sz>     0.00000000
  Reference energy                    -67.253622396869
  RHF-RMP2 correlation energy          -0.470862221566
 !RHF-RMP2 energy                     -67.724484618435
 (NB above energy spin projected)

 Starting RCCSD calculation

 ITER.      SQ.NORM     CORR.ENERGY   TOTAL ENERGY   ENERGY CHANGE        DEN1      VAR(S)    VAR(P)  DIIS     TIME
   1      1.12484904    -0.46290635   -67.71652875    -0.46290635    -0.00858039  0.28D-02  0.26D-02  1  1     1.99
   2      1.14086659    -0.47148293   -67.72510533    -0.00857658    -0.00107217  0.57D-03  0.55D-03  2  2     2.29
   3      1.15188440    -0.47358458   -67.72720698    -0.00210165    -0.00025311  0.22D-03  0.10D-03  3  3     2.60
   4      1.16159682    -0.47501413   -67.72863653    -0.00142955    -0.00006428  0.63D-04  0.24D-04  4  4     2.92
   5      1.16576541    -0.47532629   -67.72894869    -0.00031216    -0.00004006  0.50D-04  0.98D-05  5  5     3.25
   6      1.16998167    -0.47548486   -67.72910726    -0.00015857    -0.00003013  0.44D-04  0.39D-05  6  6     3.59
   7      1.17570945    -0.47561950   -67.72924190    -0.00013464    -0.00002632  0.41D-04  0.29D-05  7  7     3.93
   8      1.18244503    -0.47571096   -67.72933335    -0.00009145    -0.00002457  0.38D-04  0.30D-05  8  8     4.28
   9      1.21464330    -0.47596941   -67.72959181    -0.00025845    -0.00002141  0.32D-04  0.33D-05  9  9     4.63
  10      1.24767384    -0.47607986   -67.72970226    -0.00011045    -0.00001911  0.26D-04  0.44D-05 10 10     5.08
  11      1.34193679    -0.47626866   -67.72989106    -0.00018880    -0.00001410  0.14D-04  0.70D-05 11 11     5.51
  12      1.55424461    -0.47616028   -67.72978268     0.00010838    -0.00000628  0.44D-05  0.40D-05 12 12     5.99
  13      1.55543854    -0.47623844   -67.72986083    -0.00007816    -0.00000566  0.34D-05  0.41D-05 13 13     6.59
  14      1.63415725    -0.47627975   -67.72990214    -0.00004131    -0.00000113  0.55D-06  0.80D-06 14 14     6.95
  15      1.66519819    -0.47625099   -67.72987339     0.00002876    -0.00000019  0.78D-07  0.14D-06 15 15     7.37
  16      1.69139507    -0.47620831   -67.72983071     0.00004268    -0.00000003  0.81D-08  0.30D-07 15  1     7.72
  17      1.68480411    -0.47622659   -67.72984899    -0.00001828    -0.00000001  0.14D-08  0.55D-08 15  2     8.27
  18      1.68731706    -0.47622083   -67.72984323     0.00000576    -0.00000000  0.17D-09  0.11D-08 15  3     8.72
  19      1.68610251    -0.47622120   -67.72984359    -0.00000036    -0.00000000  0.81D-10  0.12D-09 15  4     9.21

 Norm of t1 vector:      0.71052527      S-energy:    -0.01073048      T1 diagnostic:  0.13354245
                                                                       D1 diagnostic:  0.49907089
 Norm of t2 vector:      0.42574212      P-energy:    -0.46549072
                                         Alpha-Beta:  -0.33595165
                                         Alpha-Alpha: -0.09689816
                                         Beta-Beta:   -0.03264091

 Singles amplitudes (print threshold =  0.500E-01):

         I         SYM. A    A   T(IA) [Alpha-Alpha]

         2         1         2      0.52061082
         2         1         6     -0.05706927
         2         1         9     -0.07571767
         2         1        12      0.05219724
 
         I         SYM. A    A   T(IA) [Beta-Beta]

         2         1         2      0.45844020

 Doubles amplitudes (print threshold =  0.500E-01):

         I         J         SYM. A    SYM. B    A         B      T(IJ, AB) [Alpha-Beta]

         2         2         1         1         2         2     -0.12921298
         2         2         5         5         2         2     -0.05552310
         2         2         5         5         2         3     -0.05746723
         2         2         5         5         3         2     -0.05746723
         2         2         5         5         3         3     -0.05996094

 Spin contamination <S**2-Sz**2-Sz>     0.00000000

 Memory could be reduced to 35.36 Mwords without degradation in triples
 

  Correlated core orbitals:             1.1       1.2       1.3       1.5
  Orbital energies:                    -3.1382   -2.0221   -2.0221   -1.9912
 
  RCCSD core-core energy               -0.180347478631
  RCCSD core-valence energy            -0.191703547651
  RCCSD valence correlation energy     -0.104170170868
 

 RESULTS
 =======

  Reference energy                    -67.253622396869
  RCCSD singles energy                 -0.010730480088
  RCCSD pair energy                    -0.465490717061
  RCCSD correlation energy             -0.476221197149
  Triples (T) contribution             -0.021105518938
  Total correlation energy             -0.497326716088
 
  RHF-RCCSD energy                    -67.729843594019
  RHF-RCCSD[T] energy                 -67.756940513242
  RHF-RCCSD-T energy                  -67.744323240888
 !RHF-RCCSD(T) energy                 -67.750949112957

 Program statistics:

 Available memory in ccsd:               999999162
 Min. memory needed in ccsd:               1845183
 Max. memory used in ccsd:                 2501290
 Max. memory used in cckext:               1956937 (19 integral passes)
 Max. memory used in cckint:               5848146 ( 1 integral passes)



 **********************************************************************************************************************************
 DATASETS  * FILE   NREC   LENGTH (MB)   RECORD NAMES
              1      20       26.43       500      610      700      900      950      970     1000      129      960     1100   
                                          VAR    BASINP    GEOM    SYMINP    ZMAT    AOBASIS   BASIS     P2S    ABASIS      S 
                                         1400     1410     1420     1200     1210     1080     1600     1650     1700     1380   
                                           T        V       ECP      H0       H01     AOSYM     SMH    MOLCAS    OPER     JKOP   

              2       7       11.64       200      700     1000      520     4202     5202     2111   
                                        OPTIONS   GEOM     BASIS   MCVARS     RHF     MCSCF     RHF  

 PROGRAMS   *        TOTAL  RCCSD(T)       RHF     MULTI       POP       RHF       INT
 CPU TIMES  *        40.09     14.46      0.26      0.72      0.00      1.82     22.44
 REAL TIME  *        59.54 SEC
 DISK USED  *         3.45 GB      
 SF USED    *       511.68 MB      
 GA USED    *         0.00 MB       (max)       0.00 MB       (current)
 **********************************************************************************************************************************
 SETTING CCSD(1)        =       -67.75094911  AU                              

 DO I                   =         2.00000000   

 Running procedure=ID5S1


 PROGRAM * RHF-SCF (OPEN SHELL)       Authors: W. Meyer, H.-J. Werner


 NUMBER OF ELECTRONS:      10+    4-    SPACE SYMMETRY=1    SPIN SYMMETRY: Septet  
 CONVERGENCE THRESHOLDS:    1.00E-05 (Density)    1.00E-07 (Energy)
 MAX. NUMBER OF ITERATIONS:       60
 INTERPOLATION TYPE:            DIIS
 INTERPOLATION STEPS:              2 (START)      1 (STEP)
 LEVEL SHIFTS:                 -0.60 (CLOSED) -0.30 (OPEN) 

 Number of closed-shell orbitals:    4 (   1   1   1   0   1   0   0   0 )
 Number of open-shell orbitals:      6 (   3   0   0   1   0   1   1   0 )


 
 Extra symmetries of mos in symmetry 1:   1   3   2   1
 Orbital guess generated from atomic densities. Full valence occupancy:    4   1   1   1   1   1   1   0


 Molecular orbital dump at record        4202.2

 ITERATION    DDIFF          GRAD             ENERGY        2-EL.EN.            DIPOLE MOMENTS         DIIS   ORB.
    1      0.000D+00      0.000D+00       -67.24644825     92.866279    0.00000    0.00000    0.00000    0    start
    2      0.000D+00      0.831D-02       -67.33085062     97.831490    0.00000    0.00000    0.00000    1    diag,B
    3      0.395D-02      0.430D-02       -67.33801681     97.733797    0.00000    0.00000    0.00000    2    diag,B
    4      0.157D-02      0.169D-02       -67.34177920     98.055251    0.00000    0.00000    0.00000    3    diag,B
    5      0.182D-02      0.345D-03       -67.34217703     98.183610    0.00000    0.00000    0.00000    4    diag,B
    6      0.903D-03      0.758D-04       -67.34220749     98.198779    0.00000    0.00000    0.00000    5    diag,B
    7      0.276D-03      0.267D-04       -67.34221325     98.205310    0.00000    0.00000    0.00000    6    fixocc
    8      0.124D-03      0.100D-04       -67.34221419     98.207788    0.00000    0.00000    0.00000    7    diag,B
    9      0.504D-04      0.369D-05       -67.34221430     98.208239    0.00000    0.00000    0.00000    8    diag,B
   10      0.128D-04      0.777D-06       -67.34221430     98.208454    0.00000    0.00000    0.00000    9    orth
   11      0.753D-05      0.215D-06       -67.34221430     98.208460    0.00000    0.00000    0.00000    0    orth

 Final alpha occupancy:   4   1   1   1   1   1   1   0
 Final beta  occupancy:   1   1   1   0   1   0   0   0

 !RHF STATE 1.1 Energy                -67.342214304347
 Nuclear energy                         0.00000000
 One-electron energy                 -116.44644422
 Two-electron energy                   49.10422992
 Virial quotient                       -2.82940243
 !RHF STATE 1.1 Dipole moment           0.00000000     0.00000000     0.00000000
 Dipole moment /Debye                   0.00000000     0.00000000     0.00000000

 ELECTRON ORBITALS
 =================


   Orb  Occ    Energy  Couls-En    Coefficients

                                   1 1s      1 1s      1 1s      1 1s      1 1s      1 1s      1 1s      1 1s      1 1s      1 1s   
                                   1 1s      1 1s      1 1s      1 1s      1 1s      1 1s      1 1s      1 1s      1 1s      1 1s   
                                   1 1s      1 1s      1 1s      1 1s      1 1s      1 1s      1 1s      1 1s      1 3d0     1 3d2+ 
                                   1 3d0     1 3d2+    1 3d0     1 3d2+    1 3d0     1 3d2+    1 3d0     1 3d2+    1 3d0     1 3d2+ 
                                   1 3d0     1 3d2+    1 3d0     1 3d2+    1 3d0     1 3d2+    1 3d0     1 3d2+    1 3d0     1 3d2+ 
                                   1 3d0     1 3d2+    1 3d0     1 3d2+    1 3d0     1 3d2+    1 3d0     1 3d2+    1 3d0     1 3d2+ 
                                   1 3d0     1 3d2+    1 5g0     1 5g4+    1 5g2+    1 5g0     1 5g4+    1 5g2+    1 5g0     1 5g4+ 
                                   1 5g2+    1 5g0     1 5g4+    1 5g2+ 

   1.1   2    -2.8937  -13.6815 -0.000000  0.000000 -0.000000  0.000000 -0.000000  0.000000 -0.000001  0.000003 -0.000010  0.000027
                                -0.000073  0.000188 -0.000478  0.001201 -0.003017  0.007700 -0.019600  0.025565  0.162783 -0.580158
                                -0.126667  0.792288  0.536814  0.041497 -0.024542  0.007950 -0.003827  0.000902 -0.000000  0.000000
                                 0.000000 -0.000000 -0.000000  0.000000  0.000000 -0.000000 -0.000000  0.000000  0.000000 -0.000000
                                -0.000000  0.000000  0.000000  0.000000 -0.000000 -0.000000  0.000000  0.000000 -0.000000 -0.000000
                                 0.000000  0.000000  0.000000 -0.000000  0.000000  0.000000 -0.000000 -0.000000 -0.000000 -0.000000
                                 0.000000 -0.000000  0.000000  0.000000  0.000000  0.000000  0.000000  0.000000 -0.000000 -0.000000
                                -0.000000 -0.000000 -0.000000 -0.000000

   2.1   +    -0.3428   -7.1071  0.000000 -0.000000  0.000000 -0.000000  0.000000 -0.000000 -0.000000  0.000000 -0.000000  0.000000
                                -0.000000  0.000000 -0.000000  0.000000 -0.000000  0.000000 -0.000000  0.000000  0.000000 -0.000000
                                -0.000000  0.000000  0.000000 -0.000000 -0.000000 -0.000000 -0.000000  0.000000  0.000000  0.000001
                                -0.000000 -0.000005  0.000001  0.000026 -0.000006 -0.000102  0.000019  0.000335 -0.000064 -0.001156
                                -0.000022 -0.000388  0.000711  0.012757 -0.000908 -0.016304 -0.013102 -0.235186 -0.021039 -0.377647
                                -0.011658 -0.209253 -0.002675 -0.048015 -0.010663 -0.191399 -0.009939 -0.178397  0.000199  0.003564
                                -0.000071 -0.001266 -0.000000  0.000000 -0.000000  0.000000 -0.000000  0.000000 -0.000000  0.000000
                                -0.000000  0.000000 -0.000000  0.000000

   3.1   +    -0.3428   -7.1071 -0.000000  0.000000 -0.000000  0.000000 -0.000000  0.000000 -0.000000  0.000000 -0.000000 -0.000000
                                 0.000000 -0.000000  0.000000 -0.000000  0.000000 -0.000000  0.000000 -0.000000 -0.000000  0.000000
                                 0.000000 -0.000000 -0.000000  0.000000  0.000000  0.000000  0.000000  0.000000  0.000001 -0.000000
                                -0.000005  0.000000  0.000026 -0.000001 -0.000102  0.000006  0.000335 -0.000019 -0.001156  0.000064
                                -0.000388  0.000022  0.012757 -0.000711 -0.016304  0.000908 -0.235186  0.013102 -0.377647  0.021039
                                -0.209253  0.011658 -0.048015  0.002675 -0.191399  0.010663 -0.178397  0.009939  0.003564 -0.000199
                                -0.001266  0.000071 -0.000000  0.000000 -0.000000  0.000000  0.000000 -0.000000 -0.000000 -0.000000
                                 0.000000  0.000000 -0.000000  0.000000

   4.1   +    -0.2374   -4.3872  0.000000 -0.000000  0.000000 -0.000000  0.000000 -0.000000  0.000000 -0.000001  0.000003 -0.000008
                                 0.000022 -0.000058  0.000147 -0.000369  0.000932 -0.002403  0.006259 -0.009011 -0.049682  0.195635
                                 0.030238 -0.319259 -0.356379  0.234284  0.657464  0.301589 -0.001577  0.002057 -0.000000  0.000000
                                 0.000000 -0.000000 -0.000000  0.000000  0.000000 -0.000000 -0.000000  0.000000  0.000000 -0.000000
                                -0.000000 -0.000000 -0.000000  0.000000  0.000000 -0.000000  0.000000 -0.000000  0.000000 -0.000000
                                 0.000000 -0.000000  0.000000 -0.000000  0.000000 -0.000000  0.000000 -0.000000 -0.000000  0.000000
                                 0.000000 -0.000000 -0.000000 -0.000000 -0.000000  0.000000  0.000000  0.000000 -0.000000 -0.000000
                                -0.000000  0.000000  0.000000  0.000000

   5.1   0     0.0086   -0.9313 -0.000000  0.000000 -0.000000  0.000000 -0.000000  0.000000 -0.000000  0.000000 -0.000001  0.000004
                                -0.000010  0.000025 -0.000062  0.000154 -0.000371  0.000873 -0.001989  0.003645 -0.000162 -0.010704
                                -0.017751  0.054999  0.005154  0.115324 -0.449549  0.729464 -1.694219  1.965742  0.000000  0.000000
                                -0.000000 -0.000000  0.000000  0.000000 -0.000000  0.000000 -0.000000 -0.000000  0.000000  0.000000
                                -0.000000 -0.000000  0.000000  0.000000 -0.000000 -0.000000  0.000000  0.000000 -0.000000 -0.000000
                                 0.000000  0.000000 -0.000000  0.000000  0.000000  0.000000 -0.000000 -0.000000  0.000000 -0.000000
                                -0.000000  0.000000 -0.000000 -0.000000 -0.000000  0.000000  0.000000  0.000000 -0.000000 -0.000000
                                -0.000000  0.000000  0.000000  0.000000

   6.1   0     0.0236   -0.8726 -0.000000  0.000000 -0.000000  0.000000 -0.000000  0.000000 -0.000000  0.000000 -0.000000  0.000000
                                -0.000000  0.000000 -0.000000  0.000000  0.000000 -0.000000  0.000000 -0.000000  0.000000 -0.000000
                                 0.000000  0.000000  0.000000 -0.000000  0.000000 -0.000000  0.000000  0.000000  0.000000  0.000000
                                -0.000001 -0.000000  0.000007  0.000001 -0.000029 -0.000005  0.000092  0.000015 -0.000261 -0.000043
                                 0.000603  0.000099 -0.001266 -0.000209  0.003682  0.000606 -0.071661 -0.011802  0.024003  0.003953
                                -0.051870 -0.008543  0.122878  0.020238 -0.012666 -0.002086  0.057118  0.009407 -0.350928 -0.057797
                                 1.171560  0.192952  0.000000 -0.000000  0.000000 -0.000000  0.000000 -0.000000  0.000000 -0.000000
                                 0.000000 -0.000000  0.000000 -0.000000

                                   1 2px     1 2px     1 2px     1 2px     1 2px     1 2px     1 2px     1 2px     1 2px     1 2px  
                                   1 2px     1 2px     1 2px     1 2px     1 2px     1 2px     1 2px     1 2px     1 2px     1 2px  
                                   1 2px     1 2px     1 2px     1 2px     1 4f1+    1 4f3+    1 4f1+    1 4f3+    1 4f1+    1 4f3+ 
                                   1 4f1+    1 4f3+    1 4f1+    1 4f3+ 

   1.2   2    -1.7499  -11.2331  0.000000 -0.000000  0.000000 -0.000000  0.000002 -0.000007  0.000023 -0.000074  0.000216 -0.000605
                                 0.001788 -0.007009  0.038282 -0.097781 -0.161482  0.280584  0.534142  0.334131  0.056010 -0.005079
                                 0.003251  0.021435 -0.001408  0.000417  0.000000  0.000000 -0.000000  0.000000  0.000000  0.000000
                                 0.000000 -0.000000  0.000000 -0.000000

   2.2   0     0.0081   -1.0961 -0.000000  0.000000 -0.000000  0.000000 -0.000000  0.000001 -0.000005  0.000014 -0.000041  0.000109
                                -0.000284  0.000831 -0.003221  0.008935 -0.014456 -0.035355 -0.020011 -0.039243  0.051005  0.015961
                                 0.270820  0.031242 -0.318477  1.116659  0.000000 -0.000000  0.000000 -0.000000  0.000000 -0.000000
                                 0.000000 -0.000000 -0.000000 -0.000000

   3.2   0     0.0229   -1.7831 -0.000000  0.000000 -0.000000  0.000000 -0.000000  0.000001 -0.000005  0.000015 -0.000043  0.000107
                                -0.000233  0.000256  0.001860 -0.004292 -0.071143 -0.005132  0.103922  0.017367  0.015455 -0.343643
[...]

 PROGRAMS   *        TOTAL       RHF     MULTI       POP       RHF  RCCSD(T)       RHF  RCCSD(T)       RHF     MULTI       POP
 CPU TIMES  *       165.68      0.06      0.20      0.00      0.50      2.72      0.47      4.22      0.06      0.56      0.00
 REAL TIME  *       279.48 SEC
 DISK USED  *         3.54 GB      
 SF USED    *       577.30 MB      
 GA USED    *         0.00 MB       (max)       0.00 MB       (current)
 **********************************************************************************************************************************
 SETTING SCF(15)        =       -43.93096452  AU                              
 SETTING _CC_NORM_MAX   =         2.00000000                                  


 PROGRAM * CCSD (Restricted open-shell coupled cluster)     Authors: C. Hampel, H.-J. Werner, 1991, M. Deegan, P.J. Knowles, 1992


 Convergence thresholds:  THRVAR = 1.00D-08  THRDEN = 1.00D-06

 CCSD(T)     terms to be evaluated (factor= 1.000)


 Number of closed-shell orbitals:   1 (   1   0   0   0   0   0   0   0 )
 Number of active  orbitals:        3 (   0   1   1   0   1   0   0   0 )
 Number of external orbitals:     252 (  73  33  33  25  33  25  25   5 )

 Memory could be reduced to 22.65 Mwords without degradation in triples

 Number of N-1 electron functions:               5
 Number of N-2 electron functions:              10
 Number of singly external CSFs:               248
 Number of doubly external CSFs:             60788
 Total number of CSFs:                       61036

 Molecular orbitals read from record     2128.2  Type=RHF/CANONICAL (state 1.8)

 Integral transformation finished. Total CPU:   0.34 sec, npass=  1  Memory used:   2.98 MW

 Starting RMP2 calculation

 Wavefunction is spin-projected

 ITER.      SQ.NORM     CORR.ENERGY   TOTAL ENERGY   ENERGY CHANGE        DEN1      VAR(S)    VAR(P)  DIIS     TIME
   1      1.02302109    -0.12822063   -44.05918516    -0.12822063    -0.00022252  0.48D-07  0.43D-04  1  1     0.38
   2      1.02312451    -0.12845570   -44.05942022    -0.00023507    -0.00000005  0.20D-10  0.60D-08  2  2     0.38
   3      1.02312508    -0.12845644   -44.05942096    -0.00000074    -0.00000000  0.91D-15  0.19D-11  3  3     0.39

 Norm of t1 vector:      0.00844756      S-energy:    -0.00040097      T1 diagnostic:  0.00015666
 Norm of t2 vector:      0.15183451      P-energy:    -0.12805547
                                         Alpha-Beta:  -0.09721411
                                         Alpha-Alpha: -0.03084136
                                         Beta-Beta:    0.00000000

 Spin contamination <S**2-Sz**2-Sz>     0.00000000
  Reference energy                    -43.930964522173
  RHF-RMP2 correlation energy          -0.128456440489
 !RHF-RMP2 energy                     -44.059420962662
 (NB above energy spin projected)

 Starting RCCSD calculation

 ITER.      SQ.NORM     CORR.ENERGY   TOTAL ENERGY   ENERGY CHANGE        DEN1      VAR(S)    VAR(P)  DIIS     TIME
   1      1.02814814    -0.13957069   -44.07053522    -0.13957069    -0.00295033  0.14D-04  0.56D-03  1  1     0.47
   2      1.02989406    -0.14273057   -44.07369509    -0.00315987    -0.00003894  0.14D-06  0.63D-05  2  2     0.57
   3      1.03005236    -0.14290658   -44.07387110    -0.00017602    -0.00000063  0.24D-08  0.10D-06  3  3     0.67
   4      1.03006991    -0.14292690   -44.07389143    -0.00002032    -0.00000000  0.78D-10  0.46D-09  4  4     0.75
   5      1.03006990    -0.14292633   -44.07389085     0.00000057    -0.00000000  0.13D-12  0.23D-11  5  5     0.85

 Norm of t1 vector:      0.00948196      S-energy:    -0.00038902      T1 diagnostic:  0.00145709
                                                                       D1 diagnostic:  0.00209503
 Norm of t2 vector:      0.17314731      P-energy:    -0.14253731
                                         Alpha-Beta:  -0.11100901
                                         Alpha-Alpha: -0.03152830
                                         Beta-Beta:    0.00000000

 Spin contamination <S**2-Sz**2-Sz>     0.00000000

 Memory could be reduced to 23.19 Mwords without degradation in triples
 

  Correlated core orbitals:             1.1       1.2       1.3       1.5
  Orbital energies:                    -8.2214   -6.9004   -6.9004   -6.9004
 
  RCCSD core-core energy               -0.142926331389
 

 RESULTS
 =======

  Reference energy                    -43.930964522173
  RCCSD singles energy                 -0.000389020756
  RCCSD pair energy                    -0.142537310633
  RCCSD correlation energy             -0.142926331389
  Triples (T) contribution             -0.003071232644
  Total correlation energy             -0.145997564033
 
  RHF-RCCSD energy                    -44.073890853562
  RHF-RCCSD[T] energy                 -44.076960807087
  RHF-RCCSD-T energy                  -44.076960655569
 !RHF-RCCSD(T) energy                 -44.076962086206

 Program statistics:

 Available memory in ccsd:               999999732
 Min. memory needed in ccsd:                483476
 Max. memory used in ccsd:                  537222
 Max. memory used in cckext:                553794 ( 5 integral passes)
 Max. memory used in cckint:               2980326 ( 1 integral passes)



 **********************************************************************************************************************************
 DATASETS  * FILE   NREC   LENGTH (MB)   RECORD NAMES
              1      20       28.70       500      610      700      900      950      970     1000      129      960     1100   
                                          VAR    BASINP    GEOM    SYMINP    ZMAT    AOBASIS   BASIS     P2S    ABASIS      S 
                                         1400     1410     1420     1200     1210     1080     1600     1650     1700     1380   
                                           T        V       ECP      H0       H01     AOSYM     SMH    MOLCAS    OPER     JKOP   

              2      22       52.94       200      700     1000      520     4202     5202     2111     2101     2105     2107   
                                        OPTIONS   GEOM     BASIS   MCVARS     RHF     MCSCF     RHF      RHF      RHF      RHF  
                                         2109     2103     5202(1)  2113     2115     2117     2119     2121     2123     2125   
                                          RHF      RHF     MCSCF     RHF      RHF      RHF      RHF      RHF      RHF      RHF  
                                         2126     2128   
                                          RHF      RHF  

 PROGRAMS   *        TOTAL  RCCSD(T)       RHF     MULTI       POP       RHF  RCCSD(T)       RHF  RCCSD(T)       RHF     MULTI
 CPU TIMES  *       167.29      1.60      0.06      0.20      0.00      0.50      2.72      0.47      4.22      0.06      0.56
 REAL TIME  *       282.06 SEC
 DISK USED  *         3.54 GB      
 SF USED    *       577.30 MB      
 GA USED    *         0.00 MB       (max)       0.00 MB       (current)
 **********************************************************************************************************************************
 SETTING CCSD(15)       =       -44.07696209  AU                              

 DO I                   =        16.00000000   

 Running procedure=XIIIS2


 PROGRAM * RHF-SCF (CLOSED SHELL)       Authors: W. Meyer, H.-J. Werner


 NUMBER OF ELECTRONS:       1+    1-    SPACE SYMMETRY=1    SPIN SYMMETRY: Singlet 
 CONVERGENCE THRESHOLDS:    1.00E-05 (Density)    1.00E-07 (Energy)
 MAX. NUMBER OF ITERATIONS:       60
 INTERPOLATION TYPE:            DIIS
 INTERPOLATION STEPS:              2 (START)      1 (STEP)
 LEVEL SHIFTS:                  0.00 (CLOSED)  0.00 (OPEN) 

 Number of closed-shell orbitals:    1 (   1   0   0   0   0   0   0   0 )


 Orbital guess generated from atomic densities. Full valence occupancy:    4   1   1   1   1   1   1   0


 Molecular orbital dump at record        2129.2

 ITERATION    DDIFF          GRAD             ENERGY        2-EL.EN.            DIPOLE MOMENTS         DIIS   ORB.
    1      0.000D+00      0.000D+00       -20.76959905      1.598103    0.00000    0.00000    0.00000    0    start
    2      0.000D+00      0.105D+00       -21.11435060      1.775150    0.00000    0.00000    0.00000    1    diag
    3      0.297D-01      0.952D-02       -21.11713839      1.791129    0.00000    0.00000    0.00000    2    diag
    4      0.374D-02      0.569D-04       -21.11713847      1.791210    0.00000    0.00000    0.00000    3    diag
    5      0.282D-04      0.170D-05       -21.11713847      1.791208    0.00000    0.00000    0.00000    4    diag
    6      0.841D-06      0.400D-07       -21.11713847      1.791208    0.00000    0.00000    0.00000    0    orth

 Final occupancy:   1   0   0   0   0   0   0   0

 !RHF STATE 1.1 Energy                -21.117138466495
 Nuclear energy                         0.00000000
 One-electron energy                  -22.01274234
 Two-electron energy                    0.89560387
 Virial quotient                       -5.63151514
 !RHF STATE 1.1 Dipole moment           0.00000000     0.00000000     0.00000000
 Dipole moment /Debye                   0.00000000     0.00000000     0.00000000

 Orbital energies:

         1.1          2.1          3.1
    -10.110767    -6.483290    -6.483290

         1.2          2.2
     -8.319517    -4.684072

         1.3          2.3
     -8.319517    -4.684072

         1.4          2.4
     -6.483290    -3.777180

         1.5          2.5
     -8.319517    -4.684072

         1.6          2.6
     -6.483290    -3.777180

         1.7          2.7
     -6.483290    -3.777180

         1.8          2.8
     -4.684072    -2.968093

 HOMO      1.1   -10.110767 =    -275.1280eV
 LUMO      1.2    -8.319517 =    -226.3856eV
 LUMO-HOMO         1.791251 =      48.7424eV


 **********************************************************************************************************************************
 DATASETS  * FILE   NREC   LENGTH (MB)   RECORD NAMES
              1      20       28.70       500      610      700      900      950      970     1000      129      960     1100   
                                          VAR    BASINP    GEOM    SYMINP    ZMAT    AOBASIS   BASIS     P2S    ABASIS      S 
                                         1400     1410     1420     1200     1210     1080     1600     1650     1700     1380   
                                           T        V       ECP      H0       H01     AOSYM     SMH    MOLCAS    OPER     JKOP   

              2      23       55.79       200      700     1000      520     4202     5202     2111     2101     2105     2107   
                                        OPTIONS   GEOM     BASIS   MCVARS     RHF     MCSCF     RHF      RHF      RHF      RHF  
                                         2109     2103     5202(1)  2113     2115     2117     2119     2121     2123     2125   
                                          RHF      RHF     MCSCF     RHF      RHF      RHF      RHF      RHF      RHF      RHF  
                                         2126     2128     2129   
                                          RHF      RHF      RHF  

 PROGRAMS   *        TOTAL       RHF  RCCSD(T)       RHF     MULTI       POP       RHF  RCCSD(T)       RHF  RCCSD(T)       RHF
 CPU TIMES  *       167.80      0.50      1.60      0.06      0.20      0.00      0.50      2.72      0.47      4.22      0.06
 REAL TIME  *       282.67 SEC
 DISK USED  *         3.54 GB      
 SF USED    *       577.30 MB      
 GA USED    *         0.00 MB       (max)       0.00 MB       (current)
 **********************************************************************************************************************************
 SETTING SCF(16)        =       -21.11713847  AU                              
 SETTING _CC_NORM_MAX   =         2.00000000                                  


 PROGRAM * CCSD (Restricted open-shell coupled cluster)     Authors: C. Hampel, H.-J. Werner, 1991, M. Deegan, P.J. Knowles, 1992


 Convergence thresholds:  THRVAR = 1.00D-08  THRDEN = 1.00D-06

 CCSD(T)     terms to be evaluated (factor= 1.000)


 Number of closed-shell orbitals:   1 (   1   0   0   0   0   0   0   0 )
 Number of external orbitals:     255 (  73  34  34  25  34  25  25   5 )

 Memory could be reduced to 16.47 Mwords without degradation in triples

 Number of N-1 electron functions:               2
 Number of N-2 electron functions:               1
 Number of singly external CSFs:               146
 Number of doubly external CSFs:             10697
 Total number of CSFs:                       10843

 Molecular orbitals read from record     2129.2  Type=RHF/CANONICAL (state 1.1)

 Integral transformation finished. Total CPU:   0.09 sec, npass=  1  Memory used:   1.19 MW

 Starting RMP2 calculation

 Wavefunction is spin-projected

 ITER.      SQ.NORM     CORR.ENERGY   TOTAL ENERGY   ENERGY CHANGE        DEN1      VAR(S)    VAR(P)  DIIS     TIME
   1      1.01243901    -0.05366533   -21.17080380    -0.05366533    -0.00011058  0.26D-18  0.28D-04  1  1     0.11
   2      1.01250158    -0.05378158   -21.17092004    -0.00011625    -0.00000001  0.42D-22  0.10D-08  2  2     0.11
   3      1.01250179    -0.05378187   -21.17092033    -0.00000029    -0.00000000  0.20D-25  0.24D-13  3  3     0.11

 Norm of t1 vector:      0.00000001      S-energy:    -0.00000000      T1 diagnostic:  0.00000001
 Norm of t2 vector:      0.11181142      P-energy:    -0.05378187
                                         Alpha-Beta:  -0.05378187
                                         Alpha-Alpha:  0.00000000
                                         Beta-Beta:    0.00000000

 Spin contamination <S**2-Sz**2-Sz>     0.00000000
  Reference energy                    -21.117138466495
  RHF-RMP2 correlation energy          -0.053781865245
 !RHF-RMP2 energy                     -21.170920331739
 (NB above energy spin projected)

 Starting RCCSD calculation

 ITER.      SQ.NORM     CORR.ENERGY   TOTAL ENERGY   ENERGY CHANGE        DEN1      VAR(S)    VAR(P)  DIIS     TIME
   1      1.01729511    -0.06054334   -21.17768181    -0.06054334    -0.00309977  0.48D-05  0.76D-03  1  1     0.14
   2      1.02077283    -0.06483383   -21.18197230    -0.00429049    -0.00003335  0.31D-07  0.51D-05  2  2     0.16
   3      1.02102278    -0.06508156   -21.18222002    -0.00024772    -0.00000020  0.51D-09  0.21D-07  3  3     0.19
   4      1.02102535    -0.06508222   -21.18222069    -0.00000067    -0.00000000  0.86D-13  0.11D-09  4  4     0.22

 Norm of t1 vector:      0.00296194      S-energy:    -0.00000000      T1 diagnostic:  0.00148097
                                                                       D1 diagnostic:  0.00209441
 Norm of t2 vector:      0.14497095      P-energy:    -0.06508222
                                         Alpha-Beta:  -0.06508222
                                         Alpha-Alpha:  0.00000000
                                         Beta-Beta:    0.00000000

 Doubles amplitudes (print threshold =  0.500E-01):

         I         J         SYM. A    SYM. B    A         B      T(IJ, AB) [Alpha-Beta]

         1         1         2         2         1         1     -0.08119519
         1         1         3         3         1         1     -0.08119519
         1         1         5         5         1         1     -0.08119519

 Spin contamination <S**2-Sz**2-Sz>     0.00000000

 Memory could be reduced to 16.25 Mwords without degradation in triples
 

  Correlated core orbitals:             1.1
  Orbital energies:                   -10.1108
 
  RCCSD core-core energy               -0.065082222978
 

 RESULTS
 =======

  Reference energy                    -21.117138466495
  RCCSD singles energy                 -0.000000000175
  RCCSD pair energy                    -0.065082222803
  RCCSD correlation energy             -0.065082222978
  Triples (T) contribution              0.000000000000
  Total correlation energy             -0.065082222978
 
  RHF-RCCSD energy                    -21.182220689472
  RHF-RCCSD[T] energy                 -21.182220689472
  RHF-RCCSD-T energy                  -21.182220689472
 !RHF-RCCSD(T) energy                 -21.182220689472

 Program statistics:

 Available memory in ccsd:               999999882
 Min. memory needed in ccsd:                305597
 Max. memory used in ccsd:                  305597
 Max. memory used in cckext:                399463 ( 4 integral passes)
 Max. memory used in cckint:               1191926 ( 1 integral passes)



 **********************************************************************************************************************************
 DATASETS  * FILE   NREC   LENGTH (MB)   RECORD NAMES
              1      20       28.70       500      610      700      900      950      970     1000      129      960     1100   
                                          VAR    BASINP    GEOM    SYMINP    ZMAT    AOBASIS   BASIS     P2S    ABASIS      S 
                                         1400     1410     1420     1200     1210     1080     1600     1650     1700     1380   
                                           T        V       ECP      H0       H01     AOSYM     SMH    MOLCAS    OPER     JKOP   

              2      23       55.79       200      700     1000      520     4202     5202     2111     2101     2105     2107   
                                        OPTIONS   GEOM     BASIS   MCVARS     RHF     MCSCF     RHF      RHF      RHF      RHF  
                                         2109     2103     5202(1)  2113     2115     2117     2119     2121     2123     2125   
                                          RHF      RHF     MCSCF     RHF      RHF      RHF      RHF      RHF      RHF      RHF  
                                         2126     2128     2129   
                                          RHF      RHF      RHF  

 PROGRAMS   *        TOTAL  RCCSD(T)       RHF  RCCSD(T)       RHF     MULTI       POP       RHF  RCCSD(T)       RHF  RCCSD(T)
 CPU TIMES  *       168.24      0.44      0.50      1.60      0.06      0.20      0.00      0.50      2.72      0.47      4.22
 REAL TIME  *       283.34 SEC
 DISK USED  *         3.54 GB      
 SF USED    *       577.30 MB      
 GA USED    *         0.00 MB       (max)       0.00 MB       (current)
 **********************************************************************************************************************************
 SETTING CCSD(16)       =       -21.18222069  AU                              
 Output type csv         
                                                                                                                                                                                                                                                                

       SCF,CCSD
   -67.25362240,   -67.75094911
   -67.34221430,   -67.80730412
   -67.23583762,   -67.68707313
   -67.31685981,   -67.83191365
   -67.09369572,   -67.54630785
   -67.11328586,   -67.54646614
   -66.89322457,   -67.36924755
   -66.55481366,   -66.95805169
   -65.59405587,   -65.96526838
   -64.15223127,   -64.49558659
   -62.18836503,   -62.50648401
   -61.35789159,   -61.67468371
   -60.92383953,   -61.28220157
   -59.70735422,   -59.99334754
   -43.93096452,   -44.07696209
   -21.11713847,   -21.18222069
                                                  

 RCCSD(T)/USERDEF energy=    -21.182220689472

        RCCSD(T)        RHF-SCF         RCCSD(T)        RHF-SCF         MULTI           RHF-SCF         RCCSD(T)        RHF-SCF 
    -21.18222069    -21.11713847    -44.07696209    -43.93096452    -43.93096452    -43.93096452    -59.99334754    -59.70735422
 **********************************************************************************************************************************
 Molpro calculation terminated
 Variable memory released
