
 Primary working directories    : /global/cscratch1/sd/mcbennet
 Secondary working directories  : /global/cscratch1/sd/mcbennet
 Wavefunction directory         : /global/homes/m/mcbennet/wfu/
 Main file repository           : /global/cscratch1/sd/mcbennet/

 SHA1      : 19cd028119e0e09f93f0674bd8af7968d9b3eff6
 NAME      : 2015.1.36
 ARCHNAME  : linux/x86_64
 FC        : /opt/cray/pe/craype/2.5.14/bin/ftn
 BLASLIB   : -L/opt/intel/compilers_and_libraries_2018.1.163/linux/mkl/lib/intel64 -Wl,-_start-group -lmkl_intel_ilp64 -lmkl_intel_thread -lmkl_core -Wl,-_end-group -liomp5
 id        : lbl

 Nodes     nprocs
 nid01976    11
 Number of processes for MPI-2 version of Molpro:   nprocs(total)=   12   nprocs(compute)=   11   nprocs(helper)=    1

 Using customized tuning parameters: mindgm=7; mindgv=16; mindgc=1; mindgr=1; noblas=0; minvec=7
 default implementation of scratch files=sf  

 ***,Calculation for all-electron AgO molecule, SCF and CCSD(T)
 memory,1,g
 gthresh,twoint=1.0E-12
 
 set,dkroll=1,dkho=10,dkhp=4
 
 basis={
 Including file /global/cscratch1/sd/mcbennet/Repos/Heavy_PPs/Te/01_SRL/01_All_Electron/02_DKH_UC/molpro/molecules/teh/aug-cc-pwcvqz-dk3_unc_mod/r_inf/Te.aug-cc-pwcvqz-dk3.1.unc.mod.mpro
 Including file /global/cscratch1/sd/mcbennet/Repos/Heavy_PPs/Te/01_SRL/01_All_Electron/02_DKH_UC/molpro/molecules/teh/aug-cc-pwcvqz-dk3_unc_mod/r_inf/H.aug-cc-pVQZ-DK.mpro
 }
 
 geometry={
     1
     Te atom
     Te 0.0 0.0 0.0
 }
 {rhf;
  start,atden
  print,orbitals=2
  wf,52,7,2
  occ,9,4,4,2,4,2,2,0
  closed,9,4,3,2,3,2,2,0
 }
 Te_scf=energy
 _CC_NORM_MAX=2.0
 {rccsd(t);maxit,200;thresh,coeff=1d-3,energy=1d-5;core,8,3,3,2,3,2,2,0}
 Te_ccsd=energy
 
 
 geometry={
    1
    Hydrogen
    H 0.0 0.0 0.0
 }
 {rhf;
  start,atden
  wf,1,1,1;
  occ,1,0,0,0,0,0,0,0;
  closed,0,0,0,0,0,0,0,0;
 }
 H_scf=energy
 _CC_NORM_MAX=2.0
 {rccsd(t);maxit,100;core}
 H_ccsd=energy
 
 
 
 table,Te_scf,Te_ccsd,H_scf,H_ccsd
 save
 type,csv
 

 Variables initialized (889), CPU time= 0.01 sec
 Commands  initialized (702), CPU time= 0.01 sec, 572 directives.
 Default parameters read. Elapsed time= 0.18 sec

 Checking input...
 Passed
1


                                         ***  PROGRAM SYSTEM MOLPRO  ***
                                       Copyright, TTI GmbH Stuttgart, 2015
                                    Version 2015.1 linked Dec 29 2018 15:55:43


 **********************************************************************************************************************************
 LABEL *   Calculation for all-electron AgO molecule, SCF and CCSD(T)                    
  64 bit mpp version                                                                     DATE: 01-Oct-21          TIME: 05:07:55  
 **********************************************************************************************************************************

 SHA1:             19cd028119e0e09f93f0674bd8af7968d9b3eff6
 **********************************************************************************************************************************

 THRESHOLDS:

 ZERO    =  1.00D-12  ONEINT  =  1.00D-12  TWOINT  =  1.00D-12  PREFAC  =  1.00D-14  LOCALI  =  1.00D-09  EORDER  =  1.00D-04
 ENERGY  =  0.00D+00  ETEST   =  0.00D+00  EDENS   =  0.00D+00  THRDEDEF=  1.00D-06  GRADIENT=  1.00D-02  STEP    =  1.00D-03
 ORBITAL =  1.00D-05  CIVEC   =  1.00D-05  COEFF   =  1.00D-04  PRINTCI =  5.00D-02  PUNCHCI =  9.90D+01  OPTGRAD =  3.00D-04
 OPTENERG=  1.00D-06  OPTSTEP =  3.00D-04  THRGRAD =  1.00D-10  COMPRESS=  1.00D-11  VARMIN  =  1.00D-07  VARMAX  =  1.00D-03
 THRDOUB =  0.00D+00  THRDIV  =  1.00D-05  THRRED  =  1.00D-07  THRPSP  =  1.00D+00  THRDC   =  1.00D-10  THRCS   =  1.00D-10
 THRNRM  =  1.00D-08  THREQ   =  0.00D+00  THRDE   =  1.00D+00  THRREF  =  1.00D-05  SPARFAC =  1.00D+00  THRDLP  =  1.00D-07
 THRDIA  =  1.00D-10  THRDLS  =  1.00D-07  THRGPS  =  0.00D+00  THRKEX  =  0.00D+00  THRDIS  =  2.00D-01  THRVAR  =  1.00D-10
 THRLOC  =  1.00D-06  THRGAP  =  1.00D-06  THRLOCT = -1.00D+00  THRGAPT = -1.00D+00  THRORB  =  1.00D-06  THRMLTP =  0.00D+00
 THRCPQCI=  1.00D-10  KEXTA   =  0.00D+00  THRCOARS=  0.00D+00  SYMTOL  =  1.00D-06  GRADTOL =  1.00D-06  THROVL  =  1.00D-08
 THRORTH =  1.00D-08  GRID    =  1.00D-06  GRIDMAX =  1.00D-03  DTMAX   =  0.00D+00  THROCCDE=  1.00D-01  THROCCDE=  1.00D-01


 SETTING DKROLL         =         1.00000000                                  
 SETTING DKHO           =        10.00000000                                  
 SETTING DKHP           =         4.00000000                                  

 Variable memory set to 1000000000 words,  buffer space   230000 words

 SETTING BASIS          =    USERDEF

Geometry recognized as XYZ



 Recomputing integrals since basis changed


 Using spherical harmonics



 PROGRAM * SEWARD (Integral evaluation for generally contracted gaussian basis sets)     Author: Roland Lindh, 1990

 Geometry written to block  1 of record 700

 Orientation using atomic masses  
 Molecule type: Atom
 Symmetry elements: X,Y,Z
 Rotational constants:       0.0000000      0.0000000      0.0000000 GHz  (calculated with average atomic masses)

 Point group  D2h 



 ATOMIC COORDINATES

 NR  ATOM    CHARGE       X              Y              Z

   1  TE     52.00    0.000000000    0.000000000    0.000000000

 NUCLEAR CHARGE:                   52
 NUMBER OF PRIMITIVE AOS:         362
 NUMBER OF SYMMETRY AOS:          291
 NUMBER OF CONTRACTIONS:          291   (  82Ag  +  40B3u +  40B2u +  27B1g +  40B1u +  27B2g +  27B3g +   8Au  )
 NUMBER OF CORE ORBITALS:          23   (   8Ag  +   3B3u +   3B2u +   2B1g +   3B1u +   2B2g +   2B3g +   0Au  )
 NUMBER OF VALENCE ORBITALS:        4   (   1Ag  +   1B3u +   1B2u +   0B1g +   1B1u +   0B2g +   0B3g +   0Au  )


 NUCLEAR REPULSION ENERGY    0.00000000

 One-electron integrals computed with SEWARD

 10nd-order Douglas-Kroll-Hess method activated. McWeeny DKH parametrization is used.

 Computing Douglas-Kroll / X2C integrals

 AO integral compression algorithm  1   Integral accuracy      1.0D-12

     553.124 MB (compressed) written to integral file ( 32.9%)

     Node minimum: 17.564 MB, node maximum: 113.246 MB


 NUMBER OF SORTED TWO-ELECTRON INTEGRALS:   10685508.     BUFFER LENGTH:  32768
 NUMBER OF SEGMENTS:   1  SEGMENT LENGTH:   10685508      RECORD LENGTH: 524288

 Memory used in sort:      11.24 MW

 SORT1 READ   210339881. AND WROTE     5630457. INTEGRALS IN     17 RECORDS. CPU TIME:     4.15 SEC, REAL TIME:     4.52 SEC
 SORT2 READ    61971172. AND WROTE   117403651. INTEGRALS IN   2948 RECORDS. CPU TIME:     1.19 SEC, REAL TIME:     1.35 SEC

 Node minimum:    10594680.  Node maximum:    10788551. integrals

 OPERATOR DM      FOR CENTER  0  COORDINATES:    0.000000    0.000000    0.000000

 EXTRA SYMMETRY OF AOS IN SYMMETRY 1:   1 1 1 1 1 1 1 1 1 1   1 1 1 1 1 1 1 1 1 1   1 1 1 1 1 1 1 1 1 1   1 1 2 3 2 3 2 3 2 3
                                        2 3 2 3 2 3 2 3 2 3   2 3 2 3 2 3 2 3 2 3   2 3 2 3 2 3 2 3 2 3   4 5 6 4 5 6 4 5 6 4
                                        5 6
 EXTRA SYMMETRY OF AOS IN SYMMETRY 2:   1 1 1 1 1 1 1 1 1 1   1 1 1 1 1 1 1 1 1 1   1 1 1 1 1 2 3 2 3 2   3 2 3 2 3 2 3 4 5 6
 EXTRA SYMMETRY OF AOS IN SYMMETRY 3:   1 1 1 1 1 1 1 1 1 1   1 1 1 1 1 1 1 1 1 1   1 1 1 1 1 2 3 2 3 2   3 2 3 2 3 2 3 4 5 6
 EXTRA SYMMETRY OF AOS IN SYMMETRY 4:   1 1 1 1 1 1 1 1 1 1   1 1 1 1 1 1 1 1 1 2   3 2 3 2 3 2 3
 EXTRA SYMMETRY OF AOS IN SYMMETRY 5:   1 1 1 1 1 1 1 1 1 1   1 1 1 1 1 1 1 1 1 1   1 1 1 1 1 2 3 2 3 2   3 2 3 2 3 2 3 4 5 6
 EXTRA SYMMETRY OF AOS IN SYMMETRY 6:   1 1 1 1 1 1 1 1 1 1   1 1 1 1 1 1 1 1 1 2   3 2 3 2 3 2 3
 EXTRA SYMMETRY OF AOS IN SYMMETRY 7:   1 1 1 1 1 1 1 1 1 1   1 1 1 1 1 1 1 1 1 2   3 2 3 2 3 2 3
 EXTRA SYMMETRY OF AOS IN SYMMETRY 8:   1 1 1 1 1 1 2 3

 Eigenvalues of metric

         1 0.114E-04 0.590E-04 0.144E-03 0.240E-03 0.402E-03 0.601E-03 0.601E-03 0.714E-03
         2 0.196E-03 0.768E-03 0.199E-02 0.427E-02 0.812E-02 0.141E-01 0.233E-01 0.375E-01
         3 0.196E-03 0.768E-03 0.199E-02 0.427E-02 0.812E-02 0.141E-01 0.233E-01 0.375E-01
         4 0.601E-03 0.214E-02 0.472E-02 0.916E-02 0.188E-01 0.374E-01 0.682E-01 0.117E+00
         5 0.196E-03 0.768E-03 0.199E-02 0.427E-02 0.812E-02 0.141E-01 0.233E-01 0.375E-01
         6 0.601E-03 0.214E-02 0.472E-02 0.916E-02 0.188E-01 0.374E-01 0.682E-01 0.117E+00
         7 0.601E-03 0.214E-02 0.472E-02 0.916E-02 0.188E-01 0.374E-01 0.682E-01 0.117E+00
         8 0.619E-01 0.169E+00 0.446E+00 0.980E+00 0.100E+01 0.100E+01 0.179E+01 0.255E+01


 **********************************************************************************************************************************
 DATASETS  * FILE   NREC   LENGTH (MB)   RECORD NAMES
              1      22       20.92       500      610      700      900      950      970     1000      129      960     1700   
                                          VAR    BASINP    GEOM    SYMINP    ZMAT    AOBASIS   BASIS     P2S    ABASIS    OPER   
                                         1101     1401     1411     1412     1650     1100     1400     1410     1200     1210   
                                          SR      EKINR    POTR     PVPR    MOLCAS      S      EKIN      POT      H0       H01  
                                         1080     1600   
                                         AOSYM     SMH  

 PROGRAMS   *        TOTAL       INT
 CPU TIMES  *        45.49     45.03
 REAL TIME  *        47.71 SEC
 DISK USED  *         1.32 GB      
 GA USED    *         0.00 MB       (max)       0.00 MB       (current)
 **********************************************************************************************************************************


 PROGRAM * RHF-SCF (OPEN SHELL)       Authors: W. Meyer, H.-J. Werner


 NUMBER OF ELECTRONS:      27+   25-    SPACE SYMMETRY=7    SPIN SYMMETRY: Triplet 
 CONVERGENCE THRESHOLDS:    1.00E-05 (Density)    1.04E-07 (Energy)
 MAX. NUMBER OF ITERATIONS:       60
 INTERPOLATION TYPE:            DIIS
 INTERPOLATION STEPS:              2 (START)      1 (STEP)
 LEVEL SHIFTS:                 -0.60 (CLOSED) -0.30 (OPEN) 

 Number of closed-shell orbitals:   25 (   9   4   3   2   3   2   2   0 )
 Number of open-shell orbitals:      2 (   0   0   1   0   1   0   0   0 )


 Orbital guess generated from atomic densities. Full valence occupancy:    9   4   4   2   4   2   2   0


 Molecular orbital dump at record        2100.2

 ITERATION    DDIFF          GRAD             ENERGY        2-EL.EN.            DIPOLE MOMENTS         DIIS   ORB.
    1      0.000D+00      0.000D+00     -6569.72566756   6963.829881    0.00000    0.00000    0.00000    0    start
    2      0.000D+00      0.151D+01     -6541.30529193   3014.752268    0.00000    0.00000    0.00000    1    diag,B
    3      0.763D+00      0.947D+00     -6757.49471252   5768.163869    0.00000    0.00000    0.00000    2    diag,B
    4      0.562D+00      0.345D+00     -6789.37859243   4905.500878    0.00000    0.00000    0.00000    3    diag,B
    5      0.186D+00      0.678D-01     -6790.92391992   5041.319812    0.00000    0.00000    0.00000    4    diag,B
    6      0.164D-01      0.959D-02     -6791.01640745   5061.525952    0.00000    0.00000    0.00000    5    diag,B
    7      0.476D-02      0.518D-02     -6791.04043139   5055.421887    0.00000    0.00000    0.00000    6    fixocc
    8      0.388D-02      0.137D-02     -6791.04870501   5057.044659    0.00000    0.00000    0.00000    7    diag,B
    9      0.361D-02      0.506D-03     -6791.05008463   5057.963000    0.00000    0.00000    0.00000    8    diag,B
   10      0.138D-02      0.202D-03     -6791.05039768   5058.146550    0.00000    0.00000    0.00000    9    orth
   11      0.724D-03      0.712D-04     -6791.05044056   5058.190324    0.00000    0.00000    0.00000    9    diag,B
   12      0.245D-03      0.211D-04     -6791.05044382   5058.214849    0.00000    0.00000    0.00000    9    diag,B
   13      0.106D-03      0.508D-05     -6791.05044395   5058.214400    0.00000    0.00000    0.00000    9    diag,B
   14      0.285D-04      0.221D-05     -6791.05044398   5058.215173    0.00000    0.00000    0.00000    9    diag,B
   15      0.115D-04      0.818D-06     -6791.05044398   5058.214948    0.00000    0.00000    0.00000    9    diag,B
   16      0.554D-05      0.212D-06     -6791.05044399   5058.214908    0.00000    0.00000    0.00000    0    orth

 Final alpha occupancy:   9   4   4   2   4   2   2   0
 Final beta  occupancy:   9   4   3   2   3   2   2   0

 !RHF STATE 1.7 Energy              -6791.050443985012
 Nuclear energy                         0.00000000
 One-electron energy                -9320.15789783
 Two-electron energy                 2529.10745385
 Virial quotient                       -0.85509635
 !RHF STATE 1.7 Dipole moment           0.00000000     0.00000000     0.00000000
 Dipole moment /Debye                   0.00000000     0.00000000     0.00000000

 ELECTRON ORBITALS
 =================


   Orb  Occ    Energy  Couls-En    Coefficients

                                   1 1s      1 1s      1 1s      1 1s      1 1s      1 1s      1 1s      1 1s      1 1s      1 1s   
                                   1 1s      1 1s      1 1s      1 1s      1 1s      1 1s      1 1s      1 1s      1 1s      1 1s   
                                   1 1s      1 1s      1 1s      1 1s      1 1s      1 1s      1 1s      1 1s      1 1s      1 1s   
                                   1 1s      1 1s      1 3d0     1 3d2+    1 3d0     1 3d2+    1 3d0     1 3d2+    1 3d0     1 3d2+ 
                                   1 3d0     1 3d2+    1 3d0     1 3d2+    1 3d0     1 3d2+    1 3d0     1 3d2+    1 3d0     1 3d2+ 
                                   1 3d0     1 3d2+    1 3d0     1 3d2+    1 3d0     1 3d2+    1 3d0     1 3d2+    1 3d0     1 3d2+ 
                                   1 3d0     1 3d2+    1 3d0     1 3d2+    1 3d0     1 3d2+    1 3d0     1 3d2+    1 3d0     1 3d2+ 
                                   1 5g0     1 5g4+    1 5g2+    1 5g0     1 5g4+    1 5g2+    1 5g0     1 5g4+    1 5g2+    1 5g0  
                                   1 5g4+    1 5g2+ 

   1.1   2 -1174.9606-2579.2652  0.000038  0.000101  0.000255  0.000513  0.000948  0.001629  0.002768  0.004698  0.008178  0.014624
                                 0.027015  0.051026  0.096349  0.172240  0.264453  0.295896  0.189248  0.048777  0.003734 -0.000135
                                 0.000310 -0.000320  0.000156 -0.000092  0.000052 -0.000025  0.000018 -0.000012  0.000005 -0.000002
                                 0.000001 -0.000000  0.000000 -0.000000  0.000000 -0.000000  0.000000 -0.000000  0.000000 -0.000000
                                -0.000000  0.000000  0.000000 -0.000000  0.000000 -0.000000  0.000000 -0.000000  0.000000 -0.000000
                                -0.000000  0.000000 -0.000000  0.000000 -0.000000  0.000000  0.000000 -0.000000  0.000000 -0.000000
                                 0.000000 -0.000000  0.000000 -0.000000  0.000000 -0.000000  0.000000 -0.000000 -0.000000  0.000000
                                -0.000000 -0.000000  0.000000 -0.000000 -0.000000  0.000000 -0.000000 -0.000000  0.000000  0.000000
                                 0.000000 -0.000000

   2.1   2  -183.7583 -535.5573 -0.000013 -0.000035 -0.000088 -0.000178 -0.000328 -0.000566 -0.000964 -0.001643 -0.002878 -0.005194
                                -0.009735 -0.018823 -0.037012 -0.071094 -0.124485 -0.173118 -0.132618  0.093714  0.406808  0.440609
                                 0.199626  0.034343  0.002082  0.000177 -0.000242 -0.000009 -0.000030  0.000020 -0.000006  0.000003
                                -0.000001  0.000000 -0.000000  0.000000 -0.000000  0.000000 -0.000000  0.000000  0.000000 -0.000000
                                 0.000000 -0.000000  0.000001 -0.000002  0.000003 -0.000006  0.000001 -0.000002 -0.000000  0.000000
                                 0.000000 -0.000001  0.000001 -0.000001  0.000000 -0.000001 -0.000000  0.000000 -0.000000  0.000000
                                -0.000000  0.000000 -0.000000  0.000000 -0.000000  0.000000 -0.000000  0.000000  0.000000 -0.000000
                                 0.000000  0.000000 -0.000000  0.000000  0.000000 -0.000000  0.000000  0.000000 -0.000000 -0.000000
                                -0.000000  0.000000

   3.1   2   -38.1051 -185.3056  0.000006  0.000016  0.000039  0.000079  0.000146  0.000252  0.000430  0.000733  0.001286  0.002324
                                 0.004363  0.008470  0.016745  0.032544  0.058124  0.084000  0.067234 -0.060148 -0.315079 -0.449749
                                -0.199268  0.378012  0.694711  0.292539  0.023266  0.002060 -0.000240  0.000247 -0.000146  0.000053
                                -0.000025  0.000009  0.000000 -0.000000  0.000000 -0.000000  0.000000 -0.000000  0.000000 -0.000001
                                 0.000001 -0.000002  0.000004 -0.000006  0.000006 -0.000011  0.000015 -0.000026  0.000020 -0.000034
                                 0.000056 -0.000098  0.000027 -0.000047 -0.000004  0.000006  0.000003 -0.000006  0.000004 -0.000007
                                 0.000003 -0.000006  0.000001 -0.000002  0.000000 -0.000001  0.000000 -0.000000  0.000000 -0.000000
                                -0.000000 -0.000000  0.000000 -0.000000 -0.000000  0.000000 -0.000000 -0.000000  0.000000 -0.000000
                                -0.000000  0.000000

   4.1   2   -22.1860 -159.3839  0.000000 -0.000000 -0.000000 -0.000000 -0.000000 -0.000000 -0.000000 -0.000000 -0.000000 -0.000000
                                -0.000000 -0.000000 -0.000000 -0.000000 -0.000000 -0.000000  0.000000 -0.000000  0.000000 -0.000000
                                 0.000000  0.000000 -0.000000  0.000000  0.000000 -0.000000  0.000000 -0.000000  0.000000 -0.000000
                                 0.000000 -0.000000 -0.000018 -0.000010 -0.000138 -0.000080 -0.000849 -0.000490 -0.004034 -0.002329
                                -0.015370 -0.008874 -0.046291 -0.026726 -0.112220 -0.064790 -0.203756 -0.117638 -0.271902 -0.156982
                                -0.249963 -0.144316 -0.130807 -0.075521 -0.032257 -0.018623 -0.002009 -0.001160 -0.000368 -0.000213
                                 0.000161  0.000093 -0.000084 -0.000049  0.000065  0.000037 -0.000032 -0.000019  0.000009  0.000005
                                -0.000019  0.000022  0.000017  0.000004 -0.000004 -0.000003 -0.000002  0.000003  0.000002  0.000001
                                -0.000001 -0.000001

   5.1   2   -22.1811 -159.3827  0.000000  0.000000  0.000000  0.000000  0.000000  0.000000  0.000000  0.000000  0.000000  0.000001
                                 0.000001  0.000002  0.000004  0.000009  0.000016  0.000023  0.000018 -0.000015 -0.000098 -0.000126
                                -0.000096  0.000270  0.000191 -0.000070  0.000023 -0.000028 -0.000012 -0.000019 -0.000008 -0.000002
                                 0.000000 -0.000000 -0.000010  0.000018 -0.000080  0.000138 -0.000490  0.000850 -0.002329  0.004035
                                -0.008875  0.015371 -0.026728  0.046294 -0.064796  0.112231 -0.117649  0.203774 -0.157003  0.271937
                                -0.144298  0.249931 -0.075499  0.130769 -0.018627  0.032262 -0.001150  0.001992 -0.000207  0.000358
                                 0.000098 -0.000171 -0.000047  0.000081  0.000038 -0.000066 -0.000019  0.000032  0.000005 -0.000009
                                -0.000020 -0.000039  0.000029  0.000004  0.000007 -0.000005 -0.000002 -0.000005  0.000004  0.000001
                                 0.000002 -0.000002

   6.1   2    -7.1077  -76.7615 -0.000003 -0.000007 -0.000018 -0.000035 -0.000065 -0.000113 -0.000192 -0.000327 -0.000574 -0.001037
                                -0.001948 -0.003784 -0.007493 -0.014591 -0.026185 -0.038113 -0.030894  0.028982  0.158150  0.240520
                                 0.111558 -0.260953 -0.758798 -0.304583  0.694209  0.692875  0.110316 -0.013535  0.004271 -0.001239
                                 0.000516 -0.000177 -0.000000  0.000000 -0.000000  0.000000 -0.000000  0.000000 -0.000001  0.000002
                                -0.000005  0.000009 -0.000016  0.000028 -0.000035  0.000061 -0.000074  0.000128 -0.000073  0.000126
                                -0.000105  0.000182  0.000038 -0.000065  0.000043 -0.000075  0.000454 -0.000787  0.000474 -0.000821
                                -0.000047  0.000081 -0.000012  0.000020 -0.000017  0.000030  0.000004 -0.000007 -0.000002  0.000003
                                -0.000000 -0.000000  0.000000 -0.000000 -0.000000  0.000000  0.000000  0.000001 -0.000001 -0.000000
                                -0.000000  0.000000

   7.1   2    -1.9600  -57.9296 -0.000000 -0.000000 -0.000000 -0.000000 -0.000000 -0.000000 -0.000000 -0.000000 -0.000000 -0.000000
                                -0.000000 -0.000000 -0.000000 -0.000000 -0.000000 -0.000000 -0.000000  0.000000  0.000000  0.000000
                                 0.000000 -0.000000 -0.000000 -0.000000  0.000000  0.000000 -0.000000  0.000000  0.000000 -0.000000
                                 0.000000 -0.000000  0.000007  0.000004  0.000055  0.000032  0.000339  0.000196  0.001617  0.000934
                                 0.006197  0.003578  0.018827  0.010870  0.046361  0.026766  0.083975  0.048483  0.107855  0.062270
                                 0.078821  0.045507 -0.065636 -0.037894 -0.254611 -0.146999 -0.339087 -0.195771 -0.254732 -0.147069
                                -0.097864 -0.056501 -0.013253 -0.007652 -0.000159 -0.000092 -0.000224 -0.000129  0.000027  0.000015
                                -0.000124  0.000147  0.000111 -0.000566  0.000669  0.000506 -0.000325  0.000385  0.000291  0.000073
                                -0.000087 -0.000065

   8.1   2    -1.9457  -57.9401 -0.000000 -0.000000 -0.000000 -0.000000 -0.000000 -0.000000 -0.000001 -0.000001 -0.000002 -0.000004
                                -0.000008 -0.000016 -0.000032 -0.000063 -0.000111 -0.000165 -0.000128  0.000114  0.000719  0.000995
                                 0.000641 -0.001440 -0.003601 -0.001716  0.005440  0.006387 -0.006249 -0.003438  0.001779  0.000950
                                -0.000033  0.000022  0.000004 -0.000007  0.000032 -0.000055  0.000196 -0.000340  0.000935 -0.001619
                                 0.003582 -0.006204  0.010881 -0.018847  0.026795 -0.046411  0.048534 -0.084064  0.062342 -0.107980
                                 0.045540 -0.078878 -0.038019  0.065850 -0.147289  0.255113 -0.196064  0.339595 -0.146207  0.253239
                                -0.056336  0.097578 -0.008394  0.014539 -0.000260  0.000451 -0.000208  0.000361  0.000024 -0.000041
                                -0.000130 -0.000256  0.000193 -0.000590 -0.001163  0.000879 -0.000337 -0.000664  0.000502  0.000075
                                 0.000147 -0.000111

   9.1   2    -0.7468  -28.5591  0.000001  0.000002  0.000006  0.000012  0.000022  0.000037  0.000064  0.000109  0.000191  0.000345
                                 0.000649  0.001260  0.002497  0.004861  0.008739  0.012721  0.010370 -0.009854 -0.053749 -0.083209
                                -0.038744  0.094323  0.305569  0.109787 -0.355844 -0.542977 -0.134878  0.558062  0.631370  0.167499
                                -0.001521  0.001277  0.000000 -0.000000  0.000000 -0.000000  0.000000 -0.000000  0.000001 -0.000001
                                 0.000002 -0.000004  0.000007 -0.000012  0.000016 -0.000028  0.000032 -0.000055  0.000033 -0.000057
                                 0.000034 -0.000059 -0.000034  0.000059 -0.000022  0.000037  0.000041 -0.000071 -0.000566  0.000981
                                 0.000097 -0.000168 -0.000996  0.001724 -0.002451  0.004247 -0.000860  0.001490 -0.000069  0.000120
                                 0.000000  0.000001 -0.000000  0.000001  0.000001 -0.000001  0.000006  0.000012 -0.000009 -0.000017
                                -0.000033  0.000025

  10.1   0     0.0202   -6.2137 -0.000000 -0.000000 -0.000001 -0.000001 -0.000003 -0.000005 -0.000008 -0.000013 -0.000025 -0.000042
                                -0.000085 -0.000150 -0.000331 -0.000569 -0.001191 -0.001363 -0.001880  0.002675  0.003316  0.018004
                                -0.009750  0.012380 -0.073443  0.031001 -0.019192  0.175810 -0.218553  0.288694 -0.653547  0.812967
                                -2.090213  2.442963  0.000000 -0.000000 -0.000000  0.000000  0.000000 -0.000000 -0.000000  0.000000
                                 0.000002 -0.000003 -0.000002  0.000004  0.000013 -0.000022 -0.000017  0.000030  0.000060 -0.000103
                                -0.000100  0.000174  0.000184 -0.000319 -0.000333  0.000577  0.000522 -0.000905 -0.000818  0.001416
                                 0.000980 -0.001698 -0.004549  0.007878  0.011052 -0.019142 -0.011912  0.020633  0.027103 -0.046943
                                -0.000001 -0.000002  0.000001  0.000004  0.000008 -0.000006 -0.000037 -0.000074  0.000056  0.000155
                                 0.000305 -0.000231

  11.1   0     0.0811   -6.8700  0.000000  0.000000  0.000000  0.000000  0.000000  0.000000  0.000000  0.000000  0.000000  0.000000
                                 0.000000  0.000000  0.000000  0.000000  0.000000  0.000000  0.000000  0.000000 -0.000000 -0.000000
                                -0.000000  0.000000  0.000000  0.000000 -0.000001  0.000000 -0.000001  0.000003 -0.000002  0.000006
                                -0.000011  0.000007 -0.000000 -0.000000 -0.000001 -0.000001 -0.000017 -0.000010 -0.000042 -0.000024
                                -0.000297 -0.000171 -0.000501 -0.000289 -0.002289 -0.001321 -0.001771 -0.001022 -0.007087 -0.004092
                                 0.003264  0.001885 -0.007992 -0.004614  0.029100  0.016801 -0.017880 -0.010323  0.064584  0.037287
                                -0.103072 -0.059508  0.202073  0.116666 -0.587143 -0.338985  0.904388  0.522145 -1.323026 -0.763845
                                 0.000016 -0.000019 -0.000014 -0.000086  0.000102  0.000077  0.000220 -0.000260 -0.000197 -0.002313
                                 0.002737  0.002069

                                   1 2px     1 2px     1 2px     1 2px     1 2px     1 2px     1 2px     1 2px     1 2px     1 2px  
                                   1 2px     1 2px     1 2px     1 2px     1 2px     1 2px     1 2px     1 2px     1 2px     1 2px  
                                   1 2px     1 2px     1 2px     1 2px     1 2px     1 4f1+    1 4f3+    1 4f1+    1 4f3+    1 4f1+ 
                                   1 4f3+    1 4f1+    1 4f3+    1 4f1+    1 4f3+    1 4f1+    1 4f3+    1 6h1+    1 6h3+    1 6h5+ 


   1.2   2  -164.8002 -506.7502  0.000007  0.000025  0.000082  0.000250  0.000751  0.002256  0.006793  0.019897  0.054257  0.128818
                                 0.244443  0.333604  0.273256  0.109668  0.016975  0.000819  0.000056 -0.000140 -0.000002 -0.000019
                                 0.000007 -0.000003  0.000002 -0.000001  0.000000  0.000001 -0.000002 -0.000001  0.000001  0.000000
                                -0.000001 -0.000000  0.000000  0.000000 -0.000000 -0.000000  0.000000  0.000000 -0.000000  0.000000

   2.2   2   -31.7756 -174.1209 -0.000003 -0.000012 -0.000038 -0.000117 -0.000352 -0.001063 -0.003215 -0.009530 -0.026458 -0.065089
                                -0.129158 -0.186325 -0.121373  0.129757  0.426446  0.427842  0.146390  0.014204  0.000717  0.000181
                                -0.000067  0.000022 -0.000013  0.000006 -0.000002  0.000064 -0.000082 -0.000024  0.000031  0.000021
                                -0.000027 -0.000008  0.000011  0.000005 -0.000006 -0.000002  0.000002 -0.000000  0.000000 -0.000000

   3.2   2    -5.0464  -70.1427 -0.000001 -0.000005 -0.000017 -0.000050 -0.000152 -0.000459 -0.001389 -0.004130 -0.011500 -0.028511
                                -0.057062 -0.083553 -0.049853  0.084229  0.274122  0.307405 -0.118568 -0.552408 -0.439751 -0.093859
                                -0.002563 -0.001254  0.000382 -0.000192  0.000074 -0.000113  0.000146 -0.000302  0.000390 -0.000699
                                 0.000903 -0.000044  0.000056  0.000051 -0.000065 -0.000002  0.000003 -0.000000  0.000000 -0.000000

   4.2   2    -0.3277  -22.7945  0.000000  0.000001  0.000005  0.000014  0.000041  0.000125  0.000380  0.001128  0.003146  0.007802
                                 0.015657  0.022936  0.013544 -0.024535 -0.079899 -0.091267  0.053161  0.205212  0.202317 -0.079142
                                -0.428264 -0.482043 -0.191173 -0.002396 -0.001895 -0.000185  0.000239 -0.000345  0.000445 -0.000352
                                 0.000454 -0.002625  0.003388 -0.004869  0.006286 -0.001933  0.002496 -0.000008  0.000009 -0.000012

   5.2   0     0.0241   -4.3802  0.000000  0.000000  0.000000  0.000001  0.000003  0.000009  0.000031  0.000080  0.000258  0.000543
                                 0.001333  0.001394  0.001860 -0.003650 -0.002653 -0.012987  0.013786  0.000045  0.041531 -0.050310
                                 0.044394 -0.202670  0.329876 -1.136823  1.767529 -0.000040  0.000051 -0.000022  0.000028 -0.000154
                                 0.000199 -0.000205  0.000265 -0.001652  0.002133  0.002007 -0.002591 -0.000003  0.000003 -0.000004

   6.2   0     0.0922   -6.5160 -0.000000 -0.000000 -0.000001 -0.000003 -0.000009 -0.000030 -0.000083 -0.000276 -0.000673 -0.001944
                                -0.003204 -0.006295 -0.000741  0.000564  0.028334  0.003809  0.015353 -0.093152  0.026829 -0.108387
                                 0.346882 -0.364302  1.374636 -3.194980  1.796581  0.000122 -0.000157  0.000074 -0.000095  0.000462
                                -0.000597  0.000662 -0.000854  0.005104 -0.006590 -0.007592  0.009801  0.000009 -0.000009  0.000012

                                   1 2py     1 2py     1 2py     1 2py     1 2py     1 2py     1 2py     1 2py     1 2py     1 2py  
                                   1 2py     1 2py     1 2py     1 2py     1 2py     1 2py     1 2py     1 2py     1 2py     1 2py  
                                   1 2py     1 2py     1 2py     1 2py     1 2py     1 4f1-    1 4f3-    1 4f1-    1 4f3-    1 4f1- 
                                   1 4f3-    1 4f1-    1 4f3-    1 4f1-    1 4f3-    1 4f1-    1 4f3-    1 6h1-    1 6h3-    1 6h5- 


   1.3   2  -164.8011 -506.7502  0.000007  0.000025  0.000082  0.000250  0.000751  0.002256  0.006793  0.019896  0.054255  0.128815
                                 0.244436  0.333599  0.273267  0.109674  0.016977  0.000820  0.000057 -0.000140 -0.000003 -0.000019
                                 0.000007 -0.000003  0.000002 -0.000001  0.000000  0.000000 -0.000002 -0.000000  0.000001  0.000000
                                -0.000001 -0.000000  0.000000  0.000000 -0.000000 -0.000000  0.000000  0.000000 -0.000000  0.000000

   2.3   2   -31.7790 -174.1172 -0.000003 -0.000012 -0.000038 -0.000117 -0.000352 -0.001063 -0.003214 -0.009528 -0.026454 -0.065078
                                -0.129136 -0.186292 -0.121370  0.129694  0.426277  0.427949  0.146487  0.014216  0.000732  0.000182
                                -0.000069  0.000020 -0.000013  0.000006 -0.000002  0.000021 -0.000083 -0.000008  0.000031  0.000007
                                -0.000027 -0.000003  0.000011  0.000002 -0.000006 -0.000001  0.000002 -0.000000  0.000000 -0.000000

   3.3   2    -5.0541  -70.0734 -0.000001 -0.000005 -0.000017 -0.000050 -0.000152 -0.000458 -0.001386 -0.004121 -0.011476 -0.028448
                                -0.056941 -0.083358 -0.049780  0.084060  0.273253  0.306890 -0.117966 -0.549350 -0.440859 -0.096322
                                -0.002462 -0.001374  0.000423 -0.000218  0.000084 -0.000037  0.000144 -0.000100  0.000386 -0.000232
                                 0.000898 -0.000016  0.000061  0.000017 -0.000065 -0.000001  0.000003 -0.000000  0.000000 -0.000000

   4.3   +    -0.3927  -23.3191 -0.000000 -0.000001 -0.000005 -0.000014 -0.000043 -0.000129 -0.000389 -0.001157 -0.003226 -0.008001
                                -0.016053 -0.023522 -0.013885  0.025132  0.081856  0.093562 -0.054324 -0.209405 -0.205920  0.066714
                                 0.463069  0.497383  0.143277 -0.002922  0.001940  0.000144 -0.000557  0.000255 -0.000989  0.000271
                                -0.001050  0.002225 -0.008618  0.003808 -0.014750  0.001095 -0.004239  0.000009 -0.000030  0.000068

   5.3   0     0.0225   -4.4398  0.000000  0.000000  0.000000  0.000001  0.000003  0.000009  0.000030  0.000078  0.000249  0.000526
                                 0.001287  0.001356  0.001783 -0.003497 -0.002632 -0.012456  0.013164  0.000313  0.039737 -0.047383
                                 0.039833 -0.196082  0.314823 -1.066065  1.724883 -0.000015  0.000058 -0.000009  0.000035 -0.000057
                                 0.000222 -0.000075  0.000289 -0.000579  0.002244  0.000773 -0.002996 -0.000001  0.000002 -0.000004

   6.3   0     0.0870   -6.4726  0.000000  0.000000  0.000001  0.000003  0.000009  0.000029  0.000078  0.000262  0.000638  0.001842
                                 0.003040  0.005959  0.000722 -0.000577 -0.026770 -0.003764 -0.014310  0.087886 -0.024923  0.103788
                                -0.333502  0.334589 -1.285258  3.151905 -1.814137 -0.000044  0.000171 -0.000030  0.000116 -0.000163
                                 0.000630 -0.000246  0.000954 -0.001695  0.006563  0.002683 -0.010389 -0.000002  0.000006 -0.000013

                                   1 3d2-    1 3d2-    1 3d2-    1 3d2-    1 3d2-    1 3d2-    1 3d2-    1 3d2-    1 3d2-    1 3d2- 
                                   1 3d2-    1 3d2-    1 3d2-    1 3d2-    1 3d2-    1 3d2-    1 3d2-    1 3d2-    1 3d2-    1 5g2- 
                                   1 5g4-    1 5g2-    1 5g4-    1 5g2-    1 5g4-    1 5g2-    1 5g4- 

   1.4   2   -22.1823 -159.3830  0.000020  0.000159  0.000981  0.004659  0.017749  0.053455  0.129590  0.235292  0.313996  0.288604
                                 0.151009  0.037252  0.002305  0.000416 -0.000194  0.000094 -0.000076  0.000037 -0.000010  0.000017
                                -0.000045 -0.000003  0.000008  0.000002 -0.000005 -0.000001  0.000003

   2.4   2    -1.9493  -57.9386  0.000008  0.000064  0.000392  0.001869  0.007162  0.021758  0.053578  0.097046  0.124652  0.091068
                                -0.075980 -0.294442 -0.392004 -0.292855 -0.112716 -0.016404 -0.000437 -0.000378  0.000044 -0.000111
                                 0.000295 -0.000507  0.001341 -0.000289  0.000765  0.000065 -0.000171

   3.4   0     0.0849   -6.6984  0.000000  0.000001  0.000018  0.000039  0.000311  0.000461  0.002412  0.001491  0.007749 -0.004552
                                 0.010306 -0.033047  0.024527 -0.075909  0.123353 -0.253194  0.701291 -1.113258  1.569709 -0.000013
                                 0.000035  0.000070 -0.000185 -0.000221  0.000586  0.001825 -0.004828

   4.4   0     0.2124  -10.6329 -0.000001 -0.000009 -0.000036 -0.000257 -0.000683 -0.002972 -0.004973 -0.014314 -0.007559 -0.023925
                                 0.035160 -0.004149  0.121651 -0.087043  0.197630 -0.675610  1.226300 -2.666475  1.457968  0.000031
                                -0.000082 -0.000159  0.000421  0.000187 -0.000494 -0.005568  0.014732

                                   1 2pz     1 2pz     1 2pz     1 2pz     1 2pz     1 2pz     1 2pz     1 2pz     1 2pz     1 2pz  
                                   1 2pz     1 2pz     1 2pz     1 2pz     1 2pz     1 2pz     1 2pz     1 2pz     1 2pz     1 2pz  
                                   1 2pz     1 2pz     1 2pz     1 2pz     1 2pz     1 4f0     1 4f2+    1 4f0     1 4f2+    1 4f0  
                                   1 4f2+    1 4f0     1 4f2+    1 4f0     1 4f2+    1 4f0     1 4f2+    1 6h2+    1 6h4+    1 6h0  


   1.5   2  -164.8011 -506.7502  0.000007  0.000025  0.000082  0.000250  0.000751  0.002256  0.006793  0.019896  0.054255  0.128815
                                 0.244436  0.333599  0.273267  0.109674  0.016977  0.000820  0.000057 -0.000140 -0.000003 -0.000019
                                 0.000007 -0.000003  0.000002 -0.000001  0.000000  0.000001 -0.000001 -0.000001  0.000001  0.000000
                                -0.000000 -0.000000  0.000000  0.000000 -0.000000 -0.000000  0.000000 -0.000000  0.000000  0.000000

   2.5   2   -31.7790 -174.1172 -0.000003 -0.000012 -0.000038 -0.000117 -0.000352 -0.001063 -0.003214 -0.009528 -0.026454 -0.065078
                                -0.129136 -0.186292 -0.121370  0.129694  0.426277  0.427949  0.146487  0.014216  0.000732  0.000182
                                -0.000069  0.000020 -0.000013  0.000006 -0.000002  0.000052 -0.000067 -0.000020  0.000026  0.000017
                                -0.000022 -0.000007  0.000009  0.000004 -0.000005 -0.000001  0.000002  0.000000 -0.000000 -0.000000

   3.5   2    -5.0541  -70.0734 -0.000001 -0.000005 -0.000017 -0.000050 -0.000152 -0.000458 -0.001386 -0.004121 -0.011476 -0.028448
                                -0.056941 -0.083358 -0.049780  0.084060  0.273253  0.306890 -0.117966 -0.549350 -0.440859 -0.096322
                                -0.002462 -0.001374  0.000423 -0.000218  0.000084 -0.000091  0.000117 -0.000244  0.000315 -0.000568
                                 0.000733 -0.000039  0.000050  0.000041 -0.000053 -0.000002  0.000003  0.000000 -0.000000 -0.000000

   4.5   +    -0.3927  -23.3191  0.000000  0.000001  0.000005  0.000014  0.000043  0.000129  0.000389  0.001157  0.003226  0.008001
                                 0.016053  0.023522  0.013885 -0.025132 -0.081856 -0.093562  0.054324  0.209404  0.205920 -0.066714
                                -0.463068 -0.497382 -0.143279  0.002921 -0.001940 -0.000352  0.000455 -0.000625  0.000807 -0.000664
                                 0.000857 -0.005450  0.007036 -0.009329  0.012043 -0.002681  0.003461  0.000049 -0.000043 -0.000036

   5.5   0     0.0225   -4.4398  0.000000  0.000000  0.000000  0.000001  0.000003  0.000009  0.000030  0.000078  0.000249  0.000526
                                 0.001287  0.001356  0.001783 -0.003497 -0.002632 -0.012456  0.013164  0.000313  0.039737 -0.047384
                                 0.039833 -0.196083  0.314823 -1.066066  1.724883 -0.000037  0.000048 -0.000022  0.000028 -0.000141
                                 0.000181 -0.000183  0.000236 -0.001419  0.001832  0.001895 -0.002446  0.000003 -0.000003 -0.000002

   6.5   0     0.0870   -6.4726  0.000000  0.000000  0.000001  0.000003  0.000009  0.000029  0.000078  0.000262  0.000638  0.001842
                                 0.003040  0.005959  0.000722 -0.000577 -0.026770 -0.003764 -0.014310  0.087887 -0.024923  0.103788
                                -0.333503  0.334588 -1.285259  3.151905 -1.814137 -0.000108  0.000139 -0.000073  0.000095 -0.000399
                                 0.000515 -0.000603  0.000779 -0.004151  0.005359  0.006571 -0.008483  0.000009 -0.000008 -0.000007

                                   1 3d1+    1 3d1+    1 3d1+    1 3d1+    1 3d1+    1 3d1+    1 3d1+    1 3d1+    1 3d1+    1 3d1+ 
                                   1 3d1+    1 3d1+    1 3d1+    1 3d1+    1 3d1+    1 3d1+    1 3d1+    1 3d1+    1 3d1+    1 5g1+ 
                                   1 5g3+    1 5g1+    1 5g3+    1 5g1+    1 5g3+    1 5g1+    1 5g3+ 

   1.6   2   -22.1823 -159.3830  0.000020  0.000159  0.000981  0.004659  0.017749  0.053455  0.129590  0.235292  0.313996  0.288604
                                 0.151009  0.037252  0.002305  0.000416 -0.000194  0.000094 -0.000076  0.000037 -0.000010  0.000036
                                -0.000032 -0.000007  0.000006  0.000004 -0.000004 -0.000002  0.000002

   2.6   2    -1.9493  -57.9386  0.000008  0.000064  0.000392  0.001869  0.007162  0.021758  0.053578  0.097046  0.124652  0.091068
                                -0.075980 -0.294442 -0.392004 -0.292855 -0.112716 -0.016404 -0.000437 -0.000378  0.000044 -0.000237
                                 0.000209 -0.001076  0.000949 -0.000614  0.000541  0.000137 -0.000121

   3.6   0     0.0849   -6.6984  0.000000  0.000001  0.000018  0.000039  0.000311  0.000461  0.002412  0.001491  0.007749 -0.004552
                                 0.010306 -0.033047  0.024527 -0.075909  0.123353 -0.253194  0.701290 -1.113258  1.569709 -0.000028
                                 0.000025  0.000149 -0.000131 -0.000470  0.000414  0.003871 -0.003414

   4.6   0     0.2124  -10.6329 -0.000001 -0.000009 -0.000036 -0.000257 -0.000683 -0.002972 -0.004973 -0.014314 -0.007559 -0.023925
                                 0.035160 -0.004149  0.121651 -0.087043  0.197631 -0.675610  1.226300 -2.666475  1.457968  0.000065
                                -0.000058 -0.000338  0.000298  0.000396 -0.000350 -0.011812  0.010417

                                   1 3d1-    1 3d1-    1 3d1-    1 3d1-    1 3d1-    1 3d1-    1 3d1-    1 3d1-    1 3d1-    1 3d1- 
                                   1 3d1-    1 3d1-    1 3d1-    1 3d1-    1 3d1-    1 3d1-    1 3d1-    1 3d1-    1 3d1-    1 5g1- 
                                   1 5g3-    1 5g1-    1 5g3-    1 5g1-    1 5g3-    1 5g1-    1 5g3- 

   1.7   2   -22.1860 -159.3839  0.000020  0.000159  0.000981  0.004658  0.017748  0.053452  0.129580  0.235277  0.313965  0.288632
                                 0.151043  0.037247  0.002319  0.000425 -0.000185  0.000097 -0.000075  0.000037 -0.000010  0.000012
                                -0.000032 -0.000002  0.000006  0.000001 -0.000004 -0.000001  0.000002

   2.7   2    -1.9600  -57.9296  0.000008  0.000064  0.000392  0.001867  0.007156  0.021740  0.053532  0.096966  0.124540  0.091015
                                -0.075789 -0.293999 -0.391544 -0.294139 -0.113003 -0.015303 -0.000183 -0.000259  0.000031 -0.000079
                                 0.000208 -0.000358  0.000947 -0.000206  0.000544  0.000046 -0.000122

   3.7   0     0.0811   -6.8700  0.000000  0.000002  0.000019  0.000049  0.000343  0.000579  0.002643  0.002045  0.008183 -0.003769
                                 0.009228 -0.033602  0.020646 -0.074575  0.119017 -0.233333  0.677974 -1.044295  1.527696 -0.000010
                                 0.000026  0.000054 -0.000144 -0.000139  0.000368  0.001463 -0.003871

   4.7   0     0.2002  -10.8373 -0.000001 -0.000009 -0.000039 -0.000267 -0.000737 -0.003090 -0.005388 -0.014787 -0.008727 -0.023783
                                 0.034494  0.000225  0.120666 -0.078069  0.184702 -0.659765  1.134134 -2.576977  1.464871  0.000021
                                -0.000055 -0.000115  0.000303  0.000036 -0.000094 -0.004091  0.010824

                                   1 4f2-    1 4f2-    1 4f2-    1 4f2-    1 4f2-    1 4f2-    1 6h4-    1 6h2- 

   1.8   0     0.3546  -10.1295  0.001382  0.018529 -0.022124  0.137010 -0.306453  1.168308 -0.000219  0.000127

   2.8   0     0.8449  -17.8162  0.044245  0.030040  0.181690 -0.047680  1.324350 -0.789126 -0.001181  0.000682

 HOMO      4.2    -0.327700 =      -8.9172eV
 LUMO     10.1     0.020200 =       0.5497eV
 LUMO-HOMO         0.347900 =       9.4668eV


 **********************************************************************************************************************************
 DATASETS  * FILE   NREC   LENGTH (MB)   RECORD NAMES
              1      22       20.92       500      610      700      900      950      970     1000      129      960     1700   
                                          VAR    BASINP    GEOM    SYMINP    ZMAT    AOBASIS   BASIS     P2S    ABASIS    OPER   
                                         1101     1401     1411     1412     1650     1100     1400     1410     1200     1210   
                                          SR      EKINR    POTR     PVPR    MOLCAS      S      EKIN      POT      H0       H01  
                                         1080     1600   
                                         AOSYM     SMH  

              2       4        3.18       700     1000      520     2100   
                                         GEOM     BASIS   MCVARS     RHF  

 PROGRAMS   *        TOTAL       RHF       INT
 CPU TIMES  *        46.48      0.99     45.03
 REAL TIME  *        50.51 SEC
 DISK USED  *         1.61 GB      
 SF USED    *         0.06 MB      
 GA USED    *         0.00 MB       (max)       0.00 MB       (current)
 **********************************************************************************************************************************
 SETTING TE_SCF         =     -6791.05044399  AU                              
 SETTING _CC_NORM_MAX   =         2.00000000                                  


 PROGRAM * CCSD (Restricted open-shell coupled cluster)     Authors: C. Hampel, H.-J. Werner, 1991, M. Deegan, P.J. Knowles, 1992


 Input parameters for THRESH:

 TWOINT =    1.00D-12
 ENERGY =    1.00D-05
 COEFF  =    0.001000

 Convergence thresholds:  THRVAR = 1.00D-06  THRDEN = 1.00D-05

 CCSD(T)     terms to be evaluated (factor= 1.000)


 Number of core orbitals:          23 (   8   3   3   2   3   2   2   0 )
 Number of closed-shell orbitals:   2 (   1   1   0   0   0   0   0   0 )
 Number of active  orbitals:        2 (   0   0   1   0   1   0   0   0 )
 Number of external orbitals:     264 (  73  36  36  25  36  25  25   8 )

 Memory could be reduced to 26.74 Mwords without degradation in triples

 Number of N-1 electron functions:               6
 Number of N-2 electron functions:              15
 Number of singly external CSFs:               292
 Number of doubly external CSFs:            107603
 Total number of CSFs:                      107895

 Molecular orbitals read from record     2100.2  Type=RHF/CANONICAL (state 1.7)

 Integral transformation finished. Total CPU:   0.42 sec, npass=  1  Memory used:   4.22 MW

 Starting RMP2 calculation

 Wavefunction is spin-projected

 ITER.      SQ.NORM     CORR.ENERGY   TOTAL ENERGY   ENERGY CHANGE        DEN1      VAR(S)    VAR(P)  DIIS     TIME
   1      1.05083139    -0.10206681 -6791.15251079    -0.10206681    -0.00069308  0.17D-04  0.39D-03  1  1     0.49
   2      1.05186194    -0.10283638 -6791.15328036    -0.00076957    -0.00000133  0.18D-07  0.80D-06  2  2     0.50
   3      1.05188991    -0.10284821 -6791.15329220    -0.00001183    -0.00000000  0.54D-10  0.20D-08  3  3     1.68
   4      1.05189028    -0.10284830 -6791.15329228    -0.00000008    -0.00000000  0.42D-12  0.87D-11  4  4     1.68

 Norm of t1 vector:      0.04239203      S-energy:    -0.00248408      T1 diagnostic:  0.00052566
 Norm of t2 vector:      0.22381510      P-energy:    -0.10036422
                                         Alpha-Beta:  -0.07944832
                                         Alpha-Alpha: -0.01812535
                                         Beta-Beta:   -0.00279056

 Spin contamination <S**2-Sz**2-Sz>     0.00000000
  Reference energy                  -6791.050443985016
  RHF-RMP2 correlation energy          -0.102848296273
 !RHF-RMP2 energy                   -6791.153292281288
 (NB above energy spin projected)

 Starting RCCSD calculation

 ITER.      SQ.NORM     CORR.ENERGY   TOTAL ENERGY   ENERGY CHANGE        DEN1      VAR(S)    VAR(P)  DIIS     TIME
   1      1.06190164    -0.11090669 -6791.16135068    -0.11090669    -0.00422786  0.21D-03  0.20D-02  1  1     1.98
   2      1.06963022    -0.11577618 -6791.16622017    -0.00486949    -0.00014541  0.11D-04  0.70D-04  2  2     2.98
   3      1.07105863    -0.11631062 -6791.16675460    -0.00053444    -0.00000838  0.76D-06  0.47D-05  3  3     4.38
   4      1.07136240    -0.11639408 -6791.16683807    -0.00008346    -0.00000060  0.69D-07  0.35D-06  4  4     4.56
   5      1.07142799    -0.11641044 -6791.16685443    -0.00001636    -0.00000004  0.70D-08  0.23D-07  5  5     4.73
   6      1.07143283    -0.11640991 -6791.16685389     0.00000054    -0.00000000  0.57D-09  0.16D-08  6  6     5.14

 Norm of t1 vector:      0.05166673      S-energy:    -0.00278599      T1 diagnostic:  0.00438334
                                                                       D1 diagnostic:  0.00854543
 Norm of t2 vector:      0.26222773      P-energy:    -0.11362391
                                         Alpha-Beta:  -0.09214540
                                         Alpha-Alpha: -0.01862258
                                         Beta-Beta:   -0.00285593

 Spin contamination <S**2-Sz**2-Sz>     0.00000000

 Memory could be reduced to 27.04 Mwords without degradation in triples
 

 RESULTS
 =======

  Reference energy                  -6791.050443985016
  RCCSD singles energy                 -0.002785993329
  RCCSD pair energy                    -0.113623912223
  RCCSD correlation energy             -0.116409905551
  Triples (T) contribution             -0.004477650307
  Total correlation energy             -0.120887555858
 
  RHF-RCCSD energy                  -6791.166853890567
  RHF-RCCSD[T] energy               -6791.171268744926
  RHF-RCCSD-T energy                -6791.171328294464
 !RHF-RCCSD(T) energy               -6791.171331540873

 Program statistics:

 Available memory in ccsd:               999999732
 Min. memory needed in ccsd:                643118
 Max. memory used in ccsd:                  733628
 Max. memory used in cckext:                838852 ( 6 integral passes)
 Max. memory used in cckint:               4223825 ( 1 integral passes)



 **********************************************************************************************************************************
 DATASETS  * FILE   NREC   LENGTH (MB)   RECORD NAMES
              1      22       20.92       500      610      700      900      950      970     1000      129      960     1700   
                                          VAR    BASINP    GEOM    SYMINP    ZMAT    AOBASIS   BASIS     P2S    ABASIS    OPER   
                                         1101     1401     1411     1412     1650     1100     1400     1410     1200     1210   
                                          SR      EKINR    POTR     PVPR    MOLCAS      S      EKIN      POT      H0       H01  
                                         1080     1600   
                                         AOSYM     SMH  

              2       4        3.18       700     1000      520     2100   
                                         GEOM     BASIS   MCVARS     RHF  

 PROGRAMS   *        TOTAL  RCCSD(T)       RHF       INT
 CPU TIMES  *        52.76      6.28      0.99     45.03
 REAL TIME  *        58.68 SEC
 DISK USED  *         1.73 GB      
 SF USED    *       259.43 MB      
 GA USED    *         0.00 MB       (max)       0.00 MB       (current)
 **********************************************************************************************************************************
 SETTING TE_CCSD        =     -6791.17133154  AU                              

Geometry recognized as XYZ



 Recomputing integrals since geometry and symmetry changed


 Using spherical harmonics



 PROGRAM * SEWARD (Integral evaluation for generally contracted gaussian basis sets)     Author: Roland Lindh, 1990

 Geometry written to block  1 of record 701

 Orientation using atomic masses  
 Molecule type: Atom
 Symmetry elements: X,Y,Z
 Rotational constants:       0.0000000      0.0000000      0.0000000 GHz  (calculated with average atomic masses)

 Point group  D2h 



 ATOMIC COORDINATES

 NR  ATOM    CHARGE       X              Y              Z

   1  H       1.00    0.000000000    0.000000000    0.000000000

 NUCLEAR CHARGE:                    1
 NUMBER OF PRIMITIVE AOS:          57
 NUMBER OF SYMMETRY AOS:           48
 NUMBER OF CONTRACTIONS:           46   (  11Ag  +   8B3u +   8B2u +   3B1g +   8B1u +   3B2g +   3B3g +   2Au  )
 NUMBER OF CORE ORBITALS:           0   (   0Ag  +   0B3u +   0B2u +   0B1g +   0B1u +   0B2g +   0B3g +   0Au  )
 NUMBER OF VALENCE ORBITALS:        1   (   1Ag  +   0B3u +   0B2u +   0B1g +   0B1u +   0B2g +   0B3g +   0Au  )

 MOLECULE CHANGED: INITIALIZING OCCUPATION AND DUMP RECORDS


 NUCLEAR REPULSION ENERGY    0.00000000

 One-electron integrals computed with SEWARD

 10nd-order Douglas-Kroll-Hess method activated. McWeeny DKH parametrization is used.

 Computing Douglas-Kroll / X2C integrals

 AO integral compression algorithm  1   Integral accuracy      1.0D-12

     2.884 MB (compressed) written to integral file (100.0%)

     Node minimum: 0.262 MB, node maximum: 0.262 MB


 NUMBER OF SORTED TWO-ELECTRON INTEGRALS:       7662.     BUFFER LENGTH:  32768
 NUMBER OF SEGMENTS:   1  SEGMENT LENGTH:       7662      RECORD LENGTH: 524288

 Memory used in sort:       0.56 MW

 SORT1 READ      166156. AND WROTE        6047. INTEGRALS IN      1 RECORDS. CPU TIME:     0.02 SEC, REAL TIME:     0.02 SEC
 SORT2 READ       66401. AND WROTE       82977. INTEGRALS IN     11 RECORDS. CPU TIME:     0.00 SEC, REAL TIME:     0.05 SEC

 Node minimum:        5370.  Node maximum:       10642. integrals

 OPERATOR DM      FOR CENTER  0  COORDINATES:    0.000000    0.000000    0.000000

 EXTRA SYMMETRY OF AOS IN SYMMETRY 1:   1 1 1 1 1 2 3 2 3 2   3
 EXTRA SYMMETRY OF AOS IN SYMMETRY 2:   1 1 1 1 2 3 2 3
 EXTRA SYMMETRY OF AOS IN SYMMETRY 3:   1 1 1 1 2 3 2 3
 EXTRA SYMMETRY OF AOS IN SYMMETRY 5:   1 1 1 1 2 3 2 3

 Eigenvalues of metric

         1 0.198E-02 0.423E-01 0.263E+00 0.274E+00 0.274E+00 0.873E+00 0.873E+00 0.986E+00
         2 0.840E-01 0.378E+00 0.618E+00 0.618E+00 0.111E+01 0.138E+01 0.138E+01 0.243E+01
         3 0.840E-01 0.378E+00 0.618E+00 0.618E+00 0.111E+01 0.138E+01 0.138E+01 0.243E+01
         4 0.274E+00 0.873E+00 0.185E+01
         5 0.840E-01 0.378E+00 0.618E+00 0.618E+00 0.111E+01 0.138E+01 0.138E+01 0.243E+01
         6 0.274E+00 0.873E+00 0.185E+01
         7 0.274E+00 0.873E+00 0.185E+01
         8 0.618E+00 0.138E+01


 **********************************************************************************************************************************
 DATASETS  * FILE   NREC   LENGTH (MB)   RECORD NAMES
              1      23       20.07       500      610      700      701      900      950      970     1001      129      960   
                                          VAR    BASINP    GEOM     GEOM    SYMINP    ZMAT    AOBASIS   BASIS     P2S    ABASIS    
                                         1700     1101     1401     1411     1412     1650     1100     1400     1410     1200   
                                         OPER      SR      EKINR    POTR     PVPR    MOLCAS      S      EKIN      POT      H0  
                                         1210     1080     1600   
                                          H01     AOSYM     SMH  

              2       6        3.55       700     1000      520     2100      701     1001   
                                         GEOM     BASIS   MCVARS     RHF     GEOM     BASIS   

 PROGRAMS   *        TOTAL       INT  RCCSD(T)       RHF       INT
 CPU TIMES  *        58.59      5.83      6.28      0.99     45.03
 REAL TIME  *        64.86 SEC
 DISK USED  *         1.73 GB      
 SF USED    *       259.43 MB      
 GA USED    *         0.00 MB       (max)       0.00 MB       (current)
 **********************************************************************************************************************************


 PROGRAM * RHF-SCF (OPEN SHELL)       Authors: W. Meyer, H.-J. Werner


 NUMBER OF ELECTRONS:       1+    0-    SPACE SYMMETRY=1    SPIN SYMMETRY: Doublet 
 CONVERGENCE THRESHOLDS:    1.00E-05 (Density)    1.00E-07 (Energy)
 MAX. NUMBER OF ITERATIONS:       60
 INTERPOLATION TYPE:            DIIS
 INTERPOLATION STEPS:              2 (START)      1 (STEP)
 LEVEL SHIFTS:                 -0.60 (CLOSED) -0.30 (OPEN) 



 Orbital guess generated from atomic densities. Full valence occupancy:    1   0   0   0   0   0   0   0


 Molecular orbital dump at record        2101.2

 ITERATION    DDIFF          GRAD             ENERGY        2-EL.EN.            DIPOLE MOMENTS         DIIS   ORB.
    1      0.000D+00      0.000D+00        -0.48880104     -0.000000    0.00000    0.00000    0.00000    0    start
    2      0.000D+00      0.120D-01        -0.49635630      0.000000    0.00000    0.00000    0.00000    1    diag,B
    3      0.121D-01      0.655D-02        -0.49989428     -0.000000    0.00000    0.00000    0.00000    2    diag,B
    4      0.128D-01      0.837D-03        -0.49995327     -0.000000    0.00000    0.00000    0.00000    3    diag,B
    5      0.116D-02      0.143D-03        -0.49995486      0.000000    0.00000    0.00000    0.00000    4    diag,B
    6      0.175D-03      0.293D-04        -0.49995493     -0.000000    0.00000    0.00000    0.00000    5    diag,B
    7      0.660D-04      0.301D-05        -0.49995493      0.000000    0.00000    0.00000    0.00000    6    fixocc
    8      0.873D-05      0.402D-08        -0.49995493     -0.000000    0.00000    0.00000    0.00000    0    orth

 Final alpha occupancy:   1   0   0   0   0   0   0   0
 Final beta  occupancy:   0   0   0   0   0   0   0   0

 !RHF STATE 1.1 Energy                 -0.499954927299
 Nuclear energy                         0.00000000
 One-electron energy                   -0.49995493
 Two-electron energy                   -0.00000000
 Virial quotient                       -1.00019220
 !RHF STATE 1.1 Dipole moment           0.00000000     0.00000000     0.00000000
 Dipole moment /Debye                   0.00000000     0.00000000     0.00000000

 Orbital energies:

         1.1          2.1          3.1
     -0.499955     0.051182     0.362652

         1.2          2.2
      0.171452     0.741423

         1.3          2.3
      0.171452     0.741423

         1.4          2.4
      0.613308     2.447675

         1.5          2.5
      0.171452     0.741423

         1.6          2.6
      0.613308     2.447675

         1.7          2.7
      0.613308     2.447675

         1.8          2.8
      1.558725     6.549846

 HOMO      1.1    -0.499955 =     -13.6045eV
 LUMO      2.1     0.051182 =       1.3927eV
 LUMO-HOMO         0.551137 =      14.9972eV


 **********************************************************************************************************************************
 DATASETS  * FILE   NREC   LENGTH (MB)   RECORD NAMES
              1      23       20.07       500      610      700      701      900      950      970     1001      129      960   
                                          VAR    BASINP    GEOM     GEOM    SYMINP    ZMAT    AOBASIS   BASIS     P2S    ABASIS    
                                         1700     1101     1401     1411     1412     1650     1100     1400     1410     1200   
                                         OPER      SR      EKINR    POTR     PVPR    MOLCAS      S      EKIN      POT      H0  
                                         1210     1080     1600   
                                          H01     AOSYM     SMH  

              2       7        6.04       700     1000      520     2100      701     1001     2101   
                                         GEOM     BASIS   MCVARS     RHF     GEOM     BASIS     RHF  

 PROGRAMS   *        TOTAL       RHF       INT  RCCSD(T)       RHF       INT
 CPU TIMES  *        58.62      0.03      5.83      6.28      0.99     45.03
 REAL TIME  *        64.95 SEC
 DISK USED  *         1.73 GB      
 SF USED    *       259.43 MB      
 GA USED    *         0.00 MB       (max)       0.00 MB       (current)
 **********************************************************************************************************************************
 SETTING H_SCF          =        -0.49995493  AU                              
 SETTING _CC_NORM_MAX   =         2.00000000                                  


 PROGRAM * CCSD (Restricted open-shell coupled cluster)     Authors: C. Hampel, H.-J. Werner, 1991, M. Deegan, P.J. Knowles, 1992


 Convergence thresholds:  THRVAR = 1.00D-08  THRDEN = 1.00D-06

 CCSD(T)     terms to be evaluated (factor= 1.000)


 Number of active  orbitals:        1 (   1   0   0   0   0   0   0   0 )
 Number of external orbitals:      45 (  10   8   8   3   8   3   3   2 )

 Memory could be reduced to 0.52 Mwords without degradation in triples

 Number of N-1 electron functions:               1
 Number of N-2 electron functions:               0
 Number of singly external CSFs:                11
 Number of doubly external CSFs:                 0
 Total number of CSFs:                          11

 Molecular orbitals read from record     2101.2  Type=RHF/CANONICAL (state 1.1)

 Integral transformation finished. Total CPU:   0.00 sec, npass=  1  Memory used:   0.08 MW

 Starting RMP2 calculation

 Wavefunction is spin-projected

 ITER.      SQ.NORM     CORR.ENERGY   TOTAL ENERGY   ENERGY CHANGE        DEN1      VAR(S)    VAR(P)  DIIS     TIME
   1      1.00000000    -0.00000000    -0.49995493    -0.00000000    -0.00000000  0.62D-18  0.00D+00  1  1     0.00

 Norm of t1 vector:      0.00000000      S-energy:    -0.00000000      T1 diagnostic:  0.00000000
 Norm of t2 vector:      0.00000000      P-energy:     0.00000000
                                         Alpha-Beta:   0.00000000
                                         Alpha-Alpha:  0.00000000
                                         Beta-Beta:    0.00000000

 Spin contamination <S**2-Sz**2-Sz>     0.00000000
  Reference energy                     -0.499954927299
  RHF-RMP2 correlation energy          -0.000000000000
 !RHF-RMP2 energy                      -0.499954927299
 (NB above energy spin projected)

 Starting RCCSD calculation

 ITER.      SQ.NORM     CORR.ENERGY   TOTAL ENERGY   ENERGY CHANGE        DEN1      VAR(S)    VAR(P)  DIIS     TIME
   1      1.00000000    -0.00000000    -0.49995493    -0.00000000    -0.00000000  0.36D-16  0.00D+00  1  1     0.03

 Norm of t1 vector:      0.00000000      S-energy:    -0.00000000      T1 diagnostic:  0.00000000
                                                                       D1 diagnostic:  0.00000000
 Norm of t2 vector:      0.00000000      P-energy:     0.00000000
                                         Alpha-Beta:   0.00000000
                                         Alpha-Alpha:  0.00000000
                                         Beta-Beta:    0.00000000

 Spin contamination <S**2-Sz**2-Sz>     0.00000000

 Memory could be reduced to 0.38 Mwords without degradation in triples
 

 RESULTS
 =======

  Reference energy                     -0.499954927299
  RCCSD singles energy                 -0.000000000000
  RCCSD pair energy                     0.000000000000
  RCCSD correlation energy             -0.000000000000
  Triples (T) contribution              0.000000000000
  Total correlation energy             -0.000000000000
 
  RHF-RCCSD energy                     -0.499954927299
  RHF-RCCSD[T] energy                  -0.499954927299
  RHF-RCCSD-T energy                   -0.499954927299
 !RHF-RCCSD(T) energy                  -0.499954927299

 Program statistics:

 Available memory in ccsd:               999999882
 Min. memory needed in ccsd:                  9629
 Max. memory used in ccsd:                    9629
 Max. memory used in cckext:                 39451 ( 1 integral passes)
 Max. memory used in cckint:                 75219 ( 1 integral passes)



 **********************************************************************************************************************************
 DATASETS  * FILE   NREC   LENGTH (MB)   RECORD NAMES
              1      23       20.07       500      610      700      701      900      950      970     1001      129      960   
                                          VAR    BASINP    GEOM     GEOM    SYMINP    ZMAT    AOBASIS   BASIS     P2S    ABASIS    
                                         1700     1101     1401     1411     1412     1650     1100     1400     1410     1200   
                                         OPER      SR      EKINR    POTR     PVPR    MOLCAS      S      EKIN      POT      H0  
                                         1210     1080     1600   
                                          H01     AOSYM     SMH  

              2       7        6.04       700     1000      520     2100      701     1001     2101   
                                         GEOM     BASIS   MCVARS     RHF     GEOM     BASIS     RHF  

 PROGRAMS   *        TOTAL  RCCSD(T)       RHF       INT  RCCSD(T)       RHF       INT
 CPU TIMES  *        58.74      0.12      0.03      5.83      6.28      0.99     45.03
 REAL TIME  *        65.18 SEC
 DISK USED  *         1.73 GB      
 SF USED    *       259.43 MB      
 GA USED    *         0.00 MB       (max)       0.00 MB       (current)
 **********************************************************************************************************************************
 SETTING H_CCSD         =        -0.49995493  AU                              
 Output type csv         
                                                                                                                                                                                                                                                                

         TE_SCF,TE_CCSD,H_SCF,H_CCSD
   -6791.050444,   -6791.171332,   -0.49995493,   -0.49995493
                                                  

 RCCSD(T)/USERDEF energy=     -0.499954927299

        RCCSD(T)        RHF-SCF         RCCSD(T)        RHF-SCF 
     -0.49995493     -0.49995493  -6791.17133154  -6791.05044399
 **********************************************************************************************************************************
 Molpro calculation terminated
 Variable memory released
