
 Primary working directories    : /global/cscratch1/sd/bkincaid
 Secondary working directories  : /global/cscratch1/sd/bkincaid
 Wavefunction directory         : /global/homes/b/bkincaid/wfu/
 Main file repository           : /global/cscratch1/sd/bkincaid/

 SHA1      : 19cd028119e0e09f93f0674bd8af7968d9b3eff6
 NAME      : 2015.1.36
 ARCHNAME  : linux/x86_64
 FC        : /opt/cray/pe/craype/2.5.14/bin/ftn
 BLASLIB   : -L/opt/intel/compilers_and_libraries_2018.1.163/linux/mkl/lib/intel64 -Wl,-_start-group -lmkl_intel_ilp64 -lmkl_intel_thread -lmkl_core -Wl,-_end-group -liomp5
 id        : lbl

 Nodes     nprocs
 nid12904    11
 Number of processes for MPI-2 version of Molpro:   nprocs(total)=   12   nprocs(compute)=   11   nprocs(helper)=    1

 Using customized tuning parameters: mindgm=7; mindgv=16; mindgc=1; mindgr=1; noblas=0; minvec=7
 default implementation of scratch files=sf  

 ***,Calculation for IrO groundstate
 memory,1024,m
 gthresh,twoint=1.0E-15
 gthresh,throvl=1.0E-15
 
 set,dkroll=1,dkho=10,dkhp=4
 
 basis={
 Including file /global/u1/b/bkincaid/molpro/Ir/molecules/tz/IrO/ae/1.800/tz.basis
 Including file /global/u1/b/bkincaid/molpro/Ir/molecules/tz/IrO/ae/1.800/O-aug-cc-CVTZ.basis
 }
 
 ne = 85
 
 A1=20
 B1=10
 B2=10
 A2=4
 
 do i=1,1
 z(i) = 1.800 - 0.1*(i-1)
 geometry={
 2
 IrO
 Ir 0.0 0.0 0.0
 O 0.0 0.0 z(i)
 }
         {rhf
         wf,nelec=ne,spin=3,sym=1
                                                                                 !occ,A1,B1,B2,A2
                                                                                 !closed,A1,B1-1,B2-1,A2-1
         print,orbitals=2
         }
         {rhf
         wf,nelec=ne,spin=3,sym=1
                 occ,A1,B1,B2,A2
                 closed,A1,B1-1,B2-1,A2-1
         print,orbitals=2
         }
         scf(i)=energy
         _CC_NORM_MAX=2.0
         {rccsd(t);maxit,100;core}
         ccsd(i)=energy
 enddo
 
 table,z,scf,ccsd
 save
 type,csv
 

 Variables initialized (889), CPU time= 0.00 sec
 Commands  initialized (702), CPU time= 0.01 sec, 572 directives.
 Default parameters read. Elapsed time= 0.18 sec

 Checking input...
 Passed
1


                                         ***  PROGRAM SYSTEM MOLPRO  ***
                                       Copyright, TTI GmbH Stuttgart, 2015
                                    Version 2015.1 linked Dec 29 2018 15:55:43


 **********************************************************************************************************************************
 LABEL *   Calculation for IrO groundstate                                               
  64 bit mpp version                                                                     DATE: 07-Jun-21          TIME: 00:47:37  
 **********************************************************************************************************************************

 SHA1:             19cd028119e0e09f93f0674bd8af7968d9b3eff6
 **********************************************************************************************************************************

 THRESHOLDS:

 ZERO    =  1.00D-12  ONEINT  =  1.00D-12  TWOINT  =  1.00D-15  PREFAC  =  1.00D-14  LOCALI  =  1.00D-09  EORDER  =  1.00D-04
 ENERGY  =  0.00D+00  ETEST   =  0.00D+00  EDENS   =  0.00D+00  THRDEDEF=  1.00D-06  GRADIENT=  1.00D-02  STEP    =  1.00D-03
 ORBITAL =  1.00D-05  CIVEC   =  1.00D-05  COEFF   =  1.00D-04  PRINTCI =  5.00D-02  PUNCHCI =  9.90D+01  OPTGRAD =  3.00D-04
 OPTENERG=  1.00D-06  OPTSTEP =  3.00D-04  THRGRAD =  1.00D-10  COMPRESS=  1.00D-11  VARMIN  =  1.00D-07  VARMAX  =  1.00D-03
 THRDOUB =  0.00D+00  THRDIV  =  1.00D-05  THRRED  =  1.00D-07  THRPSP  =  1.00D+00  THRDC   =  1.00D-10  THRCS   =  1.00D-10
 THRNRM  =  1.00D-08  THREQ   =  0.00D+00  THRDE   =  1.00D+00  THRREF  =  1.00D-05  SPARFAC =  1.00D+00  THRDLP  =  1.00D-07
 THRDIA  =  1.00D-10  THRDLS  =  1.00D-07  THRGPS  =  0.00D+00  THRKEX  =  0.00D+00  THRDIS  =  2.00D-01  THRVAR  =  1.00D-10
 THRLOC  =  1.00D-06  THRGAP  =  1.00D-06  THRLOCT = -1.00D+00  THRGAPT = -1.00D+00  THRORB  =  1.00D-06  THRMLTP =  0.00D+00
 THRCPQCI=  1.00D-10  KEXTA   =  0.00D+00  THRCOARS=  0.00D+00  SYMTOL  =  1.00D-06  GRADTOL =  1.00D-06  THROVL  =  1.00D-08
 THRORTH =  1.00D-08  GRID    =  1.00D-06  GRIDMAX =  1.00D-03  DTMAX   =  0.00D+00  THROCCDE=  1.00D-01  THROCCDE=  1.00D-01



 THRESHOLDS:

 ZERO    =  1.00D-12  ONEINT  =  1.00D-12  TWOINT  =  1.00D-15  PREFAC  =  1.00D-14  LOCALI  =  1.00D-09  EORDER  =  1.00D-04
 ENERGY  =  0.00D+00  ETEST   =  0.00D+00  EDENS   =  0.00D+00  THRDEDEF=  1.00D-06  GRADIENT=  1.00D-02  STEP    =  1.00D-03
 ORBITAL =  1.00D-05  CIVEC   =  1.00D-05  COEFF   =  1.00D-04  PRINTCI =  5.00D-02  PUNCHCI =  9.90D+01  OPTGRAD =  3.00D-04
 OPTENERG=  1.00D-06  OPTSTEP =  3.00D-04  THRGRAD =  1.00D-10  COMPRESS=  1.00D-11  VARMIN  =  1.00D-07  VARMAX  =  1.00D-03
 THRDOUB =  0.00D+00  THRDIV  =  1.00D-05  THRRED  =  1.00D-07  THRPSP  =  1.00D+00  THRDC   =  1.00D-10  THRCS   =  1.00D-10
 THRNRM  =  1.00D-08  THREQ   =  0.00D+00  THRDE   =  1.00D+00  THRREF  =  1.00D-05  SPARFAC =  1.00D+00  THRDLP  =  1.00D-07
 THRDIA  =  1.00D-10  THRDLS  =  1.00D-07  THRGPS  =  0.00D+00  THRKEX  =  0.00D+00  THRDIS  =  2.00D-01  THRVAR  =  1.00D-10
 THRLOC  =  1.00D-06  THRGAP  =  1.00D-06  THRLOCT = -1.00D+00  THRGAPT = -1.00D+00  THRORB  =  1.00D-06  THRMLTP =  0.00D+00
 THRCPQCI=  1.00D-10  KEXTA   =  0.00D+00  THRCOARS=  0.00D+00  SYMTOL  =  1.00D-06  GRADTOL =  1.00D-06  THROVL  =  1.00D-15
 THRORTH =  1.00D-08  GRID    =  1.00D-06  GRIDMAX =  1.00D-03  DTMAX   =  0.00D+00  THROCCDE=  1.00D-01  THROCCDE=  1.00D-01


 SETTING DKROLL         =         1.00000000                                  
 SETTING DKHO           =        10.00000000                                  
 SETTING DKHP           =         4.00000000                                  

 Variable memory set to 1024000000 words,  buffer space   230000 words

 SETTING BASIS          =    USERDEF
 SETTING NE             =        85.00000000                                  
 SETTING A1             =        20.00000000                                  
 SETTING B1             =        10.00000000                                  
 SETTING B2             =        10.00000000                                  
 SETTING A2             =         4.00000000                                  

 DO I                   =         1.00000000   
 SETTING Z(1)           =         1.80000000                                  

Geometry recognized as XYZ



 Recomputing integrals since basis changed


 Using spherical harmonics



 PROGRAM * SEWARD (Integral evaluation for generally contracted gaussian basis sets)     Author: Roland Lindh, 1990

 Geometry written to block  1 of record 700


 Point group  C2v 



 ATOMIC COORDINATES

 NR  ATOM    CHARGE       X              Y              Z

   1  IR     77.00    0.000000000    0.000000000    0.000000000
   2  O       8.00    0.000000000    0.000000000    3.401507024

 Bond lengths in Bohr (Angstrom)

 1-2  3.401507024
     ( 1.800000000)

 NUCLEAR CHARGE:                   85
 NUMBER OF PRIMITIVE AOS:         541
 NUMBER OF SYMMETRY AOS:          446
 NUMBER OF CONTRACTIONS:          446   ( 185A1  + 106B1  + 106B2  +  49A2  )
 NUMBER OF CORE ORBITALS:          35   (  16A1  +   8B1  +   8B2  +   3A2  )
 NUMBER OF VALENCE ORBITALS:       10   (   5A1  +   2B1  +   2B2  +   1A2  )


 NUCLEAR REPULSION ENERGY  181.09620107

 One-electron integrals computed with SEWARD

 10nd-order Douglas-Kroll-Hess method activated. McWeeny DKH parametrization is used.

 Computing Douglas-Kroll / X2C integrals

 AO integral compression algorithm  1   Integral accuracy      1.0D-15

     4463.264 MB (compressed) written to integral file ( 38.1%)

     Node minimum: 243.532 MB, node maximum: 838.337 MB


 NUMBER OF SORTED TWO-ELECTRON INTEGRALS:  115711532.     BUFFER LENGTH:  32768
 NUMBER OF SEGMENTS:   4  SEGMENT LENGTH:   31989761      RECORD LENGTH: 524288

 Memory used in sort:      32.55 MW

 SORT1 READ  1465035727. AND WROTE    44402289. INTEGRALS IN    129 RECORDS. CPU TIME:    24.02 SEC, REAL TIME:    32.89 SEC
 SORT2 READ   484860779. AND WROTE  1273302750. INTEGRALS IN  20801 RECORDS. CPU TIME:     1.33 SEC, REAL TIME:     9.06 SEC

 Node minimum:   115641882.  Node maximum:   115920125. integrals

 OPERATOR DM      FOR CENTER  0  COORDINATES:    0.000000    0.000000    0.000000

 EXTRA SYMMETRY OF AOS IN SYMMETRY 1:   1 1 1 1 1 1 1 1 1 1   1 1 1 1 1 1 1 1 1 1   1 1 1 1 1 1 1 1 1 1   1 1 1 1 1 1 1 1 1 1
                                        1 1 1 1 1 1 1 1 1 1   1 1 1 1 1 1 1 1 1 1   1 1 1 1 1 1 1 1 1 1   1 1 1 1 1 1 1 1 1 1
                                        1 1 1 1 1 1 1 1 1 1   1 1 1 1 1 1 1 1 1 1   1 1 1 1 1 1 1 1 1 1   1 1 1 1 1 1 1 1 1 1
                                        1 1 1 1 1 1 1 1 1 1   1 1 1 1 1 1 1 1 1 1   1 1 1 1 2 1 1 2 1 1   2 1 1 1 1 1 1 1 1 1
                                        1 1 1 1 1 1 1 1 1 1   1 1 1 1 1 1 1 1 1 1   1 1 1 1 1
 EXTRA SYMMETRY OF AOS IN SYMMETRY 2:   1 1 1 1 1 1 1 1 1 1   1 1 1 1 1 1 1 1 1 1   1 1 1 1 1 1 1 1 1 1   1 1 1 1 1 1 1 1 1 1
                                        1 1 1 1 1 1 1 1 1 1   1 1 1 1 1 2 1 2 1 2   1 2 1 2 1 2 1 2 1 2   1 2 1 2 1 2 1 2 1 2
                                        1 2 1 2 1 2 1 2 1 2   1 1 1 1 1 1 1 1 1 1   1 1 1 2 1 2
 EXTRA SYMMETRY OF AOS IN SYMMETRY 3:   1 1 1 1 1 1 1 1 1 1   1 1 1 1 1 1 1 1 1 1   1 1 1 1 1 1 1 1 1 1   1 1 1 1 1 1 1 1 1 1
                                        1 1 1 1 1 1 1 1 1 1   1 1 1 1 1 2 1 2 1 2   1 2 1 2 1 2 1 2 1 2   1 2 1 2 1 2 1 2 1 2
                                        1 2 1 2 1 2 1 2 1 2   1 1 1 1 1 1 1 1 1 1   1 1 1 2 1 2
 EXTRA SYMMETRY OF AOS IN SYMMETRY 4:   1 1 1 1 1 1 1 1 1 1   1 1 1 1 1 1 1 1 1 1   1 1 1 1 1 1 1 1 1 1   1 1 1 1 1 1 1 1 2 1
                                        2 1 2 1 1 1 1 1 1

 Eigenvalues of metric

         1 0.166E-06 0.353E-06 0.769E-06 0.805E-06 0.142E-05 0.487E-05 0.508E-05 0.116E-04
         2 0.172E-06 0.801E-06 0.511E-05 0.116E-04 0.264E-04 0.520E-04 0.547E-04 0.556E-04
         3 0.172E-06 0.801E-06 0.511E-05 0.116E-04 0.264E-04 0.520E-04 0.547E-04 0.556E-04
         4 0.805E-06 0.267E-04 0.542E-04 0.166E-03 0.628E-03 0.978E-03 0.214E-02 0.553E-02


 **********************************************************************************************************************************
 DATASETS  * FILE   NREC   LENGTH (MB)   RECORD NAMES
              1      22       23.93       500      610      700      900      950      970     1000      129      960     1700   
                                          VAR    BASINP    GEOM    SYMINP    ZMAT    AOBASIS   BASIS     P2S    ABASIS    OPER   
                                         1101     1401     1411     1412     1650     1100     1400     1410     1200     1210   
                                          SR      EKINR    POTR     PVPR    MOLCAS      S      EKIN      POT      H0       H01  
                                         1080     1600   
                                         AOSYM     SMH  

 PROGRAMS   *        TOTAL       INT
 CPU TIMES  *       175.04    174.90
 REAL TIME  *       194.43 SEC
 DISK USED  *        10.33 GB      
 GA USED    *         0.00 MB       (max)       0.00 MB       (current)
 **********************************************************************************************************************************


 PROGRAM * RHF-SCF (OPEN SHELL)       Authors: W. Meyer, H.-J. Werner


 NUMBER OF ELECTRONS:      44+   41-    SPACE SYMMETRY=1    SPIN SYMMETRY: Quartet 
 CONVERGENCE THRESHOLDS:    1.00E-05 (Density)    1.70E-07 (Energy)
 MAX. NUMBER OF ITERATIONS:       60
 INTERPOLATION TYPE:            DIIS
 INTERPOLATION STEPS:              2 (START)      1 (STEP)
 LEVEL SHIFTS:                 -0.60 (CLOSED) -0.30 (OPEN) 



 Orbital guess generated from atomic densities. Full valence occupancy:   21  10  10   4

 Molecular orbital dump at record        2100.2

 Initial alpha occupancy:  21  10  10   3
 Initial beta  occupancy:  20  10   8   3
 Wave function symmetry:    1

 ITERATION    DDIFF          GRAD             ENERGY        2-EL.EN.            DIPOLE MOMENTS         DIIS   ORB.
    1      0.000D+00      0.000D+00    -17888.49166215  12968.354633    0.00000    0.00000   -6.36746    0    start
    2      0.000D+00      0.314D-01    -17893.92815223  14211.469564    0.00000    0.00000    6.28165    1    diag,B
    3      0.257D+01      0.636D-01    -17899.69079425  13937.078467    0.00000    0.00000    1.45265    2    diag,B
    4      0.216D+00      0.253D-01    -17901.29290827  13800.288890    0.00000    0.00000   -0.20135    3    diag,B
    5      0.516D-01      0.108D-01    -17901.71410681  13720.583593    0.00000    0.00000   -1.23852    4    diag,B
    6      0.103D-01      0.336D-02    -17901.79171984  13681.712574    0.00000    0.00000   -1.68693    5    diag,B
    7      0.502D-02      0.815D-03    -17901.80336962  13674.441757    0.00000    0.00000   -1.78563    6    fixocc
    8      0.291D-02      0.595D-03    -17901.80946098  13674.132212    0.00000    0.00000   -1.76065    7    diag,B
    9      0.108D-02      0.352D-03    -17901.81367272  13673.032838    0.00000    0.00000   -1.74774    8    diag,B
   10      0.101D-02      0.237D-03    -17901.81663536  13672.239904    0.00000    0.00000   -1.70123    9    orth
   11      0.131D-02      0.160D-03    -17901.81815814  13671.422564    0.00000    0.00000   -1.64714    9    diag,B
   12      0.698D-03      0.111D-03    -17901.81911662  13670.571185    0.00000    0.00000   -1.56543    9    diag,B
   13      0.744D-03      0.660D-04    -17901.81941039  13670.168191    0.00000    0.00000   -1.51908    9    diag,B
   14      0.402D-03      0.400D-04    -17901.81953098  13669.796866    0.00000    0.00000   -1.48428    9    diag,B
   15      0.203D-03      0.197D-04    -17901.81955276  13669.662854    0.00000    0.00000   -1.47270    9    diag,B
   16      0.108D-03      0.105D-04    -17901.81955600  13669.605051    0.00000    0.00000   -1.47182    9    diag,B
   17      0.442D-04      0.547D-05    -17901.81955687  13669.590829    0.00000    0.00000   -1.47089    9    diag,B
   18      0.218D-04      0.301D-05    -17901.81955717  13669.589848    0.00000    0.00000   -1.47152    9    diag,B
   19      0.115D-04      0.165D-05    -17901.81955727  13669.590770    0.00000    0.00000   -1.47154    9    diag,B
   20      0.662D-05      0.116D-05    -17901.81955729  13669.590371    0.00000    0.00000   -1.47151    0    orth

 Final alpha occupancy:  20  10  10   4
 Final beta  occupancy:  20   9   9   3

 !RHF STATE 1.1 Energy               -17901.8195572921    
 Nuclear energy                       181.09620107
 One-electron energy               -24917.71094368
 Two-electron energy                 6834.79518532
 Virial quotient                       -0.67997631
 !RHF STATE 1.1 Dipole moment           0.00000000     0.00000000    -1.47151173
 Dipole moment /Debye                   0.00000000     0.00000000    -3.73996478

 ELECTRON ORBITALS
 =================


   Orb  Occ    Energy  Couls-En    Coefficients

                                   1 1s      1 1s      1 1s      1 1s      1 1s      1 1s      1 1s      1 1s      1 1s      1 1s   
                                   1 1s      1 1s      1 1s      1 1s      1 1s      1 1s      1 1s      1 1s      1 1s      1 1s   
                                   1 1s      1 1s      1 1s      1 1s      1 1s      1 1s      1 1s      1 1s      1 1s      1 1s   
                                   1 1s      1 1s      1 1s      1 1s      1 1s      1 1s      1 1s      1 2pz     1 2pz     1 2pz  
                                   1 2pz     1 2pz     1 2pz     1 2pz     1 2pz     1 2pz     1 2pz     1 2pz     1 2pz     1 2pz  
                                   1 2pz     1 2pz     1 2pz     1 2pz     1 2pz     1 2pz     1 2pz     1 2pz     1 2pz     1 2pz  
                                   1 2pz     1 2pz     1 2pz     1 2pz     1 2pz     1 2pz     1 2pz     1 2pz     1 2pz     1 3d0  
                                   1 3d2+    1 3d0     1 3d2+    1 3d0     1 3d2+    1 3d0     1 3d2+    1 3d0     1 3d2+    1 3d0  
                                   1 3d2+    1 3d0     1 3d2+    1 3d0     1 3d2+    1 3d0     1 3d2+    1 3d0     1 3d2+    1 3d0  
                                   1 3d2+    1 3d0     1 3d2+    1 3d0     1 3d2+    1 3d0     1 3d2+    1 3d0     1 3d2+    1 3d0  
                                   1 3d2+    1 3d0     1 3d2+    1 3d0     1 3d2+    1 3d0     1 3d2+    1 3d0     1 3d2+    1 3d0  
                                   1 3d2+    1 3d0     1 3d2+    1 4f0     1 4f2+    1 4f0     1 4f2+    1 4f0     1 4f2+    1 4f0  
                                   1 4f2+    1 4f0     1 4f2+    1 4f0     1 4f2+    1 4f0     1 4f2+    1 4f0     1 4f2+    1 4f0  
                                   1 4f2+    1 4f0     1 4f2+    1 4f0     1 4f2+    1 4f0     1 4f2+    1 4f0     1 4f2+    1 4f0  
                                   1 4f2+    1 4f0     1 4f2+    1 5g0     1 5g4+    1 5g2+    1 5g0     1 5g4+    1 5g2+    1 5g0  
                                   1 5g4+    1 5g2+    2 1s      2 1s      2 1s      2 1s      2 1s      2 1s      2 1s      2 1s   
                                   2 1s      2 1s      2 1s      2 1s      2 1s      2 2pz     2 2pz     2 2pz     2 2pz     2 2pz  
                                   2 2pz     2 2pz     2 2pz     2 3d0     2 3d2+    2 3d0     2 3d2+    2 3d0     2 3d2+    2 3d0  
                                   2 3d2+    2 4f0     2 4f2+    2 4f0     2 4f2+ 

   1.1   2 -2813.1973-6060.0793  0.000014  0.000038  0.000104  0.000238  0.000499  0.000967  0.001786  0.003190  0.005597  0.009730
                                 0.016892  0.029390  0.051246  0.088886  0.149608  0.231171  0.289997  0.001232  0.238663  0.091363
                                 0.007976  0.001180 -0.001213  0.002508 -0.003702  0.002247 -0.000668  0.000606 -0.001081  0.000863
                                -0.000232  0.000199 -0.000108  0.000007 -0.000003  0.000000 -0.000000 -0.000000 -0.000000 -0.000000
                                -0.000000 -0.000000 -0.000000 -0.000000 -0.000000 -0.000000 -0.000000 -0.000000 -0.000000 -0.000000
                                 0.000000 -0.000000  0.000000 -0.000000 -0.000000  0.000000 -0.000000  0.000000 -0.000001  0.000001
                                -0.000001  0.000000  0.000000 -0.000002  0.000004 -0.000003  0.000002 -0.000001  0.000000  0.000000
                                 0.000000  0.000000  0.000000  0.000000  0.000000  0.000000  0.000000  0.000000  0.000000 -0.000000
                                 0.000000 -0.000000 -0.000000  0.000000 -0.000000 -0.000000 -0.000000  0.000000  0.000000 -0.000001
                                -0.000000  0.000003  0.000000 -0.000012 -0.000000  0.000017  0.000000 -0.000015 -0.000000  0.000010
                                 0.000000 -0.000004 -0.000000  0.000008  0.000000 -0.000006 -0.000000  0.000001  0.000000  0.000000
                                -0.000000 -0.000000  0.000000  0.000000  0.000000  0.000000  0.000000  0.000000  0.000000  0.000000
                                 0.000000 -0.000000 -0.000000  0.000000 -0.000000 -0.000000 -0.000000  0.000000  0.000000 -0.000001
                                -0.000000  0.000002  0.000000 -0.000003 -0.000000  0.000003  0.000000 -0.000002  0.000000  0.000001
                                 0.000000 -0.000000 -0.000000 -0.000000  0.000000 -0.000000  0.000000 -0.000000  0.000000 -0.000000
                                 0.000000 -0.000000  0.000000 -0.000000  0.000000 -0.000000  0.000000  0.000001  0.000001  0.000000
                                -0.000000 -0.000001 -0.000001 -0.000001  0.000001 -0.000000 -0.000000  0.000000 -0.000000  0.000001
                                 0.000000  0.000000 -0.000000 -0.000000  0.000000  0.000000  0.000000 -0.000000  0.000000 -0.000000
                                 0.000000 -0.000000  0.000000 -0.000000 -0.000000

   2.1   2  -497.4930-1326.0917 -0.000005 -0.000015 -0.000040 -0.000091 -0.000192 -0.000372 -0.000688 -0.001231 -0.002168 -0.003790
                                -0.006638 -0.011706 -0.020849 -0.037387 -0.066458 -0.112361 -0.162873 -0.000165 -0.151906  0.044807
                                 0.409148  0.493670  0.184954  0.020349 -0.009367  0.007313 -0.002840  0.002640 -0.005122  0.004162
                                -0.001149  0.001010 -0.000550  0.000037 -0.000016  0.000003 -0.000001 -0.000000 -0.000000 -0.000000
                                -0.000000 -0.000000 -0.000000 -0.000000 -0.000000 -0.000000 -0.000000 -0.000001 -0.000001 -0.000003
                                -0.000000 -0.000005 -0.000007 -0.000007 -0.000003 -0.000000 -0.000000  0.000000 -0.000004  0.000006
                                -0.000005  0.000002  0.000002 -0.000010  0.000022 -0.000018  0.000009 -0.000005  0.000000 -0.000000
                                 0.000000 -0.000000  0.000000 -0.000000  0.000000 -0.000000  0.000000 -0.000000  0.000000 -0.000000
                                 0.000001 -0.000002  0.000001 -0.000001  0.000001 -0.000001  0.000001  0.000001  0.000000 -0.000003
                                 0.000000  0.000012  0.000000 -0.000055 -0.000000  0.000078  0.000000 -0.000072 -0.000000  0.000049
                                 0.000000 -0.000022 -0.000000  0.000039  0.000000 -0.000029 -0.000000  0.000004 -0.000000  0.000001
                                -0.000000 -0.000001 -0.000000  0.000000  0.000000  0.000000  0.000000  0.000000  0.000000 -0.000000
                                -0.000000  0.000000  0.000000  0.000000  0.000000 -0.000000  0.000000  0.000001 -0.000000 -0.000004
                                 0.000000  0.000010 -0.000000 -0.000015  0.000000  0.000015 -0.000000 -0.000011 -0.000000  0.000006
                                -0.000000 -0.000001  0.000000 -0.000000  0.000000 -0.000000  0.000001  0.000000 -0.000000 -0.000001
                                -0.000000  0.000000  0.000000 -0.000000  0.000000 -0.000000  0.000000  0.000005  0.000006  0.000002
                                -0.000002 -0.000004 -0.000007 -0.000004  0.000004 -0.000000 -0.000000  0.000000 -0.000001  0.000003
                                 0.000000  0.000000 -0.000001 -0.000000 -0.000000  0.000001 -0.000000 -0.000000 -0.000000 -0.000001
                                -0.000000 -0.000000 -0.000000 -0.000001  0.000000

   3.1   2  -433.5334-1209.9760 -0.000000 -0.000000 -0.000000 -0.000000 -0.000000 -0.000000 -0.000000 -0.000000 -0.000000 -0.000000
                                -0.000000 -0.000000 -0.000001 -0.000001 -0.000002 -0.000003 -0.000004  0.000000 -0.000004  0.000002
                                 0.000012  0.000011  0.000002 -0.000001  0.000000  0.000000  0.000000  0.000000  0.000000 -0.000000
                                 0.000000 -0.000001  0.000000 -0.000000 -0.000000 -0.000000  0.000000  0.000003  0.000008  0.000024
                                 0.000062  0.000153  0.000367  0.000873  0.002085  0.005048  0.012348  0.030033  0.070112  0.147677
                                -0.000314  0.257466  0.326975  0.249423  0.089031  0.009866  0.000451 -0.000270  0.000441 -0.000609
                                 0.000427 -0.000290  0.000079 -0.000021  0.000016 -0.000005  0.000001 -0.000000  0.000000 -0.000000
                                 0.000000 -0.000000  0.000000 -0.000000  0.000000 -0.000000  0.000000 -0.000000  0.000000 -0.000000
                                 0.000000 -0.000000  0.000000 -0.000001  0.000000 -0.000001  0.000000 -0.000000  0.000000  0.000000
                                -0.000000 -0.000000  0.000000  0.000001 -0.000000 -0.000001  0.000000  0.000001 -0.000000 -0.000001
                                 0.000000  0.000000 -0.000000 -0.000001  0.000000  0.000001 -0.000000 -0.000000 -0.000000  0.000000
                                -0.000000 -0.000000  0.000000  0.000000  0.000000 -0.000000  0.000000 -0.000002 -0.000001 -0.000001
                                -0.000001 -0.000000  0.000001  0.000000  0.000001 -0.000000  0.000000  0.000000 -0.000000 -0.000000
                                 0.000000  0.000001 -0.000000 -0.000001  0.000000  0.000000 -0.000000 -0.000000  0.000000 -0.000000
                                -0.000000  0.000000 -0.000000 -0.000000  0.000000 -0.000000  0.000000 -0.000000  0.000000 -0.000000
                                 0.000000 -0.000000  0.000000 -0.000000  0.000000 -0.000000  0.000000  0.000000  0.000000  0.000000
                                -0.000000 -0.000000 -0.000000 -0.000000  0.000000 -0.000000 -0.000000 -0.000000 -0.000000 -0.000000
                                 0.000000  0.000000 -0.000000  0.000000  0.000000  0.000000 -0.000000  0.000000  0.000000  0.000000
                                 0.000000  0.000000  0.000000 -0.000000  0.000000

   4.1   2  -118.7815 -470.8039  0.000003  0.000007  0.000019  0.000044  0.000092  0.000177  0.000328  0.000588  0.001036  0.001813
                                 0.003180  0.005620  0.010045  0.018112  0.032505  0.055828  0.083248 -0.000087  0.079916 -0.039624
                                -0.341920 -0.547906 -0.085082  0.718958  0.018545  0.538098  0.080492  0.008692 -0.013260  0.011776
                                -0.003782  0.003389 -0.001915  0.000130 -0.000058  0.000009 -0.000003  0.000000  0.000000  0.000000
                                 0.000000  0.000000  0.000000  0.000000  0.000000  0.000000  0.000001  0.000002  0.000004  0.000009
                                 0.000001  0.000016  0.000022  0.000012 -0.000015 -0.000059 -0.000055 -0.000006 -0.000039  0.000053
                                -0.000049  0.000031 -0.000001 -0.000031  0.000073 -0.000062  0.000035 -0.000018  0.000001  0.000000
                                 0.000000  0.000000  0.000000  0.000000  0.000000  0.000000  0.000000  0.000000  0.000001  0.000001
                                 0.000002  0.000004  0.000004  0.000006  0.000012  0.000004  0.000017 -0.000020  0.000028 -0.000020
                                 0.000019  0.000041 -0.000003 -0.000189  0.000013  0.000261 -0.000013 -0.000242  0.000008  0.000163
                                -0.000003 -0.000076  0.000001  0.000136 -0.000001 -0.000103  0.000001  0.000014  0.000000  0.000005
                                 0.000000 -0.000005 -0.000000  0.000000  0.000000 -0.000000 -0.000000 -0.000000 -0.000000  0.000001
                                 0.000000  0.000008  0.000000  0.000002  0.000000 -0.000003 -0.000000  0.000005  0.000000 -0.000016
                                -0.000000  0.000039  0.000000 -0.000056 -0.000000  0.000056  0.000000 -0.000041 -0.000000  0.000021
                                 0.000000 -0.000002  0.000000  0.000001 -0.000005  0.000004  0.000001  0.000004 -0.000003 -0.000001
                                -0.000002  0.000001  0.000000 -0.000000  0.000000 -0.000000  0.000001  0.000014  0.000018  0.000007
                                -0.000007 -0.000016 -0.000021 -0.000010  0.000015 -0.000000 -0.000001  0.000001 -0.000002  0.000011
                                 0.000000  0.000000 -0.000005 -0.000000  0.000000  0.000004  0.000000 -0.000000  0.000000 -0.000004
                                -0.000000 -0.000001 -0.000000 -0.000003  0.000000

   5.1   2   -99.6899 -433.9787  0.000000  0.000000  0.000000  0.000000  0.000000  0.000000  0.000000  0.000000  0.000000  0.000000
                                 0.000000  0.000001  0.000001  0.000003  0.000005  0.000008  0.000012 -0.000000  0.000011 -0.000006
                                -0.000051 -0.000084  0.000002  0.000144 -0.000035  0.000074 -0.000009 -0.000006  0.000016 -0.000018
                                 0.000014 -0.000022  0.000014 -0.000002  0.000003 -0.000005  0.000001 -0.000001 -0.000004 -0.000012
                                -0.000032 -0.000079 -0.000189 -0.000450 -0.001078 -0.002625 -0.006472 -0.015962 -0.038050 -0.083087
                                 0.000807 -0.151984 -0.196305 -0.091912  0.227235  0.497332  0.337437  0.075620  0.016740 -0.015266
                                 0.014025 -0.010057  0.002992 -0.001061  0.000749 -0.000280  0.000029 -0.000008  0.000001 -0.000000
                                -0.000000 -0.000000 -0.000000 -0.000000 -0.000000 -0.000000 -0.000000 -0.000001 -0.000000 -0.000004
                                -0.000000 -0.000012 -0.000000 -0.000023 -0.000001 -0.000035 -0.000001 -0.000030 -0.000000 -0.000013
                                 0.000000 -0.000022 -0.000000  0.000057  0.000001 -0.000077 -0.000001  0.000069  0.000001 -0.000045
                                -0.000000  0.000023  0.000000 -0.000040 -0.000000  0.000030  0.000000 -0.000005  0.000000  0.000004
                                 0.000000 -0.000001  0.000000 -0.000000 -0.000000  0.000000 -0.000000  0.000000  0.000001 -0.000002
                                 0.000003 -0.000010  0.000016 -0.000006  0.000006 -0.000002 -0.000006 -0.000001  0.000004  0.000003
                                -0.000001 -0.000004  0.000007  0.000007 -0.000004 -0.000008  0.000004  0.000007 -0.000000 -0.000004
                                 0.000001  0.000002  0.000000  0.000003  0.000000  0.000000 -0.000004 -0.000000 -0.000000  0.000002
                                 0.000000  0.000000  0.000000 -0.000000  0.000000 -0.000000  0.000000  0.000003  0.000003  0.000001
                                -0.000000 -0.000007 -0.000004 -0.000002  0.000006  0.000000  0.000000 -0.000000  0.000001  0.000002
                                -0.000000 -0.000000 -0.000002 -0.000000 -0.000000 -0.000001  0.000000  0.000000  0.000000  0.000001
                                -0.000000  0.000001 -0.000000  0.000000 -0.000000

   6.1   2   -77.8776 -399.0729 -0.000000 -0.000000 -0.000000 -0.000000 -0.000000 -0.000000 -0.000000 -0.000000 -0.000000 -0.000000
                                -0.000000 -0.000000 -0.000001 -0.000002 -0.000003 -0.000005 -0.000007  0.000000 -0.000007  0.000004
                                 0.000031  0.000053  0.000002 -0.000122  0.000039 -0.000038  0.000012 -0.000006  0.000031 -0.000029
                                 0.000015 -0.000022  0.000015 -0.000002  0.000001  0.000000 -0.000000  0.000000  0.000000  0.000000
                                 0.000000  0.000000  0.000000  0.000000  0.000000  0.000000  0.000000  0.000000  0.000001  0.000002
                                 0.000000  0.000003  0.000005  0.000002 -0.000004 -0.000013 -0.000011 -0.000002  0.000006 -0.000011
                                 0.000015 -0.000015  0.000006 -0.000003  0.000001  0.000001 -0.000001  0.000001 -0.000000 -0.000006
                                 0.000022 -0.000037  0.000134 -0.000205  0.000747 -0.000943  0.003443 -0.003624  0.013226 -0.011213
                                 0.040919 -0.028384  0.103583 -0.056264  0.205325 -0.083782  0.305737 -0.083054  0.303063 -0.043721
                                 0.159497 -0.010532  0.038394  0.000816 -0.002921 -0.001709  0.006164  0.000459 -0.001609 -0.000329
                                 0.001159  0.000045 -0.000142 -0.000065  0.000202  0.000042 -0.000125 -0.000004  0.000012  0.000001
                                -0.000003 -0.000000  0.000001  0.000000 -0.000000  0.000000 -0.000000  0.000000 -0.000001  0.000001
                                -0.000004  0.000002 -0.000013  0.000002 -0.000009  0.000001 -0.000002 -0.000000 -0.000002  0.000001
                                 0.000002 -0.000002 -0.000003  0.000003  0.000003 -0.000003 -0.000002  0.000003  0.000001 -0.000001
                                -0.000000  0.000000 -0.000000 -0.000002  0.000003 -0.000003  0.000001 -0.000005  0.000004 -0.000000
                                 0.000002 -0.000002 -0.000000 -0.000000 -0.000000  0.000000 -0.000000 -0.000000 -0.000000 -0.000000
                                 0.000000  0.000000  0.000000  0.000000 -0.000001 -0.000000 -0.000000 -0.000000 -0.000000 -0.000001
                                 0.000000  0.000000  0.000000 -0.000000  0.000000 -0.000000  0.000000  0.000000  0.000000  0.000000
                                 0.000000  0.000000  0.000000  0.000000 -0.000000

   7.1   2   -77.8701 -399.0648  0.000000  0.000000  0.000000  0.000000  0.000000  0.000000  0.000000  0.000000  0.000000  0.000000
                                 0.000000  0.000000  0.000000  0.000001  0.000001  0.000002  0.000003 -0.000000  0.000003 -0.000002
                                -0.000018 -0.000029  0.000026  0.000127 -0.000102  0.000016 -0.000039  0.000022 -0.000090  0.000093
                                -0.000048  0.000070 -0.000047  0.000005 -0.000005 -0.000002  0.000000 -0.000000 -0.000000 -0.000000
                                -0.000000 -0.000000 -0.000000 -0.000000 -0.000000 -0.000000 -0.000001 -0.000001 -0.000003 -0.000007
                                -0.000000 -0.000012 -0.000017 -0.000010  0.000012  0.000045  0.000049  0.000008 -0.000019  0.000035
                                -0.000048  0.000049 -0.000020  0.000007  0.000002 -0.000006  0.000003 -0.000004  0.000000  0.000022
                                 0.000006  0.000134  0.000037  0.000747  0.000205  0.003443  0.000944  0.013225  0.003625  0.040915
                                 0.011214  0.103572  0.028386  0.205304  0.056268  0.305721  0.083788  0.303078  0.083058  0.159529
                                 0.043708  0.038411  0.010516 -0.002967 -0.000798  0.006228  0.001687 -0.001670 -0.000440  0.001202
                                 0.000318 -0.000160 -0.000038  0.000238  0.000056 -0.000151 -0.000034  0.000015  0.000003 -0.000004
                                -0.000001  0.000000  0.000000 -0.000000 -0.000000 -0.000000 -0.000000 -0.000002 -0.000000 -0.000006
                                -0.000001 -0.000009 -0.000004 -0.000007 -0.000002 -0.000004 -0.000000  0.000001 -0.000001 -0.000004
                                 0.000000  0.000009 -0.000001 -0.000014  0.000001  0.000014 -0.000000 -0.000010 -0.000000  0.000005
                                 0.000000 -0.000001  0.000000 -0.000003  0.000008  0.000005  0.000004 -0.000008 -0.000006 -0.000002
                                 0.000003  0.000002  0.000000 -0.000000  0.000000 -0.000000  0.000000  0.000000  0.000001 -0.000000
                                -0.000001  0.000002 -0.000001 -0.000000  0.000004 -0.000000 -0.000000  0.000001 -0.000001 -0.000000
                                 0.000000  0.000000 -0.000001 -0.000000  0.000000  0.000001 -0.000000 -0.000000 -0.000000 -0.000001
                                -0.000000 -0.000000 -0.000000 -0.000001  0.000000

   8.1   2   -26.6250 -204.7943 -0.000001 -0.000003 -0.000009 -0.000022 -0.000045 -0.000088 -0.000163 -0.000292 -0.000514 -0.000900
                                -0.001579 -0.002793 -0.004995 -0.009023 -0.016218 -0.028005 -0.041784 -0.000421 -0.040147  0.021874
                                 0.196048  0.334864  0.051170 -0.765196 -0.019136 -0.738146  0.497953  0.939986 -0.087235  0.274018
                                -0.042855  0.044591 -0.024104  0.001823 -0.000765  0.000138 -0.000041 -0.000000 -0.000000 -0.000000
                                -0.000000 -0.000000 -0.000000 -0.000000 -0.000000 -0.000001 -0.000002 -0.000004 -0.000010 -0.000023
                                -0.000001 -0.000041 -0.000056 -0.000020  0.000084  0.000215  0.000129 -0.000101 -0.000364 -0.000069
                                -0.000089 -0.000139  0.000146 -0.000472  0.000954 -0.000815  0.000487 -0.000219  0.000013 -0.000000
                                -0.000000 -0.000000 -0.000000 -0.000000 -0.000000 -0.000000 -0.000001 -0.000001 -0.000003 -0.000003
                                -0.000008 -0.000012 -0.000021 -0.000015 -0.000044 -0.000036 -0.000062  0.000025 -0.000063  0.000002
                                 0.000025  0.000409  0.000161 -0.001457 -0.000088  0.002054  0.000271 -0.002214 -0.000008  0.001616
                                 0.000134 -0.000769 -0.000003  0.001506  0.000009 -0.001191 -0.000011  0.000173 -0.000000  0.000079
                                 0.000001 -0.000059  0.000000 -0.000000 -0.000000  0.000000  0.000000 -0.000000  0.000000  0.000001
                                 0.000000 -0.000007 -0.000000 -0.000004  0.000000 -0.000016  0.000000  0.000091  0.000003 -0.000144
                                -0.000000  0.000359  0.000002 -0.000592 -0.000005  0.000615  0.000005 -0.000481 -0.000005  0.000257
                                 0.000003 -0.000025  0.000002  0.000068 -0.000225  0.000155 -0.000077  0.000273 -0.000190  0.000014
                                -0.000084  0.000061  0.000000 -0.000000  0.000000 -0.000001  0.000006  0.000116  0.000180  0.000085
                                -0.000079 -0.000257 -0.000195 -0.000079  0.000173 -0.000001 -0.000005  0.000016 -0.000011  0.000178
                                 0.000003  0.000001 -0.000056 -0.000002  0.000000  0.000041 -0.000001 -0.000000 -0.000000 -0.000056
                                -0.000003 -0.000008 -0.000001 -0.000032  0.000005

   9.1   2   -20.6126  -75.2014 -0.000000 -0.000000 -0.000000 -0.000000 -0.000000 -0.000000 -0.000000 -0.000000 -0.000000 -0.000000
                                -0.000000 -0.000000  0.000000 -0.000000  0.000000 -0.000002  0.000015 -0.000033  0.000031 -0.000032
                                 0.000062 -0.000134  0.000411 -0.002207  0.005113 -0.004772  0.003544 -0.008156  0.030071 -0.032874
                                 0.022124 -0.039020  0.029530 -0.007632 -0.008782 -0.000240  0.000005 -0.000000 -0.000000 -0.000000
                                -0.000000 -0.000000 -0.000000 -0.000000 -0.000000  0.000000 -0.000000  0.000000 -0.000002  0.000008
                                -0.000031  0.000034 -0.000027  0.000041 -0.000076  0.000168 -0.000387  0.001208 -0.010474  0.018506
                                -0.025747  0.025038 -0.011370  0.009059 -0.012714  0.008976 -0.011173 -0.002961  0.000126  0.000000
                                 0.000000  0.000000  0.000000  0.000000  0.000000  0.000000  0.000000  0.000000  0.000000  0.000001
                                 0.000000  0.000001  0.000000  0.000003  0.000000  0.000002  0.000000  0.000006 -0.000000 -0.000012
                                 0.000001  0.000014 -0.000004  0.000047  0.000019 -0.000278 -0.000028  0.000844  0.000029 -0.001021
                                -0.000021  0.001561  0.000011 -0.004780 -0.000022  0.004281  0.000017 -0.001575 -0.000002 -0.004790
                                 0.000004 -0.000004  0.000003 -0.000000  0.000000  0.000000 -0.000000 -0.000000  0.000000  0.000002
                                -0.000000 -0.000005  0.000000  0.000011 -0.000000 -0.000032  0.000001  0.000096 -0.000003 -0.000635
                                 0.000018  0.001575 -0.000042 -0.002111  0.000061  0.001412 -0.000058 -0.000294  0.000041 -0.000172
                                -0.000023 -0.001511  0.000010  0.000072  0.000000 -0.000000 -0.000255 -0.000000  0.000000  0.000292
                                 0.000000  0.000000  0.000742  0.004246  0.020677  0.080051  0.229141  0.401865  0.318928 -0.016935
                                 0.049529  0.017880  0.037493  0.022781  0.005021  0.000003 -0.000420 -0.000620  0.001017 -0.009401
                                -0.000283 -0.000043 -0.001510 -0.000000  0.000133  0.000211  0.000116 -0.000012 -0.000119  0.002747
                                -0.000008  0.000124 -0.000008 -0.000379 -0.000004

  10.1   2   -20.2302 -187.5246 -0.000000 -0.000000 -0.000000 -0.000000 -0.000000 -0.000000 -0.000000 -0.000000 -0.000000 -0.000001
                                -0.000001 -0.000002 -0.000003 -0.000006 -0.000011 -0.000020 -0.000029 -0.000001 -0.000028  0.000015
                                 0.000141  0.000239  0.000037 -0.000655  0.000122 -0.000665  0.000714  0.000512 -0.000248  0.000245
                                -0.000055  0.000069 -0.000136  0.000073  0.000062  0.000003  0.000001  0.000001  0.000002  0.000006
                                 0.000016  0.000039  0.000093  0.000222  0.000532  0.001296  0.003203  0.007922  0.018994  0.041768
                                -0.000292  0.077251  0.100647  0.035810 -0.175854 -0.409427 -0.201636  0.354474  0.581102 -0.005372
                                 0.298541 -0.023711  0.045505 -0.001910  0.002632 -0.000754  0.000160 -0.000006  0.000007  0.000000
                                 0.000000  0.000000  0.000000  0.000000  0.000000  0.000001  0.000000  0.000004  0.000000  0.000014
                                 0.000000  0.000036  0.000001  0.000070  0.000002  0.000105  0.000003  0.000073  0.000001 -0.000082
                                -0.000004 -0.000267 -0.000007  0.000018 -0.000007 -0.000346  0.000005  0.000250 -0.000004 -0.000163
                                 0.000007  0.000039 -0.000001 -0.000120  0.000004  0.000049 -0.000003  0.000029  0.000000  0.000038
                                 0.000000  0.000002 -0.000000  0.000000  0.000000 -0.000000  0.000000 -0.000001  0.000001 -0.000003
                                 0.000005 -0.000009  0.000001 -0.000034  0.000011 -0.000066  0.000026 -0.000081  0.000153  0.000198
                                 0.000209 -0.000109 -0.000126  0.000174  0.000077 -0.000126 -0.000061  0.000076  0.000008 -0.000008
                                -0.000008  0.000017 -0.000000  0.000124  0.000001  0.000006 -0.000190 -0.000001 -0.000009  0.000080
                                 0.000000  0.000003  0.000000  0.000000  0.000000  0.000001  0.000003  0.000004 -0.000004  0.000007
                                 0.000007 -0.000123  0.000008  0.000001 -0.000041  0.000002  0.000006 -0.000007  0.000034  0.000081
                                -0.000003 -0.000001  0.000006  0.000001  0.000000 -0.000024 -0.000001 -0.000000 -0.000000 -0.000015
                                -0.000001  0.000006 -0.000000  0.000005  0.000002

  11.1   2   -12.0911 -166.5071  0.000000  0.000000  0.000000  0.000000  0.000000  0.000000  0.000000  0.000000  0.000000  0.000001
                                 0.000001  0.000002  0.000004  0.000007  0.000012  0.000020  0.000030  0.000001  0.000028 -0.000016
                                -0.000148 -0.000250 -0.000056  0.000783 -0.000206  0.000798 -0.000777 -0.001355  0.000192  0.000785
                                 0.000204  0.000026 -0.000076 -0.000041 -0.000108 -0.000032  0.000006 -0.000000 -0.000000 -0.000000
                                -0.000000 -0.000000 -0.000000 -0.000000 -0.000000 -0.000000 -0.000000 -0.000001 -0.000003 -0.000006
                                -0.000000 -0.000011 -0.000015 -0.000005  0.000023  0.000055  0.000033 -0.000026 -0.000112  0.000137
                                -0.000287  0.000068 -0.000075  0.000081  0.000073 -0.000038 -0.000052 -0.000071  0.000002  0.000004
                                -0.000011  0.000027 -0.000065  0.000150 -0.000367  0.000693 -0.001695  0.002683 -0.006562  0.008374
                                -0.020478  0.021593 -0.052801  0.043041 -0.105249  0.062423 -0.152641  0.046875 -0.114577 -0.041254
                                 0.101026 -0.137893  0.337322 -0.010992  0.026848 -0.144665  0.353764 -0.011035  0.027111 -0.074775
                                 0.181772 -0.017457  0.041628  0.002795 -0.006381 -0.002531  0.005869  0.000082 -0.000187 -0.000076
                                 0.000078 -0.000003 -0.000017  0.000000 -0.000000  0.000000 -0.000001  0.000000 -0.000004  0.000001
                                -0.000014  0.000005 -0.000037  0.000014 -0.000084  0.000030 -0.000136  0.000036 -0.000206 -0.000033
                                -0.000092  0.000113  0.000022 -0.000086 -0.000015  0.000131 -0.000009 -0.000076  0.000000  0.000022
                                -0.000009 -0.000023 -0.000001 -0.000193  0.000398 -0.000109  0.000193 -0.000386  0.000217 -0.000051
                                 0.000162 -0.000081  0.000000  0.000000  0.000000  0.000000  0.000000 -0.000001  0.000001 -0.000010
                                -0.000003  0.000115  0.000000  0.000001  0.000094 -0.000001 -0.000003  0.000007 -0.000021 -0.000068
                                 0.000002  0.000000 -0.000025 -0.000001 -0.000001  0.000019 -0.000001 -0.000000 -0.000000  0.000010
                                -0.000000 -0.000002  0.000001 -0.000005 -0.000004

  12.1   2   -12.0790 -166.4571  0.000000  0.000000  0.000000  0.000000  0.000000  0.000000  0.000000  0.000000  0.000000  0.000000
                                 0.000000  0.000000  0.000000  0.000001  0.000001  0.000002  0.000004 -0.000002  0.000005 -0.000003
                                -0.000009 -0.000029  0.000017 -0.000213  0.000399 -0.000360  0.000682  0.000208 -0.001546 -0.000022
                                 0.001005 -0.000599  0.000538 -0.000189  0.000101  0.000023 -0.000007  0.000000  0.000000  0.000000
                                 0.000000  0.000000  0.000000  0.000000  0.000000  0.000000  0.000001  0.000003  0.000006  0.000013
                                 0.000001  0.000024  0.000033  0.000012 -0.000048 -0.000119 -0.000083  0.000029  0.000238 -0.000346
                                 0.000814 -0.000269  0.000337 -0.000418  0.000172 -0.000088 -0.000101  0.000086 -0.000012 -0.000011
                                -0.000004 -0.000065 -0.000027 -0.000366 -0.000150 -0.001693 -0.000694 -0.006554 -0.002687 -0.020454
                                -0.008384 -0.052739 -0.021618 -0.105124 -0.043091 -0.152468 -0.062495 -0.114483 -0.046907  0.100759
                                 0.041361  0.336762  0.138092  0.026862  0.010989  0.353378  0.144868  0.027055  0.011126  0.182605
                                 0.074421  0.042537  0.016986 -0.006975 -0.002600  0.006308  0.002366 -0.000338 -0.000074  0.000096
                                 0.000037 -0.000006 -0.000007 -0.000000 -0.000000 -0.000000 -0.000000 -0.000001 -0.000001 -0.000002
                                -0.000006 -0.000011 -0.000015 -0.000032 -0.000034 -0.000072 -0.000055 -0.000090 -0.000083  0.000050
                                -0.000043 -0.000217  0.000019  0.000119 -0.000027 -0.000222  0.000014  0.000144 -0.000019 -0.000098
                                 0.000009  0.000028  0.000005  0.000149  0.000594  0.000531 -0.000018 -0.000664 -0.000532  0.000012
                                 0.000185  0.000175  0.000000 -0.000000  0.000000 -0.000000  0.000000  0.000007  0.000011 -0.000007
                                -0.000002 -0.000001 -0.000011 -0.000005 -0.000053 -0.000001 -0.000001  0.000002 -0.000001 -0.000026
                                 0.000001  0.000000  0.000022  0.000000  0.000001 -0.000004 -0.000003  0.000000 -0.000000  0.000020
                                -0.000009 -0.000000 -0.000003  0.000006  0.000015

  13.1   2    -4.2373  -90.7600  0.000001  0.000001  0.000004  0.000009  0.000019  0.000037  0.000069  0.000124  0.000218  0.000381
                                 0.000669  0.001183  0.002116  0.003823  0.006875  0.011884  0.017757  0.000183  0.017087 -0.009536
                                -0.085825 -0.149264 -0.023099  0.389923  0.016666  0.388148 -0.353785 -0.920026 -0.065459 -0.068370
                                 0.858434  0.049087  0.501037  0.034873 -0.010079  0.001902 -0.000545  0.000000  0.000000  0.000000
                                 0.000000  0.000000  0.000000  0.000000  0.000001  0.000002  0.000006  0.000013  0.000033  0.000067
                                 0.000017  0.000114  0.000189  0.000036 -0.000278 -0.000862 -0.000115  0.000071  0.008696 -0.013503
                                 0.023150 -0.025244  0.014356 -0.016919  0.017423 -0.013991  0.002659 -0.001886  0.000034  0.000000
                                 0.000000  0.000000  0.000000  0.000001  0.000001  0.000005  0.000003  0.000020  0.000011  0.000063
                                 0.000035  0.000159  0.000091  0.000328  0.000183  0.000449  0.000262  0.000349  0.000196 -0.000573
                                -0.000237 -0.000617 -0.000690 -0.003797 -0.000158  0.004283 -0.000475 -0.005533 -0.000549  0.003801
                                 0.000361  0.001673  0.001518  0.003315  0.000899  0.001356  0.000227 -0.001071 -0.000209  0.000548
                                -0.000017 -0.000558  0.000004  0.000000 -0.000000  0.000002 -0.000000  0.000007 -0.000001  0.000032
                                -0.000003  0.000072 -0.000007  0.000181 -0.000014  0.000177 -0.000018  0.000376 -0.000020 -0.001061
                                -0.000025  0.002880  0.000023 -0.004956 -0.000058  0.003823 -0.000012 -0.002626 -0.000139  0.001072
                                 0.000033  0.000130  0.000078 -0.000042  0.000122 -0.000062  0.000051 -0.000498  0.000318 -0.000202
                                 0.001261 -0.000890 -0.000001 -0.000005 -0.000025 -0.000103 -0.000283 -0.000112  0.000226  0.003235
                                -0.000152 -0.000044 -0.001110 -0.000388  0.002300 -0.000044 -0.000400 -0.001017 -0.002740 -0.000198
                                -0.000015 -0.000013 -0.000681  0.000294  0.000014  0.001400  0.000009  0.000012  0.000001  0.000019
                                -0.000097 -0.000265 -0.000015 -0.000451  0.000103

  14.1   2    -3.0272 -139.4636  0.000000  0.000000  0.000000  0.000000  0.000000  0.000000  0.000000  0.000000  0.000000  0.000000
                                 0.000000  0.000000  0.000000  0.000000  0.000000  0.000001  0.000002 -0.000002  0.000003 -0.000002
                                -0.000001 -0.000016  0.000028 -0.000138  0.000326 -0.000324  0.000312 -0.000173  0.001116 -0.001820
                                -0.000741  0.004744 -0.003669  0.002503 -0.000466  0.000020 -0.000002  0.000000  0.000000  0.000000
                                 0.000000  0.000000  0.000000  0.000000  0.000001  0.000002  0.000005  0.000014  0.000032  0.000073
                                -0.000004  0.000137  0.000170  0.000062 -0.000340 -0.000748 -0.000377  0.001075 -0.000541  0.004029
                                -0.005641  0.007594 -0.006346  0.002023 -0.007611  0.003058  0.001591 -0.000303  0.000041  0.000000
                                -0.000000  0.000000 -0.000000  0.000000 -0.000000  0.000001 -0.000001  0.000005 -0.000003  0.000015
                                -0.000009  0.000039 -0.000024  0.000076 -0.000048  0.000111 -0.000069  0.000072 -0.000052 -0.000097
                                 0.000060 -0.000330  0.000174  0.000128  0.000080 -0.000468  0.000074  0.000086  0.000061 -0.000053
                                -0.000011  0.000119  0.000031  0.002331 -0.000052 -0.001829 -0.000174  0.001437 -0.000175 -0.000098
                                -0.000035 -0.000151  0.000002 -0.000164  0.000141 -0.001531  0.001318 -0.008726  0.007510 -0.031805
                                 0.027369 -0.085291  0.073398 -0.168668  0.145156 -0.231300  0.199064 -0.235996  0.203025 -0.168578
                                 0.145065 -0.005210  0.004054 -0.072277  0.062761 -0.003844  0.002829 -0.014301  0.012434  0.001044
                                -0.000272 -0.000799  0.000539  0.000484  0.000007 -0.000440 -0.000494 -0.000004  0.000438  0.000518
                                -0.000012 -0.000380  0.000001  0.000003  0.000016  0.000064  0.000184  0.000208  0.000085 -0.001764
                                -0.000171 -0.001585  0.000476  0.000154 -0.000248  0.000041  0.000325  0.000721  0.001912  0.001657
                                -0.000011  0.000006  0.000081 -0.000141  0.000008 -0.000843  0.000078 -0.000009  0.000000 -0.000556
                                -0.000039  0.000189 -0.000021  0.000232 -0.000046

  15.1   2    -3.0175 -139.4660  0.000000  0.000000  0.000000  0.000000  0.000000  0.000000  0.000000  0.000000  0.000000  0.000000
                                 0.000000  0.000000  0.000000  0.000001  0.000001  0.000002  0.000002  0.000003  0.000000  0.000001
                                -0.000020 -0.000014 -0.000044  0.000284 -0.000461  0.000541 -0.000485  0.000234 -0.002120  0.002833
                                 0.000171 -0.003167  0.002706 -0.002499  0.000529 -0.000061  0.000008 -0.000000 -0.000000 -0.000000
                                -0.000000 -0.000000 -0.000000 -0.000001 -0.000002 -0.000004 -0.000010 -0.000025 -0.000061 -0.000136
                                 0.000006 -0.000254 -0.000320 -0.000114  0.000630  0.001441  0.000681 -0.001992 -0.000646 -0.004767
                                 0.006537 -0.008478  0.008950 -0.001636  0.008388 -0.004752 -0.001871  0.000259 -0.000053 -0.000000
                                -0.000000 -0.000000 -0.000000 -0.000000 -0.000000 -0.000001 -0.000001 -0.000004 -0.000004 -0.000013
                                -0.000011 -0.000034 -0.000029 -0.000067 -0.000059 -0.000099 -0.000085 -0.000061 -0.000063  0.000077
                                 0.000076  0.000339  0.000211 -0.000369  0.000122  0.000803  0.000055 -0.000481  0.000114  0.000339
                                -0.000064 -0.000262  0.000021 -0.001892 -0.000100  0.001590 -0.000155 -0.001412 -0.000183  0.000143
                                -0.000042  0.000125  0.000002  0.000141  0.000164  0.001318  0.001532  0.007510  0.008732  0.027370
                                 0.031824  0.073400  0.085350  0.145155  0.168793  0.199043  0.231468  0.203004  0.235968  0.144738
                                 0.168355  0.004640  0.004721  0.061807  0.072826  0.003786  0.003494  0.012297  0.014654 -0.000735
                                -0.000123  0.000772  0.000692 -0.000474  0.000003 -0.000526  0.000533 -0.000001  0.000525 -0.000504
                                -0.000012 -0.000453 -0.000000 -0.000003 -0.000014 -0.000056 -0.000156 -0.000095  0.000072  0.001586
                                 0.000075  0.001511 -0.000566 -0.000190  0.000261 -0.000040 -0.000297 -0.000597 -0.001765 -0.001582
                                 0.000018 -0.000004 -0.000068  0.000115  0.000012  0.000811  0.000108  0.000008  0.000002  0.000535
                                -0.000025 -0.000176 -0.000009 -0.000236 -0.000083

  16.1   2    -2.4907  -78.7317  0.000000  0.000000  0.000000  0.000000  0.000000  0.000000  0.000000  0.000001  0.000001  0.000002
                                 0.000004  0.000007  0.000012  0.000022  0.000039  0.000067  0.000100  0.000002  0.000095 -0.000053
                                -0.000491 -0.000844 -0.000152  0.002410 -0.000200  0.002530 -0.002379 -0.006232  0.003411 -0.005942
                                 0.017777 -0.017817  0.013951 -0.014780 -0.006782 -0.004597  0.000785 -0.000000 -0.000001 -0.000002
                                -0.000006 -0.000015 -0.000036 -0.000086 -0.000206 -0.000502 -0.001241 -0.003073 -0.007370 -0.016266
                                 0.000196 -0.030214 -0.039222 -0.013070  0.074838  0.176971  0.075812 -0.213633 -0.330273 -0.082799
                                -0.044673 -0.085254  0.416241  0.507996  0.069989  0.235974  0.017034 -0.007170 -0.000085 -0.000000
                                -0.000000 -0.000000 -0.000000 -0.000001 -0.000000 -0.000006 -0.000000 -0.000021 -0.000001 -0.000068
                                -0.000004 -0.000172 -0.000011 -0.000354 -0.000021 -0.000490 -0.000032 -0.000384 -0.000018  0.000605
                                 0.000023  0.000698  0.000126  0.004074 -0.000206 -0.004804  0.000410  0.007556 -0.000340 -0.006526
                                 0.000236  0.002798 -0.000325 -0.018119  0.000420  0.011434 -0.000677 -0.006950 -0.000194 -0.001864
                                 0.000035 -0.001037 -0.000003 -0.000002 -0.000000 -0.000019 -0.000001 -0.000113 -0.000007 -0.000405
                                -0.000026 -0.001111 -0.000060 -0.002127 -0.000125 -0.003037 -0.000133 -0.002696 -0.000167 -0.003841
                                -0.000457  0.003483  0.000173 -0.004971 -0.000468  0.003682 -0.000381  0.001467 -0.001266 -0.002920
                                -0.001073 -0.000714 -0.000439  0.000331 -0.000003 -0.000038 -0.000677 -0.000005  0.000093  0.000651
                                 0.000005 -0.000195 -0.000009 -0.000050 -0.000244 -0.000964 -0.003006 -0.006948 -0.008097  0.026627
                                 0.005998  0.020606 -0.000330  0.000101  0.011127 -0.000324 -0.003298 -0.010068 -0.019790 -0.014233
                                -0.000266 -0.000132 -0.002486  0.001555  0.000065  0.005982  0.000109  0.000067  0.000009  0.003277
                                 0.000137 -0.001047  0.000045 -0.001192  0.000067

  17.1   2    -1.2430  -32.9770 -0.000000 -0.000000 -0.000000 -0.000001 -0.000001 -0.000002 -0.000004 -0.000008 -0.000014 -0.000024
                                -0.000043 -0.000076 -0.000135 -0.000245 -0.000438 -0.000764 -0.001097 -0.000092 -0.001014  0.000532
                                 0.005648  0.009241  0.002529 -0.031180  0.012387 -0.038280  0.033904  0.041276  0.105172 -0.110737
                                 0.016304 -0.230245  0.132623  0.012366 -0.055428 -0.010311  0.000875  0.000000  0.000000  0.000000
                                 0.000001  0.000002  0.000005  0.000012  0.000028  0.000068  0.000167  0.000415  0.000993  0.002200
                                -0.000051  0.004102  0.005270  0.001786 -0.010210 -0.023900 -0.010490  0.030584  0.036542  0.029262
                                -0.021083  0.039298 -0.077624 -0.069368 -0.047113  0.017553 -0.040392 -0.026205 -0.001256  0.000000
                                -0.000000  0.000003 -0.000000  0.000014 -0.000000  0.000066 -0.000001  0.000258 -0.000005  0.000802
                                -0.000016  0.002087 -0.000043  0.004128 -0.000085  0.006043 -0.000123  0.004067 -0.000084 -0.005197
                                 0.000110 -0.017835  0.000361  0.008380 -0.000120 -0.031107  0.000551  0.014343 -0.000158 -0.011805
                                 0.000124  0.038208 -0.000842 -0.033773  0.000113  0.081440 -0.001257  0.032955 -0.000149 -0.017618
                                 0.000091 -0.003335  0.000113 -0.000003  0.000000 -0.000028  0.000000 -0.000163  0.000003 -0.000580
                                 0.000009 -0.001598  0.000024 -0.003051  0.000049 -0.004338  0.000063 -0.003703  0.000064 -0.004708
                                 0.000103  0.006571 -0.000119 -0.009140  0.000101  0.011079 -0.000213  0.003842  0.000177  0.003804
                                 0.000339 -0.007233  0.000021  0.001561 -0.000011  0.000159 -0.002486  0.000097 -0.000419  0.005261
                                -0.000118  0.000489 -0.000162 -0.000926 -0.004574 -0.018028 -0.057010 -0.142139 -0.177474  0.555062
                                 0.153375  0.421077  0.012982  0.008425  0.064062 -0.000636 -0.006014 -0.018013 -0.042583 -0.068727
                                -0.000358 -0.000224 -0.012313  0.001784  0.000428  0.012797  0.001304  0.000110  0.000152  0.016050
                                 0.002912 -0.001364  0.000038 -0.002906 -0.000588

  18.1   2    -0.5733  -36.5775  0.000000  0.000000  0.000000  0.000001  0.000001  0.000003  0.000005  0.000009  0.000017  0.000029
                                 0.000051  0.000091  0.000162  0.000293  0.000524  0.000916  0.001312  0.000116  0.001209 -0.000633
                                -0.006780 -0.011061 -0.003096  0.037811 -0.015728  0.046888 -0.041649 -0.048253 -0.136381  0.143069
                                -0.018627  0.273716 -0.139287 -0.032338  0.061143  0.032395 -0.005810 -0.000000 -0.000000 -0.000000
                                -0.000001 -0.000002 -0.000004 -0.000009 -0.000022 -0.000055 -0.000135 -0.000334 -0.000806 -0.001750
                                -0.000058 -0.003203 -0.004341 -0.001306  0.008021  0.019944  0.007081 -0.020514 -0.074293  0.057573
                                -0.108940  0.099393  0.003087  0.105605  0.007427 -0.012388  0.024663  0.031815  0.002779 -0.000002
                                 0.000000 -0.000009  0.000001 -0.000053  0.000006 -0.000243  0.000030 -0.000946  0.000116 -0.002942
                                 0.000363 -0.007648  0.000941 -0.015157  0.001872 -0.022120  0.002714 -0.014946  0.001866  0.019637
                                -0.002527  0.064435 -0.007474 -0.022770 -0.000040  0.102561 -0.008168 -0.039511 -0.000388  0.030826
                                 0.000490 -0.137086  0.014795  0.060908  0.000566 -0.239573  0.022841 -0.158194  0.019229 -0.038313
                                 0.008638  0.001298  0.000954  0.000003 -0.000000  0.000027 -0.000000  0.000170 -0.000001  0.000575
                                -0.000004  0.001668 -0.000009  0.002986 -0.000019  0.004648 -0.000023  0.002903 -0.000025  0.008091
                                -0.000067 -0.013744  0.000083  0.014124 -0.000030 -0.013609  0.000126 -0.008315 -0.000387 -0.005524
                                -0.000341  0.006650 -0.000367 -0.004152  0.000363 -0.000185  0.007310 -0.000662  0.000261 -0.010649
                                 0.000792 -0.000655 -0.000031 -0.000175 -0.000868 -0.003419 -0.010907 -0.028298 -0.036701  0.120560
                                 0.036694  0.078704  0.004401  0.002232 -0.051682  0.006809  0.073596  0.242531  0.391208  0.306802
                                 0.006865  0.003047  0.040865 -0.007019 -0.000008 -0.024763 -0.000080 -0.000289  0.000025 -0.021068
                                 0.000210  0.002691 -0.001271  0.003082 -0.001078

  19.1   2    -0.4429  -55.2518 -0.000000 -0.000000 -0.000000 -0.000000 -0.000001 -0.000001 -0.000002 -0.000003 -0.000006 -0.000010
                                -0.000018 -0.000031 -0.000056 -0.000101 -0.000182 -0.000315 -0.000464 -0.000018 -0.000439  0.000240
                                 0.002306  0.003920  0.000796 -0.011608  0.001855 -0.012821  0.011749  0.024089  0.020390 -0.019353
                                -0.020980 -0.041406  0.004973  0.028167  0.017169 -0.000485  0.000643  0.000000  0.000000  0.000000
                                 0.000000  0.000000  0.000001  0.000001  0.000003  0.000007  0.000018  0.000046  0.000109  0.000241
                                -0.000001  0.000447  0.000584  0.000190 -0.001118 -0.002667 -0.001094  0.003239  0.005884  0.000124
                                 0.002021  0.000329 -0.007931 -0.008083 -0.008652  0.005882 -0.002239 -0.003629 -0.000433 -0.000000
                                 0.000003 -0.000001  0.000020 -0.000006  0.000111 -0.000027  0.000511 -0.000104  0.001982 -0.000326
                                 0.006186 -0.000843  0.016029 -0.001684  0.031905 -0.002427  0.046247 -0.001695  0.031785  0.002339
                                -0.043103  0.006342 -0.127218  0.002154 -0.001434  0.004047 -0.138108  0.004035 -0.007280 -0.003295
                                 0.009510 -0.011661  0.249290 -0.005401  0.005792 -0.017012  0.388583 -0.018398  0.348100 -0.014546
                                 0.184453 -0.002950  0.033269 -0.000000  0.000001 -0.000004  0.000006 -0.000026  0.000031 -0.000092
                                 0.000118 -0.000258  0.000306 -0.000483  0.000633 -0.000700  0.000783 -0.000549  0.000913 -0.000740
                                -0.000360  0.001070  0.001534 -0.000939 -0.003121  0.001497  0.001951  0.001390 -0.005082  0.001918
                                -0.001767 -0.000389 -0.009308  0.000846  0.002019  0.001920 -0.001166 -0.002789 -0.004113  0.001691
                                 0.004292  0.005330  0.000001  0.000006  0.000032  0.000125  0.000409  0.001193  0.001627 -0.004984
                                -0.001733  0.004525 -0.000428 -0.000176  0.008859 -0.000703 -0.007497 -0.024490 -0.040307 -0.036597
                                -0.000658 -0.000302 -0.006556  0.000251  0.000874  0.001321  0.003819  0.000010  0.000045  0.001491
                                 0.003262 -0.000051 -0.000406  0.000037 -0.002031

  20.1   2    -0.3366  -40.6659  0.000000  0.000000  0.000001  0.000002  0.000005  0.000009  0.000017  0.000030  0.000052  0.000092
                                 0.000161  0.000285  0.000509  0.000920  0.001656  0.002860  0.004291  0.000017  0.004144 -0.002332
                                -0.020731 -0.036349 -0.005312  0.095211  0.008135  0.093370 -0.089042 -0.268329  0.006633 -0.043684
                                 0.364787 -0.024470  0.330891 -0.254196 -0.519851 -0.155520  0.000664 -0.000000 -0.000000 -0.000000
                                -0.000000 -0.000001 -0.000001 -0.000003 -0.000007 -0.000017 -0.000041 -0.000103 -0.000246 -0.000545
                                 0.000012 -0.001016 -0.001308 -0.000441  0.002537  0.005950  0.002597 -0.007688 -0.008640 -0.009064
                                 0.011446 -0.019936  0.029333  0.007406  0.024086 -0.006167 -0.014417  0.017781  0.008386  0.000002
                                 0.000000  0.000012  0.000002  0.000065  0.000011  0.000298  0.000049  0.001159  0.000190  0.003615
                                 0.000594  0.009369  0.001540  0.018642  0.003065  0.027036  0.004445  0.018563  0.003050 -0.025099
                                -0.004133 -0.074635 -0.012314  0.000887  0.000272 -0.083520 -0.013883 -0.000378 -0.000125  0.001630
                                 0.000548  0.149107  0.024651 -0.011059  0.000337  0.244823  0.037228  0.199916  0.030639  0.116620
                                 0.017477  0.036203  0.004792  0.000002  0.000000  0.000016  0.000000  0.000090  0.000001  0.000327
                                 0.000005  0.000878  0.000014  0.001736  0.000028  0.002323  0.000036  0.002294  0.000039  0.000349
                                -0.000035  0.001587  0.000092 -0.004028 -0.000155 -0.000449  0.000098 -0.004327 -0.000445 -0.011042
                                -0.000262 -0.011162  0.000093  0.000486 -0.000730  0.001086 -0.001209  0.000525 -0.001229  0.002345
                                -0.000620  0.002005 -0.000005 -0.000030 -0.000149 -0.000577 -0.001934 -0.006290 -0.008608  0.021139
                                 0.007323  0.032613  0.003238  0.001344  0.015140  0.001924  0.020807  0.069098  0.108609  0.092953
                                 0.001923  0.000855  0.019821  0.001251 -0.000047  0.004335 -0.000159  0.000051  0.000003  0.001010
                                 0.000607 -0.001198 -0.000294 -0.001256 -0.000906

  21.1   0    -0.0088  -24.8024 -0.000000 -0.000000 -0.000000 -0.000000 -0.000001 -0.000002 -0.000003 -0.000006 -0.000010 -0.000018
                                -0.000031 -0.000056 -0.000099 -0.000181 -0.000320 -0.000574 -0.000737 -0.000225 -0.000596  0.000241
                                 0.004452  0.006162  0.003841 -0.033796  0.034429 -0.052218  0.043594 -0.013608  0.249490 -0.272162
                                 0.143242 -0.419204  0.288040 -0.163887  0.162736 -0.255231  0.682097 -0.000000 -0.000000 -0.000000
                                -0.000001 -0.000002 -0.000006 -0.000013 -0.000032 -0.000079 -0.000196 -0.000481 -0.001170 -0.002498
                                -0.000195 -0.004505 -0.006363 -0.001745  0.011319  0.029403  0.008833 -0.025080 -0.151212  0.164564
                                -0.287612  0.286811 -0.078933  0.256239 -0.170765  0.168169 -0.248527 -0.171962 -0.458558  0.000001
                                 0.000000  0.000008  0.000000  0.000043  0.000002  0.000197  0.000011  0.000764  0.000043  0.002385
                                 0.000135  0.006173  0.000348  0.012303  0.000698  0.017797  0.000997  0.012316  0.000715 -0.016740
                                -0.001003 -0.048052 -0.002381 -0.005603 -0.002063 -0.045477  0.000088 -0.010954 -0.003435  0.009104
                                 0.002626  0.092894  0.003678  0.003865  0.003415  0.153175  0.005280  0.123674  0.009506  0.062629
                                 0.006817  0.106548  0.008335  0.000001 -0.000000  0.000014 -0.000000  0.000075 -0.000004  0.000281
                                -0.000009  0.000733 -0.000042  0.001500 -0.000043  0.001888 -0.000156  0.002163  0.000102 -0.001045
                                -0.001350  0.004921  0.003397 -0.009655 -0.005023  0.009392  0.005836 -0.011845 -0.005253 -0.008472
                                 0.001773 -0.025962 -0.005399 -0.002637  0.000540  0.001185  0.004793 -0.000260 -0.001989 -0.005749
                                 0.001053  0.002834  0.000010  0.000060  0.000295  0.001170  0.003655  0.008330  0.009875 -0.052795
                                -0.008302 -0.007262  0.001097  0.000066  0.237146  0.002127  0.022571  0.073882  0.125006  0.023669
                                 0.001910  0.000894  0.018736  0.001241  0.000419  0.007632  0.000891  0.000092  0.000007  0.040442
                                 0.001391 -0.000668 -0.000706 -0.005954 -0.001281

  22.1   0     0.0407  -12.5706  0.000000  0.000000  0.000000  0.000001  0.000001  0.000002  0.000004  0.000008  0.000014  0.000024
                                 0.000042  0.000073  0.000133  0.000235  0.000438  0.000706  0.001359 -0.000532  0.001592 -0.001123
                                -0.004401 -0.011675  0.005380 -0.012130  0.088764 -0.057622  0.040000 -0.222690  0.589599 -0.667106
                                 0.570684 -0.957897  0.862322 -0.352943  0.041427 -3.894409  2.653496  0.000000  0.000000  0.000000
                                 0.000001  0.000001  0.000003  0.000008  0.000019  0.000044  0.000113  0.000267  0.000688  0.001262
                                 0.000677  0.001925  0.004081  0.000247 -0.004994 -0.019771  0.002574 -0.010950  0.329901 -0.548727
                                 0.891938 -0.954326  0.481089 -0.600359  0.765421 -0.549080  0.246766 -0.916791  0.094202 -0.000000
                                -0.000000 -0.000002 -0.000000 -0.000013 -0.000001 -0.000060 -0.000002 -0.000240 -0.000009 -0.000721
                                -0.000030 -0.001947 -0.000075 -0.003684 -0.000154 -0.005765 -0.000215 -0.003122 -0.000166  0.003147
                                 0.000245  0.025964  0.000352 -0.057905  0.001331  0.104817 -0.001365 -0.093828  0.002188  0.069897
                                -0.001647 -0.072146  0.000101  0.088544 -0.002268 -0.114199  0.000236 -0.048980 -0.003586 -0.112943
                                -0.002179 -0.371742 -0.003446 -0.000001  0.000000 -0.000000  0.000000 -0.000043  0.000002 -0.000024
                                 0.000005 -0.000430  0.000015  0.000022  0.000024 -0.001905  0.000052  0.003174 -0.000002 -0.024298
                                 0.000337  0.062670 -0.000835 -0.104822  0.001094  0.118877 -0.001381 -0.104199  0.001341  0.067725
                                 0.000334 -0.056554  0.002914 -0.001886  0.000009 -0.000519  0.005227 -0.000514  0.001088 -0.004382
                                 0.000426 -0.001449 -0.000001 -0.000007 -0.000031 -0.000146 -0.000291  0.001639  0.003185 -0.009106
                                -0.000556  0.063821 -0.004702 -0.001730  1.859754 -0.000885 -0.010618 -0.037683 -0.048624 -0.200379
                                -0.001325 -0.000503 -0.761599 -0.001613 -0.000095  0.007164  0.000016 -0.000006 -0.000000  0.033593
                                -0.001613  0.000184  0.000341 -0.009631  0.000601

                                   1 2px     1 2px     1 2px     1 2px     1 2px     1 2px     1 2px     1 2px     1 2px     1 2px  
                                   1 2px     1 2px     1 2px     1 2px     1 2px     1 2px     1 2px     1 2px     1 2px     1 2px  
                                   1 2px     1 2px     1 2px     1 2px     1 2px     1 2px     1 2px     1 2px     1 2px     1 2px  
                                   1 2px     1 2px     1 3d1+    1 3d1+    1 3d1+    1 3d1+    1 3d1+    1 3d1+    1 3d1+    1 3d1+ 
                                   1 3d1+    1 3d1+    1 3d1+    1 3d1+    1 3d1+    1 3d1+    1 3d1+    1 3d1+    1 3d1+    1 3d1+ 
                                   1 3d1+    1 3d1+    1 3d1+    1 3d1+    1 4f1+    1 4f3+    1 4f1+    1 4f3+    1 4f1+    1 4f3+ 
                                   1 4f1+    1 4f3+    1 4f1+    1 4f3+    1 4f1+    1 4f3+    1 4f1+    1 4f3+    1 4f1+    1 4f3+ 
                                   1 4f1+    1 4f3+    1 4f1+    1 4f3+    1 4f1+    1 4f3+    1 4f1+    1 4f3+    1 4f1+    1 4f3+ 
                                   1 4f1+    1 4f3+    1 4f1+    1 4f3+    1 5g1+    1 5g3+    1 5g1+    1 5g3+    1 5g1+    1 5g3+ 
                                   2 2px     2 2px     2 2px     2 2px     2 2px     2 2px     2 2px     2 2px     2 3d1+    2 3d1+ 
                                   2 3d1+    2 3d1+    2 4f1+    2 4f3+    2 4f1+    2 4f3+ 

   1.2   2  -433.5352-1209.9770  0.000003  0.000008  0.000024  0.000062  0.000153  0.000367  0.000873  0.002085  0.005048  0.012348
                                 0.030033  0.070112  0.147676 -0.000313  0.257464  0.326976  0.249425  0.089028  0.009867  0.000453
                                -0.000267  0.000435 -0.000601  0.000417 -0.000282  0.000076 -0.000019  0.000014 -0.000004  0.000001
                                -0.000000  0.000000 -0.000000 -0.000000 -0.000000 -0.000000 -0.000000 -0.000001 -0.000001 -0.000001
                                -0.000000 -0.000000 -0.000000 -0.000000  0.000001 -0.000001  0.000001 -0.000000  0.000000 -0.000000
                                -0.000000 -0.000000 -0.000000 -0.000000  0.000000  0.000000 -0.000000  0.000001 -0.000002  0.000003
                                -0.000000  0.000002 -0.000000 -0.000001  0.000000 -0.000001 -0.000000 -0.000001  0.000000  0.000000
                                -0.000000  0.000000  0.000000  0.000000 -0.000000  0.000000  0.000000  0.000000 -0.000000  0.000000
                                 0.000000  0.000000  0.000000  0.000000  0.000000  0.000000 -0.000000 -0.000000  0.000000 -0.000000
                                 0.000000  0.000000  0.000000  0.000000  0.000000  0.000000 -0.000000  0.000000  0.000000  0.000000
                                 0.000000  0.000000 -0.000000  0.000000 -0.000000 -0.000000

   2.2   2   -99.6949 -433.9771 -0.000001 -0.000004 -0.000012 -0.000032 -0.000079 -0.000189 -0.000450 -0.001078 -0.002625 -0.006472
                                -0.015961 -0.038049 -0.083084  0.000803 -0.151974 -0.196304 -0.091910  0.227204  0.497334  0.337484
                                 0.075576  0.016769 -0.015271  0.013957 -0.009947  0.002935 -0.001011  0.000701 -0.000259  0.000022
                                -0.000007  0.000002 -0.000000 -0.000000 -0.000000 -0.000000 -0.000001 -0.000003 -0.000008 -0.000016
                                -0.000025 -0.000041 -0.000023  0.000001 -0.000010  0.000007 -0.000002 -0.000002  0.000001 -0.000003
                                 0.000003 -0.000000  0.000001 -0.000000 -0.000000 -0.000000  0.000000 -0.000000  0.000000  0.000001
                                -0.000003  0.000003 -0.000011  0.000000 -0.000007  0.000014 -0.000001  0.000012 -0.000002 -0.000003
                                 0.000002 -0.000003 -0.000003 -0.000004  0.000002 -0.000000 -0.000001 -0.000003  0.000001 -0.000000
                                -0.000000 -0.000001  0.000001 -0.000000  0.000002  0.000000 -0.000002 -0.000000  0.000001  0.000000
                                 0.000000  0.000000 -0.000000  0.000000 -0.000001 -0.000000 -0.000000  0.000000 -0.000000 -0.000000
                                -0.000000  0.000001 -0.000000 -0.000000  0.000000  0.000000

   3.2   2   -77.8727 -399.0648 -0.000000 -0.000000 -0.000000 -0.000000 -0.000000 -0.000000 -0.000000 -0.000000 -0.000000 -0.000001
                                -0.000002 -0.000004 -0.000009  0.000001 -0.000017 -0.000021 -0.000010  0.000034  0.000054  0.000021
                                 0.000017 -0.000031  0.000041 -0.000040  0.000028 -0.000011  0.000003 -0.000003  0.000002  0.000000
                                 0.000000  0.000000  0.000023  0.000139  0.000775  0.003570  0.013713  0.042423  0.107388  0.212870
                                 0.316986  0.314255  0.165423  0.039820 -0.003023  0.006388 -0.001667  0.001203 -0.000149  0.000211
                                -0.000133  0.000010 -0.000005  0.000001 -0.000000  0.000000 -0.000000  0.000000 -0.000002  0.000000
                                -0.000005  0.000000 -0.000009  0.000000 -0.000009 -0.000000 -0.000005 -0.000000  0.000000  0.000000
                                -0.000000  0.000000  0.000001  0.000000 -0.000001 -0.000000  0.000001  0.000000 -0.000000  0.000000
                                 0.000000  0.000000 -0.000000  0.000000 -0.000003  0.000003  0.000004 -0.000004 -0.000002  0.000002
                                 0.000000  0.000000  0.000001  0.000001  0.000002  0.000000  0.000000 -0.000000  0.000000 -0.000000
                                -0.000000 -0.000000  0.000000  0.000000  0.000000 -0.000000

   4.2   2   -20.2362 -187.4967  0.000001  0.000002  0.000006  0.000016  0.000039  0.000093  0.000222  0.000532  0.001296  0.003203
                                 0.007921  0.018992  0.041761 -0.000288  0.077235  0.100637  0.035802 -0.175812 -0.409343 -0.201667
                                 0.354335  0.580037 -0.003817  0.297771 -0.022838  0.044919 -0.001888  0.002606 -0.000767  0.000096
                                -0.000025  0.000006  0.000000  0.000000  0.000000  0.000001  0.000003  0.000010  0.000024  0.000049
                                 0.000070  0.000064 -0.000027 -0.000125 -0.000043 -0.000210 -0.000091 -0.000037 -0.000012  0.000035
                                -0.000035  0.000009  0.000015  0.000000 -0.000000  0.000000 -0.000000  0.000000 -0.000001  0.000001
                                -0.000004  0.000005 -0.000009  0.000023 -0.000037  0.000087 -0.000073  0.000155 -0.000103  0.000040
                                 0.000120 -0.000042 -0.000045  0.000071  0.000082 -0.000018 -0.000035  0.000038  0.000009  0.000002
                                 0.000006  0.000007  0.000007  0.000001  0.000098  0.000007 -0.000138 -0.000009  0.000049  0.000002
                                -0.000000 -0.000001  0.000001 -0.000003 -0.000023  0.000000  0.000000 -0.000001 -0.000001  0.000008
                                 0.000000  0.000014 -0.000001  0.000000 -0.000008 -0.000001

   5.2   2   -12.0844 -166.4339  0.000000  0.000000  0.000000  0.000000  0.000000  0.000000  0.000000  0.000000  0.000001  0.000002
                                 0.000005  0.000011  0.000025 -0.000001  0.000047  0.000060  0.000021 -0.000113 -0.000264 -0.000108
                                 0.000291  0.000643 -0.000412  0.000315 -0.000272  0.000148 -0.000116  0.000095 -0.000079 -0.000014
                                -0.000010 -0.000005 -0.000011 -0.000071 -0.000396 -0.001829 -0.007081 -0.022098 -0.056979 -0.113577
                                -0.164728 -0.123695  0.108823  0.363894  0.028604  0.382405  0.028691  0.197792  0.045803 -0.007059
                                 0.006493 -0.000224  0.000118 -0.000024 -0.000000  0.000000 -0.000000  0.000000 -0.000003  0.000000
                                -0.000010  0.000000 -0.000031 -0.000000 -0.000072 -0.000000 -0.000130 -0.000001 -0.000146  0.000003
                                -0.000006  0.000005 -0.000091 -0.000004 -0.000016  0.000000 -0.000058 -0.000003  0.000007 -0.000001
[...]
                                -0.003982 -0.000086  0.005446  0.000251 -0.006598 -0.000793  0.010478  0.000575  0.002160 -0.000604
                                 0.017112  0.001200 -0.004993  0.000240  0.002493 -0.001101 -0.004502  0.001190  0.005996 -0.002551
                                 0.008086  0.088125  0.296674  0.468647  0.352799  0.008370  0.003672  0.032083 -0.001952 -0.010069
                                -0.000104 -0.023035 -0.002205 -0.004024  0.002679 -0.003220

  11.3   0     0.0467  -15.8697  0.000000  0.000000  0.000000  0.000001  0.000002  0.000004  0.000009  0.000022  0.000053  0.000137
                                 0.000318  0.000840  0.001439  0.001105  0.001993  0.005149 -0.000081 -0.005283 -0.025348  0.006905
                                -0.025626  0.514478 -0.876417  1.405204 -1.495008  0.751942 -0.845213  1.031602 -0.702372  0.392931
                                -0.288293  1.258036  0.000000  0.000002  0.000009  0.000040  0.000159  0.000485  0.001291  0.002487
                                 0.003787  0.002234 -0.002606 -0.014814  0.024851 -0.049048  0.040300 -0.029770  0.039579 -0.044845
                                 0.073252  0.014157  0.034579 -0.011294  0.000001  0.000000  0.000006  0.000001  0.000049  0.000005
                                 0.000130  0.000013  0.000482  0.000049  0.000639  0.000064  0.001548  0.000170 -0.000283 -0.000050
                                 0.008662  0.001180 -0.021219 -0.002942  0.033556  0.004352 -0.038608 -0.005108  0.029912  0.004704
                                -0.027964 -0.001968  0.018829  0.005011 -0.000428 -0.000047  0.000812  0.000355 -0.000701  0.000032
                                -0.001233 -0.012128 -0.037516 -0.066993 -0.047320 -0.000658 -0.000407 -0.234716 -0.000564 -0.003981
                                -0.000040  0.011349  0.000853  0.000589 -0.000603 -0.000079

  12.3   0     0.1742  -19.3230 -0.000000 -0.000000 -0.000000 -0.000001 -0.000003 -0.000007 -0.000016 -0.000037 -0.000096 -0.000219
                                -0.000606 -0.001220 -0.003946  0.003429 -0.009386 -0.004461 -0.006849  0.022588  0.014799  0.059240
                                -0.191619  1.378161 -2.699968  4.239359 -4.581077  2.555170 -2.225385  3.242075 -2.037195  0.898179
                                -2.177994  1.474352 -0.000000 -0.000002 -0.000015 -0.000059 -0.000269 -0.000712 -0.002215 -0.003499
                                -0.007098 -0.000823 -0.003894  0.068220 -0.279169  0.443696 -0.458326  0.343992 -0.250555  0.520676
                                -0.520840  0.124632 -0.272803  0.522000 -0.000001 -0.000000 -0.000005 -0.000000 -0.000029 -0.000005
                                -0.000106 -0.000009 -0.000281 -0.000054 -0.000565 -0.000041 -0.000742 -0.000218 -0.000747  0.000204
                                -0.000146 -0.002210  0.000250  0.005610 -0.000835 -0.008379  0.005144  0.009618 -0.005755 -0.008994
                                 0.013042  0.003414 -0.045209 -0.009710 -0.000888  0.000185  0.002063 -0.000815 -0.002218  0.000166
                                 0.000430  0.006768  0.028739  0.031531  0.125313  0.001362  0.000419 -0.103606  0.001293  0.016589
                                 0.000140 -0.041254 -0.000701 -0.000386 -0.000695  0.000012

                                   1 3d2-    1 3d2-    1 3d2-    1 3d2-    1 3d2-    1 3d2-    1 3d2-    1 3d2-    1 3d2-    1 3d2- 
                                   1 3d2-    1 3d2-    1 3d2-    1 3d2-    1 3d2-    1 3d2-    1 3d2-    1 3d2-    1 3d2-    1 3d2- 
                                   1 3d2-    1 3d2-    1 4f2-    1 4f2-    1 4f2-    1 4f2-    1 4f2-    1 4f2-    1 4f2-    1 4f2- 
                                   1 4f2-    1 4f2-    1 4f2-    1 4f2-    1 4f2-    1 4f2-    1 4f2-    1 5g2-    1 5g4-    1 5g2- 
                                   1 5g4-    1 5g2-    1 5g4-    2 3d2-    2 3d2-    2 3d2-    2 3d2-    2 4f2-    2 4f2- 

   1.4   2   -77.8732 -399.0613  0.000023  0.000139  0.000775  0.003570  0.013712  0.042422  0.107385  0.212864  0.316978  0.314271
                                 0.165429  0.039795 -0.002979  0.006344 -0.001637  0.001191 -0.000144  0.000206 -0.000130  0.000009
                                -0.000004  0.000001 -0.000000 -0.000000 -0.000002 -0.000004 -0.000014 -0.000009 -0.000002 -0.000003
                                 0.000002 -0.000004  0.000003 -0.000002  0.000001 -0.000000  0.000000 -0.000006  0.000005  0.000007
                                -0.000007 -0.000003  0.000002  0.000000  0.000000  0.000000  0.000000  0.000000 -0.000000

   2.4   2   -12.0824 -166.4172 -0.000011 -0.000071 -0.000396 -0.001829 -0.007081 -0.022099 -0.056981 -0.113582 -0.164731 -0.123705
                                 0.108812  0.363859  0.028556  0.382542  0.029020  0.197595  0.045446 -0.007022  0.006434 -0.000164
                                 0.000114 -0.000015 -0.000000 -0.000001 -0.000003 -0.000014 -0.000037 -0.000084 -0.000139 -0.000218
                                -0.000103  0.000024 -0.000020 -0.000010 -0.000000 -0.000011 -0.000004 -0.000163  0.000596  0.000314
                                -0.000612 -0.000085  0.000221 -0.000001  0.000000  0.000000  0.000003  0.000002 -0.000008

   3.4   2    -3.0241 -139.4948 -0.000000 -0.000000 -0.000000 -0.000001 -0.000005 -0.000016 -0.000041 -0.000081 -0.000117 -0.000086
                                 0.000107  0.000296  0.000156  0.000094  0.000145 -0.000091 -0.000015 -0.000127 -0.000262 -0.000276
                                -0.000065  0.000001  0.000217  0.002021  0.011518  0.041980  0.112582  0.222633  0.305298  0.311415
                                 0.222536  0.006050  0.096146  0.004020  0.018901 -0.000550  0.000792 -0.000687  0.000007  0.000682
                                -0.000003 -0.000583 -0.000017  0.000012  0.000129  0.000001 -0.000041 -0.000018 -0.000097

   4.4   +    -0.4927  -56.1451  0.000003  0.000020  0.000113  0.000521  0.002023  0.006313  0.016360  0.032563  0.047198  0.032456
                                -0.043884 -0.130017 -0.000106 -0.142669 -0.004995  0.006340  0.254222  0.005426  0.401773  0.351937
                                 0.170380  0.024788  0.000001  0.000006  0.000035  0.000131  0.000342  0.000695  0.000883  0.000971
                                -0.000173  0.001313 -0.002372  0.001180 -0.005103 -0.003659 -0.009637  0.002307  0.002304 -0.004520
                                -0.003143  0.005827  0.005109  0.000853  0.003616  0.000043  0.003252 -0.000501 -0.002058

   5.4   0     0.1971  -16.2739 -0.000001 -0.000003 -0.000026 -0.000088 -0.000466 -0.001047 -0.003892 -0.004840 -0.013487  0.003665
                                -0.021047  0.192323 -0.890257  1.386264 -1.459672  1.095460 -0.741425  1.630453 -1.543312  0.445355
                                -0.683241  1.334148 -0.000000  0.000004 -0.000008  0.000061 -0.000089  0.000424 -0.000761  0.002691
                                -0.016098  0.041316 -0.067435  0.073203 -0.063100  0.046283 -0.032311 -0.000334 -0.000218  0.000621
                                 0.000064 -0.000994 -0.000537 -0.000006  0.011001  0.000088 -0.012538  0.001004 -0.003530

   6.4   0     0.5566  -22.1423  0.000000  0.000001  0.000002  0.000016  0.000034  0.000197  0.000252  0.001142  0.000226  0.003007
                                -0.007684  0.033774 -0.198252  0.299465 -0.327484  0.247231 -0.150740  0.381350 -0.334221  0.139484
                                -0.186773  0.040577  0.000001 -0.000164 -0.000181 -0.003075 -0.001607 -0.019003  0.009922 -0.081603
                                 0.430774 -1.123079  1.866887 -2.053614  1.891612 -1.405950  1.303229 -0.003027 -0.000232  0.006940
                                 0.000560 -0.005451 -0.000417  0.016300 -0.014104  0.000168  0.239868 -0.005071  0.003595

 HOMO     20.1    -0.336578 =      -9.1588eV
 LUMO     21.1    -0.008842 =      -0.2406eV
 LUMO-HOMO         0.327737 =       8.9182eV


 **********************************************************************************************************************************
 DATASETS  * FILE   NREC   LENGTH (MB)   RECORD NAMES
              1      22       23.93       500      610      700      900      950      970     1000      129      960     1700   
                                          VAR    BASINP    GEOM    SYMINP    ZMAT    AOBASIS   BASIS     P2S    ABASIS    OPER   
                                         1101     1401     1411     1412     1650     1100     1400     1410     1200     1210   
                                          SR      EKINR    POTR     PVPR    MOLCAS      S      EKIN      POT      H0       H01  
                                         1080     1600   
                                         AOSYM     SMH  

              2       5        9.37       700     1000      520     2100     2101   
                                         GEOM     BASIS   MCVARS     RHF      RHF  

 PROGRAMS   *        TOTAL       RHF       RHF       INT
 CPU TIMES  *       189.98      1.15     13.76    174.90
 REAL TIME  *       211.82 SEC
 DISK USED  *        10.74 GB      
 SF USED    *         0.24 MB      
 GA USED    *         0.00 MB       (max)       0.00 MB       (current)
 **********************************************************************************************************************************
 SETTING SCF(1)         =    -17901.81955731  AU                              
 SETTING _CC_NORM_MAX   =         2.00000000                                  


 PROGRAM * CCSD (Restricted open-shell coupled cluster)     Authors: C. Hampel, H.-J. Werner, 1991, M. Deegan, P.J. Knowles, 1992


 Convergence thresholds:  THRVAR = 1.00D-08  THRDEN = 1.70D-06

 CCSD(T)     terms to be evaluated (factor= 1.000)


 Number of closed-shell orbitals:  41 (  20   9   9   3 )
 Number of active  orbitals:        3 (   0   1   1   1 )
 Number of external orbitals:     402 ( 165  96  96  45 )

 For full I/O caching in triples, increase memory by 261.06 Mwords to 1285.34 Mwords.

 Number of N-1 electron functions:              85
 Number of N-2 electron functions:            3570
 Number of singly external CSFs:             10608
 Number of doubly external CSFs:         112813020
 Total number of CSFs:                   112823628

 Molecular orbitals read from record     2101.2  Type=RHF/CANONICAL (state 1.1)

 Integral transformation finished. Total CPU:  57.10 sec, npass=  1  Memory used: 140.45 MW

 Starting RMP2 calculation

 Wavefunction is spin-projected

 ITER.      SQ.NORM     CORR.ENERGY   TOTAL ENERGY   ENERGY CHANGE        DEN1      VAR(S)    VAR(P)  DIIS     TIME
   1      1.26031051    -3.66870116-17905.48825847    -3.66870116    -0.00264007  0.54D-04  0.12D-02  1  1    79.81
   2      1.26351888    -3.67153722-17905.49109453    -0.00283606    -0.00002151  0.20D-05  0.13D-04  2  2   108.23
   3      1.26383660    -3.67170727-17905.49126458    -0.00017005    -0.00000023  0.85D-07  0.11D-06  3  3   158.23
   4      1.26384938    -3.67170947-17905.49126678    -0.00000220    -0.00000000  0.23D-08  0.13D-08  4  4   189.64
   5      1.26384956    -3.67170932-17905.49126664     0.00000015    -0.00000000  0.10D-09  0.23D-10  5  5   218.68

 Norm of t1 vector:      0.06271706      S-energy:    -0.00940887      T1 diagnostic:  0.00064167
 Norm of t2 vector:      0.50981970      P-energy:    -3.66230046
                                         Alpha-Beta:  -2.37543365
                                         Alpha-Alpha: -0.67118718
                                         Beta-Beta:   -0.61567964

 Spin contamination <S**2-Sz**2-Sz>     0.00000000
  Reference energy                   -17901.8195573102    
  RHF-RMP2 correlation energy          -3.671709324786
 !RHF-RMP2 energy                    -17905.4912666350    
 (NB above energy spin projected)

 Starting RCCSD calculation

 ITER.      SQ.NORM     CORR.ENERGY   TOTAL ENERGY   ENERGY CHANGE        DEN1      VAR(S)    VAR(P)  DIIS     TIME
   1      1.21430691    -3.28145282-17905.10101013    -3.28145282    -0.13912128  0.19D-01  0.98D-02  0  0   574.43
   2      1.25597816    -3.40796746-17905.22752477    -0.12651464    -0.01845389  0.13D-02  0.35D-02  0  0   908.98
   3      1.27954414    -3.37461205-17905.19416936     0.03335541    -0.00503884  0.39D-02  0.35D-03  1  1  1300.90
   4      1.29740007    -3.38683764-17905.20639495    -0.01222559    -0.00189407  0.17D-02  0.33D-03  2  2  1692.60
   5      1.36477591    -3.39395586-17905.21351317    -0.00711822    -0.00088551  0.96D-03  0.83D-04  3  3  2044.22
   6      1.49336536    -3.40392117-17905.22347848    -0.00996531    -0.00019739  0.12D-03  0.49D-04  4  4  2381.97
   7      1.50792181    -3.40334132-17905.22289863     0.00057985    -0.00005456  0.29D-04  0.17D-04  5  5  2742.14
   8      1.52909562    -3.40451149-17905.22406880    -0.00117017    -0.00000783  0.31D-05  0.28D-05  6  6  3102.40
   9      1.52808778    -3.40450542-17905.22406273     0.00000607    -0.00000252  0.13D-05  0.86D-06  6  1  3468.59
  10      1.53232427    -3.40469768-17905.22425499    -0.00019226    -0.00000040  0.23D-06  0.12D-06  6  2  3825.51
  11      1.53199514    -3.40468716-17905.22424447     0.00001051    -0.00000012  0.88D-07  0.31D-07  6  3  4176.35
  12      1.53155041    -3.40465261-17905.22420992     0.00003455    -0.00000004  0.36D-07  0.68D-08  6  5  4545.66
  13      1.53115806    -3.40463124-17905.22418855     0.00002137    -0.00000002  0.16D-07  0.40D-08  6  4  4919.64
  14      1.53132888    -3.40463695-17905.22419426    -0.00000571    -0.00000001  0.71D-08  0.16D-08  6  1  5289.61
  15      1.53150218    -3.40464583-17905.22420314    -0.00000888    -0.00000000  0.75D-09  0.49D-09  6  6  5675.57
  16      1.53157640    -3.40465102-17905.22420833    -0.00000519    -0.00000000  0.18D-09  0.14D-09  6  2  6040.64
  17      1.53157396    -3.40465161-17905.22420892    -0.00000059    -0.00000000  0.20D-10  0.24D-10  6  4  6390.35

 Norm of t1 vector:      0.46986431      S-energy:    -0.01046256      T1 diagnostic:  0.03542004
                                                                       D1 diagnostic:  0.25147880
 Norm of t2 vector:      0.55749573      P-energy:    -3.39418905
                                         Alpha-Beta:  -2.25581042
                                         Alpha-Alpha: -0.58418306
                                         Beta-Beta:   -0.55419558

 Singles amplitudes (print threshold =  0.500E-01):

         I         SYM. A    A   T(IA) [Alpha-Alpha]

        18         1         1     -0.07502236
        20         1         1     -0.05339538
 
         I         SYM. A    A   T(IA) [Beta-Beta]

        18         1         1     -0.06654975
        20         1         1     -0.07011242
        29         2         1     -0.21181026
        39         3         1      0.35563692

 Doubles amplitudes (print threshold =  0.500E-01):

         I         J         SYM. A    SYM. B    A         B      T(IJ, AB) [Beta-Beta]

        39        18         1         3         1         1      0.06145932
        39        18         3         1         1         1     -0.06145932
        39        29         2         3         1         1      0.11654476
        39        29         3         2         1         1     -0.11654476
 
         I         J         SYM. A    SYM. B    A         B      T(IJ, AB) [Alpha-Beta]

        18        39         1         3         1         1     -0.07291159

 Spin contamination <S**2-Sz**2-Sz>     0.00000000

 For full I/O caching in triples, increase memory by 429.19 Mwords to 1453.47 Mwords.
 

  Correlated core orbitals:             1.1       2.1       3.1       4.1       5.1       6.1       7.1       8.1       9.1      10.1
                                       11.1      12.1      13.1      14.1      15.1      16.1       1.2       2.2       3.2       4.2
                                        5.2       6.2       7.2       8.2       1.3       2.3       3.3       4.3       5.3       6.3
                                        7.3       8.3       1.4       2.4       3.4
  Orbital energies:                 -2813.1974 -497.4974 -433.5372 -118.7837  -99.6919  -77.8790  -77.8719  -26.6321  -20.6301  -20.2362
                                      -12.0941  -12.0827   -4.2862   -3.0357   -3.0217   -2.5466 -433.5414  -99.6981  -77.8813  -20.2456
                                      -12.1028   -3.0355   -3.0346   -2.5632 -433.5379  -99.6922  -77.8755  -20.2331  -12.0889   -3.0348
                                       -3.0217   -2.5254  -77.8822  -12.1016   -3.0365
 
  RCCSD core-core energy               -2.551854710940
  RCCSD core-valence energy            -0.343451164691
  RCCSD valence correlation energy     -0.509345730843
 

 RESULTS
 =======

  Reference energy                   -17901.8195573102    
  RCCSD singles energy                 -0.010462556469
  RCCSD pair energy                    -3.394189050005
  RCCSD correlation energy             -3.404651606474
  Triples (T) contribution             -0.067292169630
  Total correlation energy             -3.471943776105
 
  RHF-RCCSD energy                   -17905.2242089167    
  RHF-RCCSD[T] energy                -17905.3036391493    
  RHF-RCCSD-T energy                 -17905.2924053421    
 !RHF-RCCSD(T) energy                -17905.2915010863    

 Program statistics:

 Available memory in ccsd:              1023983972
 Min. memory needed in ccsd:             308465420
 Max. memory used in ccsd:               456076551
 Max. memory used in cckext:             376073888 (17 integral passes)
 Max. memory used in cckint:             140449433 ( 1 integral passes)



 **********************************************************************************************************************************
 DATASETS  * FILE   NREC   LENGTH (MB)   RECORD NAMES
              1      22       23.93       500      610      700      900      950      970     1000      129      960     1700   
                                          VAR    BASINP    GEOM    SYMINP    ZMAT    AOBASIS   BASIS     P2S    ABASIS    OPER   
                                         1101     1401     1411     1412     1650     1100     1400     1410     1200     1210   
                                          SR      EKINR    POTR     PVPR    MOLCAS      S      EKIN      POT      H0       H01  
                                         1080     1600   
                                         AOSYM     SMH  

              2       5        9.37       700     1000      520     2100     2101   
                                         GEOM     BASIS   MCVARS     RHF      RHF  

 PROGRAMS   *        TOTAL  RCCSD(T)       RHF       RHF       INT
 CPU TIMES  *     16042.28  15852.28      1.15     13.76    174.90
 REAL TIME  *     21396.86 SEC
 DISK USED  *       169.06 GB      
 SF USED    *        30.11 GB      
 GA USED    *         0.00 MB       (max)       0.00 MB       (current)
 **********************************************************************************************************************************
 SETTING CCSD(1)        =    -17905.29150109  AU                              
 Output type csv         
                                                                                                                                                                                                                                                                

     Z,SCF  ,CCSD
   1.8,   -17901.81956,   -17905.29150
                                                  

 RCCSD(T)/USERDEF energy= -17905.291501086322

        RCCSD(T)        RHF-SCF         RHF-SCF 
 -17905.29150109 -17901.81955731 -17901.81955729
 **********************************************************************************************************************************
 Molpro calculation terminated
 Variable memory released
