
 Primary working directories    : /global/cscratch1/sd/bkincaid
 Secondary working directories  : /global/cscratch1/sd/bkincaid
 Wavefunction directory         : /global/homes/b/bkincaid/wfu/
 Main file repository           : /global/cscratch1/sd/bkincaid/

 SHA1      : 19cd028119e0e09f93f0674bd8af7968d9b3eff6
 NAME      : 2015.1.36
 ARCHNAME  : linux/x86_64
 FC        : /opt/cray/pe/craype/2.5.14/bin/ftn
 BLASLIB   : -L/opt/intel/compilers_and_libraries_2018.1.163/linux/mkl/lib/intel64 -Wl,-_start-group -lmkl_intel_ilp64 -lmkl_intel_thread -lmkl_core -Wl,-_end-group -liomp5
 id        : lbl

 Nodes     nprocs
 nid02138    11
 Number of processes for MPI-2 version of Molpro:   nprocs(total)=   12   nprocs(compute)=   11   nprocs(helper)=    1

 Using customized tuning parameters: mindgm=7; mindgv=16; mindgc=1; mindgr=1; noblas=0; minvec=7
 default implementation of scratch files=sf  

 ***,Calculation for IrO groundstate
 memory,1024,m
 gthresh,twoint=1.0E-15
 gthresh,throvl=1.0E-15
 
 set,dkroll=1,dkho=10,dkhp=4
 
 basis={
 Including file /global/u1/b/bkincaid/molpro/Ir/molecules/tz/IrO/ae/1.800/tz.basis
 Including file /global/u1/b/bkincaid/molpro/Ir/molecules/tz/IrO/ae/1.800/O-aug-cc-CVTZ.basis
 }
 
 ne = 85
 
 A1=20
 B1=9
 B2=10
 A2=4
 
 do i=1,1
 z(i) = 1.800 - 0.1*(i-1)
 geometry={
 2
 IrO
 Ir 0.0 0.0 0.0
 O 0.0 0.0 z(i)
 }
 {rks,pbe0
 wf,nele=ne,spin=1,sym=4
         occ,A1,B1,B2,A2
         closed,A1,B1,B2,A2-1
 }
 pbe(i)=energy
 {rhf
 wf,nelec=ne,spin=1,sym=4
         occ,A1,B1,B2,A2
         closed,A1,B1,B2,A2-1
 }
 scf(i)=energy
 _CC_NORM_MAX=2.0
 {rccsd(t);maxit,100;core}
 ccsd(i)=energy
 enddo
 
 table,z,pbe,scf,ccsd
 save
 type,csv
 

 Variables initialized (889), CPU time= 0.01 sec
 Commands  initialized (702), CPU time= 0.00 sec, 572 directives.
 Default parameters read. Elapsed time= 0.14 sec

 Checking input...
 Passed
1


                                         ***  PROGRAM SYSTEM MOLPRO  ***
                                       Copyright, TTI GmbH Stuttgart, 2015
                                    Version 2015.1 linked Dec 29 2018 15:55:43


 **********************************************************************************************************************************
 LABEL *   Calculation for IrO groundstate                                               
  64 bit mpp version                                                                     DATE: 06-Mar-21          TIME: 06:48:32  
 **********************************************************************************************************************************

 SHA1:             19cd028119e0e09f93f0674bd8af7968d9b3eff6
 **********************************************************************************************************************************

 THRESHOLDS:

 ZERO    =  1.00D-12  ONEINT  =  1.00D-12  TWOINT  =  1.00D-15  PREFAC  =  1.00D-14  LOCALI  =  1.00D-09  EORDER  =  1.00D-04
 ENERGY  =  0.00D+00  ETEST   =  0.00D+00  EDENS   =  0.00D+00  THRDEDEF=  1.00D-06  GRADIENT=  1.00D-02  STEP    =  1.00D-03
 ORBITAL =  1.00D-05  CIVEC   =  1.00D-05  COEFF   =  1.00D-04  PRINTCI =  5.00D-02  PUNCHCI =  9.90D+01  OPTGRAD =  3.00D-04
 OPTENERG=  1.00D-06  OPTSTEP =  3.00D-04  THRGRAD =  1.00D-10  COMPRESS=  1.00D-11  VARMIN  =  1.00D-07  VARMAX  =  1.00D-03
 THRDOUB =  0.00D+00  THRDIV  =  1.00D-05  THRRED  =  1.00D-07  THRPSP  =  1.00D+00  THRDC   =  1.00D-10  THRCS   =  1.00D-10
 THRNRM  =  1.00D-08  THREQ   =  0.00D+00  THRDE   =  1.00D+00  THRREF  =  1.00D-05  SPARFAC =  1.00D+00  THRDLP  =  1.00D-07
 THRDIA  =  1.00D-10  THRDLS  =  1.00D-07  THRGPS  =  0.00D+00  THRKEX  =  0.00D+00  THRDIS  =  2.00D-01  THRVAR  =  1.00D-10
 THRLOC  =  1.00D-06  THRGAP  =  1.00D-06  THRLOCT = -1.00D+00  THRGAPT = -1.00D+00  THRORB  =  1.00D-06  THRMLTP =  0.00D+00
 THRCPQCI=  1.00D-10  KEXTA   =  0.00D+00  THRCOARS=  0.00D+00  SYMTOL  =  1.00D-06  GRADTOL =  1.00D-06  THROVL  =  1.00D-08
 THRORTH =  1.00D-08  GRID    =  1.00D-06  GRIDMAX =  1.00D-03  DTMAX   =  0.00D+00  THROCCDE=  1.00D-01  THROCCDE=  1.00D-01



 THRESHOLDS:

 ZERO    =  1.00D-12  ONEINT  =  1.00D-12  TWOINT  =  1.00D-15  PREFAC  =  1.00D-14  LOCALI  =  1.00D-09  EORDER  =  1.00D-04
 ENERGY  =  0.00D+00  ETEST   =  0.00D+00  EDENS   =  0.00D+00  THRDEDEF=  1.00D-06  GRADIENT=  1.00D-02  STEP    =  1.00D-03
 ORBITAL =  1.00D-05  CIVEC   =  1.00D-05  COEFF   =  1.00D-04  PRINTCI =  5.00D-02  PUNCHCI =  9.90D+01  OPTGRAD =  3.00D-04
 OPTENERG=  1.00D-06  OPTSTEP =  3.00D-04  THRGRAD =  1.00D-10  COMPRESS=  1.00D-11  VARMIN  =  1.00D-07  VARMAX  =  1.00D-03
 THRDOUB =  0.00D+00  THRDIV  =  1.00D-05  THRRED  =  1.00D-07  THRPSP  =  1.00D+00  THRDC   =  1.00D-10  THRCS   =  1.00D-10
 THRNRM  =  1.00D-08  THREQ   =  0.00D+00  THRDE   =  1.00D+00  THRREF  =  1.00D-05  SPARFAC =  1.00D+00  THRDLP  =  1.00D-07
 THRDIA  =  1.00D-10  THRDLS  =  1.00D-07  THRGPS  =  0.00D+00  THRKEX  =  0.00D+00  THRDIS  =  2.00D-01  THRVAR  =  1.00D-10
 THRLOC  =  1.00D-06  THRGAP  =  1.00D-06  THRLOCT = -1.00D+00  THRGAPT = -1.00D+00  THRORB  =  1.00D-06  THRMLTP =  0.00D+00
 THRCPQCI=  1.00D-10  KEXTA   =  0.00D+00  THRCOARS=  0.00D+00  SYMTOL  =  1.00D-06  GRADTOL =  1.00D-06  THROVL  =  1.00D-15
 THRORTH =  1.00D-08  GRID    =  1.00D-06  GRIDMAX =  1.00D-03  DTMAX   =  0.00D+00  THROCCDE=  1.00D-01  THROCCDE=  1.00D-01


 SETTING DKROLL         =         1.00000000                                  
 SETTING DKHO           =        10.00000000                                  
 SETTING DKHP           =         4.00000000                                  

 Variable memory set to 1024000000 words,  buffer space   230000 words

 SETTING BASIS          =    USERDEF
 SETTING NE             =        85.00000000                                  
 SETTING A1             =        20.00000000                                  
 SETTING B1             =         9.00000000                                  
 SETTING B2             =        10.00000000                                  
 SETTING A2             =         4.00000000                                  

 DO I                   =         1.00000000   
 SETTING Z(1)           =         1.80000000                                  

Geometry recognized as XYZ



 Recomputing integrals since basis changed


 Using spherical harmonics



 PROGRAM * SEWARD (Integral evaluation for generally contracted gaussian basis sets)     Author: Roland Lindh, 1990

 Geometry written to block  1 of record 700


 Point group  C2v 



 ATOMIC COORDINATES

 NR  ATOM    CHARGE       X              Y              Z

   1  IR     77.00    0.000000000    0.000000000    0.000000000
   2  O       8.00    0.000000000    0.000000000    3.401507024

 Bond lengths in Bohr (Angstrom)

 1-2  3.401507024
     ( 1.800000000)

 NUCLEAR CHARGE:                   85
 NUMBER OF PRIMITIVE AOS:         541
 NUMBER OF SYMMETRY AOS:          446
 NUMBER OF CONTRACTIONS:          446   ( 185A1  + 106B1  + 106B2  +  49A2  )
 NUMBER OF CORE ORBITALS:          35   (  16A1  +   8B1  +   8B2  +   3A2  )
 NUMBER OF VALENCE ORBITALS:       10   (   5A1  +   2B1  +   2B2  +   1A2  )


 NUCLEAR REPULSION ENERGY  181.09620107

 One-electron integrals computed with SEWARD

 10nd-order Douglas-Kroll-Hess method activated. McWeeny DKH parametrization is used.

 Computing Douglas-Kroll / X2C integrals

 AO integral compression algorithm  1   Integral accuracy      1.0D-15

     4463.002 MB (compressed) written to integral file ( 38.1%)

     Node minimum: 213.123 MB, node maximum: 838.337 MB


 NUMBER OF SORTED TWO-ELECTRON INTEGRALS:  115711532.     BUFFER LENGTH:  32768
 NUMBER OF SEGMENTS:   4  SEGMENT LENGTH:   31989761      RECORD LENGTH: 524288

 Memory used in sort:      32.55 MW

 SORT1 READ  1465035727. AND WROTE    44402289. INTEGRALS IN    129 RECORDS. CPU TIME:    20.42 SEC, REAL TIME:    28.07 SEC
 SORT2 READ   484860779. AND WROTE  1273302750. INTEGRALS IN  13420 RECORDS. CPU TIME:     1.46 SEC, REAL TIME:     2.50 SEC

 Node minimum:   115641882.  Node maximum:   115920125. integrals

 OPERATOR DM      FOR CENTER  0  COORDINATES:    0.000000    0.000000    0.000000

 EXTRA SYMMETRY OF AOS IN SYMMETRY 1:   1 1 1 1 1 1 1 1 1 1   1 1 1 1 1 1 1 1 1 1   1 1 1 1 1 1 1 1 1 1   1 1 1 1 1 1 1 1 1 1
                                        1 1 1 1 1 1 1 1 1 1   1 1 1 1 1 1 1 1 1 1   1 1 1 1 1 1 1 1 1 1   1 1 1 1 1 1 1 1 1 1
                                        1 1 1 1 1 1 1 1 1 1   1 1 1 1 1 1 1 1 1 1   1 1 1 1 1 1 1 1 1 1   1 1 1 1 1 1 1 1 1 1
                                        1 1 1 1 1 1 1 1 1 1   1 1 1 1 1 1 1 1 1 1   1 1 1 1 2 1 1 2 1 1   2 1 1 1 1 1 1 1 1 1
                                        1 1 1 1 1 1 1 1 1 1   1 1 1 1 1 1 1 1 1 1   1 1 1 1 1
 EXTRA SYMMETRY OF AOS IN SYMMETRY 2:   1 1 1 1 1 1 1 1 1 1   1 1 1 1 1 1 1 1 1 1   1 1 1 1 1 1 1 1 1 1   1 1 1 1 1 1 1 1 1 1
                                        1 1 1 1 1 1 1 1 1 1   1 1 1 1 1 2 1 2 1 2   1 2 1 2 1 2 1 2 1 2   1 2 1 2 1 2 1 2 1 2
                                        1 2 1 2 1 2 1 2 1 2   1 1 1 1 1 1 1 1 1 1   1 1 1 2 1 2
 EXTRA SYMMETRY OF AOS IN SYMMETRY 3:   1 1 1 1 1 1 1 1 1 1   1 1 1 1 1 1 1 1 1 1   1 1 1 1 1 1 1 1 1 1   1 1 1 1 1 1 1 1 1 1
                                        1 1 1 1 1 1 1 1 1 1   1 1 1 1 1 2 1 2 1 2   1 2 1 2 1 2 1 2 1 2   1 2 1 2 1 2 1 2 1 2
                                        1 2 1 2 1 2 1 2 1 2   1 1 1 1 1 1 1 1 1 1   1 1 1 2 1 2
 EXTRA SYMMETRY OF AOS IN SYMMETRY 4:   1 1 1 1 1 1 1 1 1 1   1 1 1 1 1 1 1 1 1 1   1 1 1 1 1 1 1 1 1 1   1 1 1 1 1 1 1 1 2 1
                                        2 1 2 1 1 1 1 1 1

 Eigenvalues of metric

         1 0.166E-06 0.353E-06 0.769E-06 0.805E-06 0.142E-05 0.487E-05 0.508E-05 0.116E-04
         2 0.172E-06 0.801E-06 0.511E-05 0.116E-04 0.264E-04 0.520E-04 0.547E-04 0.556E-04
         3 0.172E-06 0.801E-06 0.511E-05 0.116E-04 0.264E-04 0.520E-04 0.547E-04 0.556E-04
         4 0.805E-06 0.267E-04 0.542E-04 0.166E-03 0.628E-03 0.978E-03 0.214E-02 0.553E-02


 **********************************************************************************************************************************
 DATASETS  * FILE   NREC   LENGTH (MB)   RECORD NAMES
              1      22       23.93       500      610      700      900      950      970     1000      129      960     1700   
                                          VAR    BASINP    GEOM    SYMINP    ZMAT    AOBASIS   BASIS     P2S    ABASIS    OPER   
                                         1101     1401     1411     1412     1650     1100     1400     1410     1200     1210   
                                          SR      EKINR    POTR     PVPR    MOLCAS      S      EKIN      POT      H0       H01  
                                         1080     1600   
                                         AOSYM     SMH  

 PROGRAMS   *        TOTAL       INT
 CPU TIMES  *       170.89    170.64
 REAL TIME  *       181.59 SEC
 DISK USED  *        10.34 GB      
 GA USED    *         0.00 MB       (max)       0.00 MB       (current)
 **********************************************************************************************************************************

 Density functional group PBE0=PBEX+PBEC
 Functional: PBEX(Automatically generated (new) PBEX)                          Gradient terms: 1
 Functional: PBEC(Automatically generated (new) PBEC)                          Gradient terms: 1
 Use grid at  1800.2
 

 Exact exchange will be calculated, factor:  0.2500

 Functional: PBEX                      Factor:  0.7500
 Functional: PBEC                      Factor:  1.0000
 
 Generated new metagrid on record  1800.2 with target accuracy 1.0D-06 and 5636 points in CPU time    0.1
 Computed new grid on record 1800.1 in CPU time    0.1
  355296 words reserved for DFT integration

 PROGRAM * RKS-SCF (Restricted open shell Kohn-Sham)     Authors: W. Meyer, H.-J. Werner, P.J. Knowles, 1993

 NUMBER OF ELECTRONS:      43+   42-    SPACE SYMMETRY=4    SPIN SYMMETRY: Doublet 
 CONVERGENCE THRESHOLDS:    1.00E-05 (Density)    1.70E-06 (Energy)
 MAX. NUMBER OF ITERATIONS:       60
 INTERPOLATION TYPE:            DIIS
 INTERPOLATION STEPS:              2 (START)      1 (STEP)
 LEVEL SHIFTS:                 -0.60 (CLOSED) -0.30 (OPEN) 

 Number of closed-shell orbitals:   42 (  20   9  10   3 )
 Number of open-shell orbitals:      1 (   0   0   0   1 )


 Use fine grid record 1800.2 for energy threshold  1.0D-06
 Orbital guess generated from atomic densities. Full valence occupancy:   21  10  10   4

 Molecular orbital dump at record        2100.2

 ITERATION    DDIFF          GRAD             ENERGY        2-EL.EN.            DIPOLE MOMENTS         DIIS   ORB.
    1      0.000D+00      0.000D+00    -17893.65713568  13473.011193    0.00000    0.00000  -10.15193    0    start
    2      0.000D+00      0.368D-01    -17892.29585324  14918.846578    0.00000    0.00000   12.44959    1    diag,B
    3      0.169D+01      0.878D-01    -17904.06785626  14551.652840    0.00000    0.00000    2.61344    2    diag,B
    4      0.374D+00      0.353D-01    -17906.31289566  14395.054103    0.00000    0.00000    1.54349    3    diag,B
    5      0.745D-01      0.179D-01    -17907.36203253  14260.742671    0.00000    0.00000   -1.69721    4    diag,B
    6      0.159D-01      0.594D-02    -17907.48121493  14228.163433    0.00000    0.00000   -1.36070    5    diag,B
    7      0.311D-02      0.217D-02    -17907.52309457  14197.791491    0.00000    0.00000   -1.82282    6    fixocc
    8      0.319D-02      0.115D-02    -17907.53304382  14196.754334    0.00000    0.00000   -1.74109    7    diag,B
    9      0.124D-02      0.786D-03    -17907.53979581  14198.484155    0.00000    0.00000   -1.60391    8    diag,B
   10      0.861D-03      0.428D-03    -17907.54544674  14198.486331    0.00000    0.00000   -1.44068    9    orth
   11      0.113D-02      0.211D-03    -17907.54792845  14197.234895    0.00000    0.00000   -1.36178    9    diag,B
   12      0.852D-03      0.133D-03    -17907.54885217  14196.367695    0.00000    0.00000   -1.29923    9    diag,B
   13      0.464D-03      0.823D-04    -17907.54918039  14196.017693    0.00000    0.00000   -1.27194    9    diag,B
   14      0.338D-03      0.488D-04    -17907.54929666  14195.967387    0.00000    0.00000   -1.25077    9    diag,B
   15      0.303D-03      0.253D-04    -17907.54933361  14195.909425    0.00000    0.00000   -1.24268    9    diag,B
   16      0.120D-03      0.115D-04    -17907.54934088  14195.887877    0.00000    0.00000   -1.23768    9    diag,B
   17      0.737D-04      0.554D-05    -17907.54934203  14195.885085    0.00000    0.00000   -1.23737    9    diag,B
   18      0.427D-04      0.340D-05    -17907.54934229  14195.885945    0.00000    0.00000   -1.23684    9    diag,B
   19      0.148D-04      0.189D-05    -17907.54934243  14195.881143    0.00000    0.00000   -1.23650    9    diag,B
   20      0.562D-05      0.118D-05    -17907.54934246  14195.882864    0.00000    0.00000   -1.23649    0    orth

 Final alpha occupancy:  20   9  10   4
 Final beta  occupancy:  20   9  10   3

 !RKS STATE 1.4 Energy               -17907.5493424609    
 Nuclear energy                       181.09620107
 One-electron energy               -24913.87486961
 Two-electron energy                 7097.94143220
 Density functional                  -272.71210612     PBEX=-357.06407063 PBEC=  -4.91405315
 Virial quotient                       -0.67957816
 !RKS STATE 1.4 Dipole moment           0.00000000     0.00000000    -1.23649016
 Dipole moment /Debye                   0.00000000     0.00000000    -3.14263866

 Orbital energies:

         1.1          2.1          3.1          4.1          5.1          6.1          7.1          8.1          9.1         10.1
  -2794.643717  -490.193285  -427.367710  -115.293665   -96.754171   -75.589684   -75.582581   -24.935317   -19.291606   -18.796554

        11.1         12.1         13.1         14.1         15.1         16.1         17.1         18.1         19.1         20.1
    -11.046347   -11.032321    -3.772427    -2.498373    -2.477564    -2.169667    -0.972455    -0.443383    -0.320040    -0.270725

        21.1         22.1
     -0.115027     0.015693

         1.2          2.2          3.2          4.2          5.2          6.2          7.2          8.2          9.2         10.2
   -427.369892   -96.761070   -75.588970   -18.806885   -11.048191    -2.498358    -2.487680    -2.161077    -0.399861    -0.185841

        11.2
     -0.014601

         1.3          2.3          3.3          4.3          5.3          6.3          7.3          8.3          9.3         10.3
   -427.365602   -96.750967   -75.582492   -18.787161   -11.031690    -2.489944    -2.477876    -2.129802    -0.405884    -0.256109

        11.3         12.3
     -0.008559     0.109059

         1.4          2.4          3.4          4.4          5.4          6.4
    -75.587384   -11.041971    -2.490397    -0.348984     0.134640     0.435394

 HOMO     10.3    -0.256109 =      -6.9691eV
 LUMO     10.2    -0.185841 =      -5.0570eV
 LUMO-HOMO         0.070267 =       1.9121eV


 **********************************************************************************************************************************
 DATASETS  * FILE   NREC   LENGTH (MB)   RECORD NAMES
              1      23       23.93       500      610      700      900      950      970     1000      129      960     1700   
                                          VAR    BASINP    GEOM    SYMINP    ZMAT    AOBASIS   BASIS     P2S    ABASIS    OPER   
                                         1101     1401     1411     1412     1650     1100     1400     1410     1200     1210   
                                          SR      EKINR    POTR     PVPR    MOLCAS      S      EKIN      POT      H0       H01  
                                         1080     1600     1800   
                                         AOSYM     SMH     GRID   

              2       5        4.50       700     1000      520     1800     2100   
                                         GEOM     BASIS   MCVARS    GRID      RKS  

 PROGRAMS   *        TOTAL       RKS       INT
 CPU TIMES  *       184.13     13.24    170.64
 REAL TIME  *       195.78 SEC
 DISK USED  *        10.75 GB      
 SF USED    *         0.24 MB      
 GA USED    *         0.25 MB       (max)       0.25 MB       (current)
 **********************************************************************************************************************************
 SETTING PBE(1)         =    -17907.54934246  AU                              


 PROGRAM * RHF-SCF (OPEN SHELL)       Authors: W. Meyer, H.-J. Werner


 NUMBER OF ELECTRONS:      43+   42-    SPACE SYMMETRY=4    SPIN SYMMETRY: Doublet 
 CONVERGENCE THRESHOLDS:    1.00E-05 (Density)    1.70E-07 (Energy)
 MAX. NUMBER OF ITERATIONS:       60
 INTERPOLATION TYPE:            DIIS
 INTERPOLATION STEPS:              2 (START)      1 (STEP)
 LEVEL SHIFTS:                 -0.60 (CLOSED) -0.30 (OPEN) 

 Number of closed-shell orbitals:   42 (  20   9  10   3 )
 Number of open-shell orbitals:      1 (   0   0   0   1 )


 Molecular orbitals read from record     2100.2  Type=RKS/CANONICAL (state 1.4)

 Molecular orbital dump at record        2101.2

 ITERATION    DDIFF          GRAD             ENERGY        2-EL.EN.            DIPOLE MOMENTS         DIIS   ORB.
    1      0.000D+00      0.000D+00    -17901.68664727  13662.184043    0.00000    0.00000   -1.23649    0    start
    2      0.000D+00      0.118D+00    -17901.73653251  13666.516454    0.00000    0.00000   -1.56458    1    diag,B
    3      0.278D-02      0.133D-02    -17901.74031965  13661.162044    0.00000    0.00000   -1.64966    2    diag,B
    4      0.707D-03      0.718D-03    -17901.74138556  13664.914074    0.00000    0.00000   -1.68852    3    diag,B
    5      0.247D-03      0.347D-03    -17901.74215591  13664.109505    0.00000    0.00000   -1.73990    4    diag,B
    6      0.234D-03      0.146D-03    -17901.74263139  13664.358163    0.00000    0.00000   -1.78085    5    diag,B
    7      0.227D-03      0.762D-04    -17901.74277569  13664.446701    0.00000    0.00000   -1.80203    6    diag,B
    8      0.111D-03      0.544D-04    -17901.74287634  13664.715725    0.00000    0.00000   -1.81026    7    orth
    9      0.107D-03      0.411D-04    -17901.74295132  13664.842367    0.00000    0.00000   -1.81728    8    diag,B
   10      0.987D-04      0.274D-04    -17901.74300342  13665.112212    0.00000    0.00000   -1.82143    9    diag,B
   11      0.952D-04      0.158D-04    -17901.74302016  13665.260253    0.00000    0.00000   -1.82376    9    diag,B
   12      0.718D-04      0.827D-05    -17901.74302329  13665.327778    0.00000    0.00000   -1.82393    9    diag,B
   13      0.229D-04      0.590D-05    -17901.74302490  13665.359884    0.00000    0.00000   -1.82416    9    diag,B
   14      0.195D-04      0.398D-05    -17901.74302576  13665.383807    0.00000    0.00000   -1.82394    9    diag,B
   15      0.189D-04      0.255D-05    -17901.74302613  13665.400773    0.00000    0.00000   -1.82388    9    diag,B
   16      0.909D-05      0.135D-05    -17901.74302621  13665.407469    0.00000    0.00000   -1.82369    9    diag,B
   17      0.469D-05      0.702D-06    -17901.74302622  13665.406684    0.00000    0.00000   -1.82366    0    orth

 Final alpha occupancy:  20   9  10   4
 Final beta  occupancy:  20   9  10   3

 !RHF STATE 1.4 Energy               -17901.7430262161    
 Nuclear energy                       181.09620107
 One-electron energy               -24915.54256910
 Two-electron energy                 6832.70334182
 Virial quotient                       -0.67998251
 !RHF STATE 1.4 Dipole moment           0.00000000     0.00000000    -1.82366069
 Dipole moment /Debye                   0.00000000     0.00000000    -4.63497953

 Orbital energies:

         1.1          2.1          3.1          4.1          5.1          6.1          7.1          8.1          9.1         10.1
  -2813.229949  -497.526116  -433.566578  -118.813980   -99.722625   -77.911253   -77.902058   -26.656934   -20.620815   -20.262537

        11.1         12.1         13.1         14.1         15.1         16.1         17.1         18.1         19.1         20.1
    -12.126124   -12.108679    -4.265897    -3.063137    -3.045148    -2.514715    -1.235645    -0.571043    -0.467106    -0.351389

        21.1         22.1
     -0.013698     0.040130

         1.2          2.2          3.2          4.2          5.2          6.2          7.2          8.2          9.2         10.2
   -433.568807   -99.729344   -77.904942   -20.271846   -12.116160    -3.062904    -3.055241    -2.499384    -0.454973    -0.020226

        11.2
      0.059431

         1.3          2.3          3.3          4.3          5.3          6.3          7.3          8.3          9.3         10.3
   -433.566358   -99.720094   -77.904631   -20.254401   -12.113361    -3.057263    -3.045387    -2.489790    -0.569248    -0.395568

        11.3         12.3
      0.049112     0.175336

         1.4          2.4          3.4          4.4          5.4          6.4
    -77.905558   -12.113850    -3.056108    -0.501605     0.195572     0.561158

 HOMO     20.1    -0.351389 =      -9.5618eV
 LUMO     10.2    -0.020226 =      -0.5504eV
 LUMO-HOMO         0.331163 =       9.0114eV


 **********************************************************************************************************************************
 DATASETS  * FILE   NREC   LENGTH (MB)   RECORD NAMES
              1      23       23.93       500      610      700      900      950      970     1000      129      960     1700   
                                          VAR    BASINP    GEOM    SYMINP    ZMAT    AOBASIS   BASIS     P2S    ABASIS    OPER   
                                         1101     1401     1411     1412     1650     1100     1400     1410     1200     1210   
                                          SR      EKINR    POTR     PVPR    MOLCAS      S      EKIN      POT      H0       H01  
                                         1080     1600     1800   
                                         AOSYM     SMH     GRID   

              2       6        9.38       700     1000      520     1800     2100     2101   
                                         GEOM     BASIS   MCVARS    GRID      RKS      RHF  

 PROGRAMS   *        TOTAL       RHF       RKS       INT
 CPU TIMES  *       193.29      9.16     13.24    170.64
 REAL TIME  *       205.69 SEC
 DISK USED  *        10.81 GB      
 SF USED    *         0.24 MB      
 GA USED    *         0.25 MB       (max)       0.25 MB       (current)
 **********************************************************************************************************************************
 SETTING SCF(1)         =    -17901.74302622  AU                              
 SETTING _CC_NORM_MAX   =         2.00000000                                  


 PROGRAM * CCSD (Restricted open-shell coupled cluster)     Authors: C. Hampel, H.-J. Werner, 1991, M. Deegan, P.J. Knowles, 1992


 Convergence thresholds:  THRVAR = 1.00D-08  THRDEN = 1.70D-06

 CCSD(T)     terms to be evaluated (factor= 1.000)


 Number of closed-shell orbitals:  42 (  20   9  10   3 )
 Number of active  orbitals:        1 (   0   0   0   1 )
 Number of external orbitals:     403 ( 165  97  96  45 )

 For full I/O caching in triples, increase memory by 239.37 Mwords to 1263.65 Mwords.

 Number of N-1 electron functions:              85
 Number of N-2 electron functions:            3570
 Number of singly external CSFs:             10588
 Number of doubly external CSFs:         112315657
 Total number of CSFs:                   112326245

 Molecular orbitals read from record     2101.2  Type=RHF/CANONICAL (state 1.4)

 Integral transformation finished. Total CPU:  50.40 sec, npass=  1  Memory used: 140.45 MW

 Starting RMP2 calculation

 Wavefunction is spin-projected

 ITER.      SQ.NORM     CORR.ENERGY   TOTAL ENERGY   ENERGY CHANGE        DEN1      VAR(S)    VAR(P)  DIIS     TIME
   1      1.33140931    -3.76061021-17905.50363643    -3.76061021    -0.00400622  0.34D-05  0.24D-02  1  1    70.60
   2      1.33729038    -3.76491430-17905.50794052    -0.00430409    -0.00002263  0.10D-07  0.18D-04  2  2    90.31
   3      1.33778862    -3.76515670-17905.50818292    -0.00024240    -0.00000008  0.22D-10  0.64D-07  3  3   110.96
   4      1.33780196    -3.76515938-17905.50818559    -0.00000267    -0.00000000  0.31D-12  0.36D-09  4  4   147.84
   5      1.33780213    -3.76515942-17905.50818564    -0.00000004    -0.00000000  0.43D-14  0.20D-11  5  5   167.96

 Norm of t1 vector:      0.02657304      S-energy:    -0.00247620      T1 diagnostic:  0.00002593
 Norm of t2 vector:      0.58059970      P-energy:    -3.76268322
                                         Alpha-Beta:  -2.44931857
                                         Alpha-Alpha: -0.66941962
                                         Beta-Beta:   -0.64394503

 Spin contamination <S**2-Sz**2-Sz>     0.00000000
  Reference energy                   -17901.7430262161    
  RHF-RMP2 correlation energy          -3.765159420771
 !RHF-RMP2 energy                    -17905.5081856368    
 (NB above energy spin projected)

 Starting RCCSD calculation

 ITER.      SQ.NORM     CORR.ENERGY   TOTAL ENERGY   ENERGY CHANGE        DEN1      VAR(S)    VAR(P)  DIIS     TIME
   1      1.23777356    -3.32234616-17905.06537238    -3.32234616    -0.15924082  0.22D-01  0.17D-01  0  0   496.24
   2      1.28562553    -3.46854395-17905.21157017    -0.14619779    -0.02343611  0.19D-02  0.64D-02  0  0   821.93
   3      1.28947746    -3.42181108-17905.16483730     0.04673287    -0.00647696  0.40D-02  0.11D-02  1  1  1179.73
   4      1.29812196    -3.43748546-17905.18051168    -0.01567438    -0.00057700  0.31D-03  0.19D-03  2  2  1531.73
   5      1.30722077    -3.43900676-17905.18203297    -0.00152130    -0.00029496  0.32D-03  0.50D-04  3  3  1867.79
   6      1.32234475    -3.44150119-17905.18452741    -0.00249443    -0.00004222  0.49D-04  0.65D-05  4  4  2224.74
   7      1.32689217    -3.44183586-17905.18486208    -0.00033467    -0.00002155  0.23D-04  0.36D-05  5  5  2574.96
   8      1.33105757    -3.44171887-17905.18474509     0.00011699    -0.00000483  0.38D-05  0.13D-05  6  6  2925.35
   9      1.33274425    -3.44177992-17905.18480614    -0.00006105    -0.00000094  0.63D-06  0.31D-06  6  3  3277.16
  10      1.33250001    -3.44175130-17905.18477751     0.00002862    -0.00000023  0.16D-06  0.74D-07  6  1  3630.43
  11      1.33264985    -3.44175541-17905.18478162    -0.00000411    -0.00000008  0.61D-07  0.23D-07  6  2  3989.61
  12      1.33267284    -3.44175642-17905.18478264    -0.00000102    -0.00000002  0.16D-07  0.51D-08  6  4  4334.03
  13      1.33270455    -3.44175775-17905.18478397    -0.00000133    -0.00000001  0.72D-08  0.19D-08  6  6  4674.51

 Norm of t1 vector:      0.23683894      S-energy:    -0.00262628      T1 diagnostic:  0.01786679
                                                                       D1 diagnostic:  0.13397456
 Norm of t2 vector:      0.52593903      P-energy:    -3.43913147
                                         Alpha-Beta:  -2.30510862
                                         Alpha-Alpha: -0.57693861
                                         Beta-Beta:   -0.55708424

 Singles amplitudes (print threshold =  0.500E-01):

         I         SYM. A    A   T(IA) [Alpha-Alpha]

        18         1         1     -0.05404751
        20         1         1      0.07134078
        29         2         1     -0.06718735
 
         I         SYM. A    A   T(IA) [Beta-Beta]

        20         1         1      0.09140555

 Doubles amplitudes (print threshold =  0.500E-01):

         I         J         SYM. A    SYM. B    A         B      T(IJ, AB) [Alpha-Beta]

        29        29         2         2         1         1     -0.12713670
        29        29         2         2         1         2      0.06985653
        29        29         2         2         2         1      0.06985653

 Spin contamination <S**2-Sz**2-Sz>     0.00000000

 For full I/O caching in triples, increase memory by 392.90 Mwords to 1417.18 Mwords.
 

  Correlated core orbitals:             1.1       2.1       3.1       4.1       5.1       6.1       7.1       8.1       9.1      10.1
                                       11.1      12.1      13.1      14.1      15.1      16.1       1.2       2.2       3.2       4.2
                                        5.2       6.2       7.2       8.2       1.3       2.3       3.3       4.3       5.3       6.3
                                        7.3       8.3       1.4       2.4       3.4
  Orbital energies:                 -2813.2300 -497.5283 -433.5670 -118.8150  -99.7230  -77.9119  -77.9029  -26.6603  -20.6208  -20.2634
                                      -12.1275  -12.1104   -4.2894   -3.0645   -3.0465   -2.5215 -433.5720  -99.7309  -77.9058  -20.2766
                                      -12.1179   -3.0644   -3.0627   -2.5468 -433.5695  -99.7217  -77.9055  -20.2591  -12.1151   -3.0652
                                       -3.0469   -2.5370  -77.9136  -12.1313   -3.0621
 
  RCCSD core-core energy               -2.552507799456
  RCCSD core-valence energy            -0.342734537500
  RCCSD valence correlation energy     -0.546515412081
 

 RESULTS
 =======

  Reference energy                   -17901.7430262161    
  RCCSD singles energy                 -0.002626276657
  RCCSD pair energy                    -3.439131472379
  RCCSD correlation energy             -3.441757749036
  Triples (T) contribution             -0.075635969659
  Total correlation energy             -3.517393718695
 
  RHF-RCCSD energy                   -17905.1847839651    
  RHF-RCCSD[T] energy                -17905.2698975672    
  RHF-RCCSD-T energy                 -17905.2596059631    
 !RHF-RCCSD(T) energy                -17905.2604199348    

 Program statistics:

 Available memory in ccsd:              1023984678
 Min. memory needed in ccsd:             306657742
 Max. memory used in ccsd:               453603010
 Max. memory used in cckext:             375781906 (13 integral passes)
 Max. memory used in cckint:             140449005 ( 1 integral passes)



 **********************************************************************************************************************************
 DATASETS  * FILE   NREC   LENGTH (MB)   RECORD NAMES
              1      23       23.93       500      610      700      900      950      970     1000      129      960     1700   
                                          VAR    BASINP    GEOM    SYMINP    ZMAT    AOBASIS   BASIS     P2S    ABASIS    OPER   
                                         1101     1401     1411     1412     1650     1100     1400     1410     1200     1210   
                                          SR      EKINR    POTR     PVPR    MOLCAS      S      EKIN      POT      H0       H01  
                                         1080     1600     1800   
                                         AOSYM     SMH     GRID   

              2       6        9.38       700     1000      520     1800     2100     2101   
                                         GEOM     BASIS   MCVARS    GRID      RKS      RHF  

 PROGRAMS   *        TOTAL  RCCSD(T)       RHF       RKS       INT
 CPU TIMES  *     14445.34  14252.02      9.16     13.24    170.64
 REAL TIME  *     15969.77 SEC
 DISK USED  *       168.31 GB      
 SF USED    *        29.40 GB      
 GA USED    *         0.25 MB       (max)       0.25 MB       (current)
 **********************************************************************************************************************************
 SETTING CCSD(1)        =    -17905.26041993  AU                              
 Output type csv         
                                                                                                                                                                                                                                                                

     Z,PBE  ,SCF  ,CCSD
   1.8,   -17907.54934,   -17901.74303,   -17905.26042
                                                  

 RCCSD(T)/USERDEF energy= -17905.260419934752

        RCCSD(T)        RHF-SCF         RKS-SCF 
 -17905.26041993 -17901.74302622 -17907.54934246
 **********************************************************************************************************************************
 Molpro calculation terminated
 Variable memory released
