
 Primary working directories    : /global/cscratch1/sd/haihan
 Secondary working directories  : /global/cscratch1/sd/haihan
 Wavefunction directory         : /global/homes/h/haihan/wfu/
 Main file repository           : /global/cscratch1/sd/haihan/

 SHA1      : 19cd028119e0e09f93f0674bd8af7968d9b3eff6
 NAME      : 2015.1.36
 ARCHNAME  : linux/x86_64
 FC        : /opt/cray/pe/craype/2.5.14/bin/ftn
 BLASLIB   : -L/opt/intel/compilers_and_libraries_2018.1.163/linux/mkl/lib/intel64 -Wl,-_start-group -lmkl_intel_ilp64 -lmkl_intel_thread -lmkl_core -Wl,-_end-group -liomp5
 id        : lbl

 Nodes     nprocs
 nid00845    15
 Number of processes for MPI-2 version of Molpro:   nprocs(total)=   16   nprocs(compute)=   15   nprocs(helper)=    1

 Using customized tuning parameters: mindgm=7; mindgv=16; mindgc=1; mindgr=1; noblas=0; minvec=7
 default implementation of scratch files=sf  

 ***,W
 memory,512,m
 
 gthresh,twoint=1.e-12
 gprint,basis,orbitals
 
 angstrom
 geometry={
 1                                                                               ! Number of atoms
 W 0.0 0.0 0.0
 }
 
 basis={
 Including file /global/u2/h/haihan/Research/HZECP/W_basis/check_contractions_5Z/ecp.molpro
 Including file /global/u2/h/haihan/Research/HZECP/W_basis/check_contractions_5Z/basis.molpro
 }
 
 {rhf
  start,atden
  print,orbitals=2
  wf,14,1,4
  occ,3,1,1,1,1,1,1,0
  closed,2,1,1,0,1,0,0,0
  sym,1,1,1,3,2
  orbital,4202.2
 }
 pop
 {multi
  start,4202.2
  occ,4,1,1,1,1,1,1,0
  closed,2,1,1,0,1,0,0,0
  wf,14,1,4;state,2
  wf,14,4,4;state,1
  wf,14,6,4;state,1
  wf,14,7,4;state,1
  natorb,ci,print
  orbital,5202.2
 }
 {rhf,nitord=1,maxit=0
  start,5202.2
  wf,14,1,4
  occ,3,1,1,1,1,1,1,0
  closed,2,1,1,0,1,0,0,0
 }
 {ci;maxit,100;core,1,1,1,0,1,0,0,0
  natorb,ci,print=15
 
 }

 Variables initialized (889), CPU time= 0.01 sec
 Commands  initialized (702), CPU time= 0.01 sec, 572 directives.
 Default parameters read. Elapsed time= 0.32 sec

 Checking input...
 Passed
1


                                         ***  PROGRAM SYSTEM MOLPRO  ***
                                       Copyright, TTI GmbH Stuttgart, 2015
                                    Version 2015.1 linked Dec 29 2018 15:55:43


 **********************************************************************************************************************************
 LABEL *   W                                                                             
  64 bit mpp version                                                                     DATE: 08-Dec-21          TIME: 15:02:32  
 **********************************************************************************************************************************

 SHA1:             19cd028119e0e09f93f0674bd8af7968d9b3eff6
 **********************************************************************************************************************************

 THRESHOLDS:

 ZERO    =  1.00D-12  ONEINT  =  1.00D-12  TWOINT  =  1.00D-12  PREFAC  =  1.00D-14  LOCALI  =  1.00D-09  EORDER  =  1.00D-04
 ENERGY  =  0.00D+00  ETEST   =  0.00D+00  EDENS   =  0.00D+00  THRDEDEF=  1.00D-06  GRADIENT=  1.00D-02  STEP    =  1.00D-03
 ORBITAL =  1.00D-05  CIVEC   =  1.00D-05  COEFF   =  1.00D-04  PRINTCI =  5.00D-02  PUNCHCI =  9.90D+01  OPTGRAD =  3.00D-04
 OPTENERG=  1.00D-06  OPTSTEP =  3.00D-04  THRGRAD =  1.00D-10  COMPRESS=  1.00D-11  VARMIN  =  1.00D-07  VARMAX  =  1.00D-03
 THRDOUB =  0.00D+00  THRDIV  =  1.00D-05  THRRED  =  1.00D-07  THRPSP  =  1.00D+00  THRDC   =  1.00D-10  THRCS   =  1.00D-10
 THRNRM  =  1.00D-08  THREQ   =  0.00D+00  THRDE   =  1.00D+00  THRREF  =  1.00D-05  SPARFAC =  1.00D+00  THRDLP  =  1.00D-07
 THRDIA  =  1.00D-10  THRDLS  =  1.00D-07  THRGPS  =  0.00D+00  THRKEX  =  0.00D+00  THRDIS  =  2.00D-01  THRVAR  =  1.00D-10
 THRLOC  =  1.00D-06  THRGAP  =  1.00D-06  THRLOCT = -1.00D+00  THRGAPT = -1.00D+00  THRORB  =  1.00D-06  THRMLTP =  0.00D+00
 THRCPQCI=  1.00D-10  KEXTA   =  0.00D+00  THRCOARS=  0.00D+00  SYMTOL  =  1.00D-06  GRADTOL =  1.00D-06  THROVL  =  1.00D-08
 THRORTH =  1.00D-08  GRID    =  1.00D-06  GRIDMAX =  1.00D-03  DTMAX   =  0.00D+00  THROCCDE=  1.00D-01  THROCCDE=  1.00D-01



 ZUNIT=ANG
 

Geometry recognized as XYZ


 Variable memory set to  512000000 words,  buffer space   230000 words

 SETTING BASIS          =    USERDEF


 Recomputing integrals since basis changed


 Using spherical harmonics



 PROGRAM * SEWARD (Integral evaluation for generally contracted gaussian basis sets)     Author: Roland Lindh, 1990

 Geometry written to block  1 of record 700

 Orientation using atomic masses  
 Molecule type: Atom
 Symmetry elements: X,Y,Z
 Rotational constants:       0.0000000      0.0000000      0.0000000 GHz  (calculated with average atomic masses)

 Point group  D2h 



 ATOMIC COORDINATES

 NR  ATOM    CHARGE       X              Y              Z

   1  W      14.00    0.000000000    0.000000000    0.000000000


          W   CORE POTENTIAL

          g POTENTIAL

 POWERS             1              3              2              2
 EXPONENTIALS   10.18896       9.478240       10.14688       5.491651    
 COEFFICIENTS   14.00000       142.6454      -100.0787     -0.9415780    

          s - g POTENTIAL

 POWERS             2              2
 EXPONENTIALS   11.27396       8.410924    
 COEFFICIENTS   420.4798       39.58494    

          p - g POTENTIAL

 POWERS             2              2              4
 EXPONENTIALS   8.517824       1.608091       10.07349    
 COEFFICIENTS   320.8772     -0.4728210      0.1129290    

          d - g POTENTIAL

 POWERS             2              2              4
 EXPONENTIALS   6.059286       1.104853       6.262477    
 COEFFICIENTS   158.0780     -0.2832990     -0.4594900    

          f - g POTENTIAL

 POWERS             2              2
 EXPONENTIALS   2.075342       1.845947    
 COEFFICIENTS   7.745405       6.916005    


 BASIS DATA

   Nr Sym  Nuc  Type         Exponents   Contraction coefficients

    1.1 Ag    1  1s          74.376481    -0.001943    0.000543   -0.000723    0.001189   -0.003448   -0.007198
    2.1 Ag                   39.115990     0.017833   -0.005268    0.007492   -0.012299    0.012403    0.028788
    3.1 Ag                   20.571835    -0.117540    0.036666   -0.054596    0.090706    0.012715   -0.004903
    4.1 Ag                   10.819115     0.471463   -0.153622    0.233521   -0.397491   -0.193600   -0.284520
    5.1 Ag                    5.689976    -0.655046    0.225025   -0.341100    0.605795    0.057617    0.103448
    6.1 Ag                    2.992465    -0.399173    0.140074   -0.249111    0.501906    1.980190    4.211131
                              1.573794     0.440734   -0.169850    0.263863   -0.857207   -3.521248  -12.780355
                              0.827688     0.743098   -0.392735    0.951309   -2.459031   -1.542366   16.345474
                              0.435297     0.261234   -0.230076    0.314455    3.142185    9.303153   -9.463902
                              0.228931     0.028154    0.050209   -1.462869    1.378958   -9.669727   -2.778531
                              0.120399    -0.001891    0.441577   -0.753064   -2.606927    2.092967   10.902513
                              0.063320     0.001524    0.452557    0.479974   -0.912496    3.747935   -9.851572
                              0.033301    -0.000367    0.285977    0.913763    1.669934   -2.554118    3.605315
    7.1 Ag    1  3d0         61.907933    -0.000024
                             32.585172     0.000233
                             17.151169    -0.002245
                              9.027499     0.020877
                              4.751614    -0.090172
                              2.501007     0.023170
                              1.316402     0.205899
                              0.692887     0.321552
                              0.364700     0.323472
                              0.191960     0.230789
                              0.101038     0.111668
                              0.053181     0.026522
                              0.027992     0.001600
    8.1 Ag    1  3d2+        61.907933    -0.000024
                             32.585172     0.000233
                             17.151169    -0.002245
                              9.027499     0.020877
                              4.751614    -0.090172
                              2.501007     0.023170
                              1.316402     0.205899
                              0.692887     0.321552
                              0.364700     0.323472
                              0.191960     0.230789
                              0.101038     0.111668
                              0.053181     0.026522
                              0.027992     0.001600
    9.1 Ag    1  3d0         61.907933     0.000005
                             32.585172    -0.000160
                             17.151169     0.002296
                              9.027499    -0.024432
                              4.751614     0.112596
                              2.501007    -0.039514
                              1.316402    -0.295539
                              0.692887    -0.461445
                              0.364700    -0.080208
                              0.191960     0.499620
                              0.101038     0.418172
                              0.053181     0.115203
                              0.027992     0.006691
   10.1 Ag    1  3d2+        61.907933     0.000005
                             32.585172    -0.000160
                             17.151169     0.002296
                              9.027499    -0.024432
                              4.751614     0.112596
                              2.501007    -0.039514
                              1.316402    -0.295539
                              0.692887    -0.461445
                              0.364700    -0.080208
                              0.191960     0.499620
                              0.101038     0.418172
                              0.053181     0.115203
                              0.027992     0.006691
   11.1 Ag    1  3d0         61.907933    -0.000179
                             32.585172     0.000632
                             17.151169     0.000545
                              9.027499    -0.026852
                              4.751614     0.145145
                              2.501007    -0.035419
                              1.316402    -0.610909
                              0.692887    -0.499162
                              0.364700     1.209396
                              0.191960     0.263814
                              0.101038    -0.665665
                              0.053181    -0.302443
                              0.027992    -0.034465
   12.1 Ag    1  3d2+        61.907933    -0.000179
                             32.585172     0.000632
                             17.151169     0.000545
                              9.027499    -0.026852
                              4.751614     0.145145
                              2.501007    -0.035419
                              1.316402    -0.610909
                              0.692887    -0.499162
                              0.364700     1.209396
                              0.191960     0.263814
                              0.101038    -0.665665
                              0.053181    -0.302443
                              0.027992    -0.034465
   13.1 Ag    1  3d0         61.907933    -0.001192
                             32.585172     0.005075
                             17.151169    -0.011115
                              9.027499    -0.011167
                              4.751614     0.167220
                              2.501007     0.015095
                              1.316402    -1.515591
                              0.692887     1.242898
                              0.364700     1.191021
                              0.191960    -2.283323
                              0.101038     0.787104
                              0.053181     0.389678
                              0.027992     0.120442
   14.1 Ag    1  3d2+        61.907933    -0.001192
                             32.585172     0.005075
                             17.151169    -0.011115
                              9.027499    -0.011167
                              4.751614     0.167220
                              2.501007     0.015095
                              1.316402    -1.515591
                              0.692887     1.242898
                              0.364700     1.191021
                              0.191960    -2.283323
                              0.101038     0.787104
                              0.053181     0.389678
                              0.027992     0.120442
   15.1 Ag    1  3d0         61.907933     0.000666
                             32.585172    -0.003231
                             17.151169     0.013751
                              9.027499    -0.088681
                              4.751614     0.432719
                              2.501007    -0.496755
                              1.316402    -1.869884
                              0.692887     4.519622
                              0.364700    -4.549621
                              0.191960     1.997248
                              0.101038     0.590398
                              0.053181    -0.875841
                              0.027992    -0.121609
   16.1 Ag    1  3d2+        61.907933     0.000666
                             32.585172    -0.003231
                             17.151169     0.013751
                              9.027499    -0.088681
                              4.751614     0.432719
                              2.501007    -0.496755
                              1.316402    -1.869884
                              0.692887     4.519622
                              0.364700    -4.549621
                              0.191960     1.997248
                              0.101038     0.590398
                              0.053181    -0.875841
                              0.027992    -0.121609
    1.2 B3u   1  2px         70.819882    -0.000490    0.000163    0.000303   -0.000287   -0.003145   -0.009862
    2.2 B3u                  37.221301     0.003813   -0.001343   -0.002446   -0.000323    0.012985    0.049919
    3.2 B3u                  19.562660    -0.025616    0.009623    0.017437    0.019041   -0.015558   -0.176523
    4.2 B3u                  10.281684     0.138740   -0.054556   -0.100369   -0.154508   -0.104533    0.617598
    5.2 B3u                   5.403817    -0.324560    0.133038    0.254215    0.432420    0.377080   -1.643567
    6.2 B3u                   2.840122    -0.052031    0.016039    0.008313    0.127307    0.719006    1.655354
                              1.492703     0.389641   -0.166103   -0.306300   -1.400487   -4.461602    2.387718
                              0.784530     0.505922   -0.285080   -0.886702   -0.505955    6.226316   -8.580390
                              0.412331     0.253444   -0.196871    0.536764    3.530620   -3.033959   12.973874
                              0.216712     0.053377    0.313765    1.436864   -2.620064   -2.069095  -13.123983
                              0.113899     0.005287    0.600814   -0.560326   -0.404750    4.178160    8.988283
                              0.059863     0.001309    0.278010   -0.664182    0.899083   -2.215449   -3.325943
                              0.031462    -0.000050    0.026886   -0.091688    0.172905    0.040468    0.162004
    1.3 B2u   1  2py         70.819882    -0.000490    0.000163    0.000303   -0.000287   -0.003145   -0.009862
    2.3 B2u                  37.221301     0.003813   -0.001343   -0.002446   -0.000323    0.012985    0.049919
    3.3 B2u                  19.562660    -0.025616    0.009623    0.017437    0.019041   -0.015558   -0.176523
    4.3 B2u                  10.281684     0.138740   -0.054556   -0.100369   -0.154508   -0.104533    0.617598
    5.3 B2u                   5.403817    -0.324560    0.133038    0.254215    0.432420    0.377080   -1.643567
    6.3 B2u                   2.840122    -0.052031    0.016039    0.008313    0.127307    0.719006    1.655354
                              1.492703     0.389641   -0.166103   -0.306300   -1.400487   -4.461602    2.387718
                              0.784530     0.505922   -0.285080   -0.886702   -0.505955    6.226316   -8.580390
                              0.412331     0.253444   -0.196871    0.536764    3.530620   -3.033959   12.973874
                              0.216712     0.053377    0.313765    1.436864   -2.620064   -2.069095  -13.123983
                              0.113899     0.005287    0.600814   -0.560326   -0.404750    4.178160    8.988283
                              0.059863     0.001309    0.278010   -0.664182    0.899083   -2.215449   -3.325943
                              0.031462    -0.000050    0.026886   -0.091688    0.172905    0.040468    0.162004
    1.4 B1g   1  3d2-        61.907933    -0.000024    0.000005   -0.000179   -0.001192    0.000666
    2.4 B1g                  32.585172     0.000233   -0.000160    0.000632    0.005075   -0.003231
    3.4 B1g                  17.151169    -0.002245    0.002296    0.000545   -0.011115    0.013751
    4.4 B1g                   9.027499     0.020877   -0.024432   -0.026852   -0.011167   -0.088681
    5.4 B1g                   4.751614    -0.090172    0.112596    0.145145    0.167220    0.432719
                              2.501007     0.023170   -0.039514   -0.035419    0.015095   -0.496755
                              1.316402     0.205899   -0.295539   -0.610909   -1.515591   -1.869884
                              0.692887     0.321552   -0.461445   -0.499162    1.242898    4.519622
                              0.364700     0.323472   -0.080208    1.209396    1.191021   -4.549621
                              0.191960     0.230789    0.499620    0.263814   -2.283323    1.997248
                              0.101038     0.111668    0.418172   -0.665665    0.787104    0.590398
                              0.053181     0.026522    0.115203   -0.302443    0.389678   -0.875841
                              0.027992     0.001600    0.006691   -0.034465    0.120442   -0.121609
    1.5 B1u   1  2pz         70.819882    -0.000490    0.000163    0.000303   -0.000287   -0.003145   -0.009862
    2.5 B1u                  37.221301     0.003813   -0.001343   -0.002446   -0.000323    0.012985    0.049919
    3.5 B1u                  19.562660    -0.025616    0.009623    0.017437    0.019041   -0.015558   -0.176523
    4.5 B1u                  10.281684     0.138740   -0.054556   -0.100369   -0.154508   -0.104533    0.617598
    5.5 B1u                   5.403817    -0.324560    0.133038    0.254215    0.432420    0.377080   -1.643567
    6.5 B1u                   2.840122    -0.052031    0.016039    0.008313    0.127307    0.719006    1.655354
                              1.492703     0.389641   -0.166103   -0.306300   -1.400487   -4.461602    2.387718
                              0.784530     0.505922   -0.285080   -0.886702   -0.505955    6.226316   -8.580390
                              0.412331     0.253444   -0.196871    0.536764    3.530620   -3.033959   12.973874
                              0.216712     0.053377    0.313765    1.436864   -2.620064   -2.069095  -13.123983
                              0.113899     0.005287    0.600814   -0.560326   -0.404750    4.178160    8.988283
                              0.059863     0.001309    0.278010   -0.664182    0.899083   -2.215449   -3.325943
                              0.031462    -0.000050    0.026886   -0.091688    0.172905    0.040468    0.162004
    1.6 B2g   1  3d1+        61.907933    -0.000024    0.000005   -0.000179   -0.001192    0.000666
    2.6 B2g                  32.585172     0.000233   -0.000160    0.000632    0.005075   -0.003231
    3.6 B2g                  17.151169    -0.002245    0.002296    0.000545   -0.011115    0.013751
    4.6 B2g                   9.027499     0.020877   -0.024432   -0.026852   -0.011167   -0.088681
    5.6 B2g                   4.751614    -0.090172    0.112596    0.145145    0.167220    0.432719
                              2.501007     0.023170   -0.039514   -0.035419    0.015095   -0.496755
                              1.316402     0.205899   -0.295539   -0.610909   -1.515591   -1.869884
                              0.692887     0.321552   -0.461445   -0.499162    1.242898    4.519622
                              0.364700     0.323472   -0.080208    1.209396    1.191021   -4.549621
                              0.191960     0.230789    0.499620    0.263814   -2.283323    1.997248
                              0.101038     0.111668    0.418172   -0.665665    0.787104    0.590398
                              0.053181     0.026522    0.115203   -0.302443    0.389678   -0.875841
                              0.027992     0.001600    0.006691   -0.034465    0.120442   -0.121609
    1.7 B3g   1  3d1-        61.907933    -0.000024    0.000005   -0.000179   -0.001192    0.000666
    2.7 B3g                  32.585172     0.000233   -0.000160    0.000632    0.005075   -0.003231
    3.7 B3g                  17.151169    -0.002245    0.002296    0.000545   -0.011115    0.013751
    4.7 B3g                   9.027499     0.020877   -0.024432   -0.026852   -0.011167   -0.088681
    5.7 B3g                   4.751614    -0.090172    0.112596    0.145145    0.167220    0.432719
                              2.501007     0.023170   -0.039514   -0.035419    0.015095   -0.496755
                              1.316402     0.205899   -0.295539   -0.610909   -1.515591   -1.869884
                              0.692887     0.321552   -0.461445   -0.499162    1.242898    4.519622
                              0.364700     0.323472   -0.080208    1.209396    1.191021   -4.549621
                              0.191960     0.230789    0.499620    0.263814   -2.283323    1.997248
                              0.101038     0.111668    0.418172   -0.665665    0.787104    0.590398
                              0.053181     0.026522    0.115203   -0.302443    0.389678   -0.875841
                              0.027992     0.001600    0.006691   -0.034465    0.120442   -0.121609

 NUCLEAR CHARGE:                   14
 NUMBER OF PRIMITIVE AOS:         130
 NUMBER OF SYMMETRY AOS:          117
 NUMBER OF CONTRACTIONS:           49   (  16Ag  +   6B3u +   6B2u +   5B1g +   6B1u +   5B2g +   5B3g +   0Au  )
 NUMBER OF CORE ORBITALS:           4   (   1Ag  +   1B3u +   1B2u +   0B1g +   1B1u +   0B2g +   0B3g +   0Au  )
 NUMBER OF VALENCE ORBITALS:        6   (   3Ag  +   0B3u +   0B2u +   1B1g +   0B1u +   1B2g +   1B3g +   0Au  )


 NUCLEAR REPULSION ENERGY    0.00000000

 EXTRA SYMMETRY OF AOS IN SYMMETRY 1:   1 1 1 1 1 1 2 3 2 3   2 3 2 3 2 3

 Eigenvalues of metric

         1 0.982E+00 0.994E+00 0.994E+00 0.997E+00 0.100E+01 0.100E+01 0.100E+01 0.100E+01
         2 0.999E+00 0.100E+01 0.100E+01 0.100E+01 0.100E+01 0.100E+01
         3 0.999E+00 0.100E+01 0.100E+01 0.100E+01 0.100E+01 0.100E+01
         4 0.994E+00 0.100E+01 0.100E+01 0.100E+01 0.101E+01
         5 0.999E+00 0.100E+01 0.100E+01 0.100E+01 0.100E+01 0.100E+01
         6 0.994E+00 0.100E+01 0.100E+01 0.100E+01 0.101E+01
         7 0.994E+00 0.100E+01 0.100E+01 0.100E+01 0.101E+01


 Contracted 2-electron integrals neglected if value below      1.0D-12
 AO integral compression algorithm  1   Integral accuracy      1.0D-12

     4.719 MB (compressed) written to integral file (100.0%)

     Node minimum: 0.262 MB, node maximum: 0.524 MB


 NUMBER OF SORTED TWO-ELECTRON INTEGRALS:       6870.     BUFFER LENGTH:  32768
 NUMBER OF SEGMENTS:   1  SEGMENT LENGTH:       6870      RECORD LENGTH: 524288

 Memory used in sort:       0.56 MW

 SORT1 READ      325693. AND WROTE        6084. INTEGRALS IN      1 RECORDS. CPU TIME:     0.12 SEC, REAL TIME:     0.55 SEC
 SORT2 READ       96405. AND WROTE      108952. INTEGRALS IN     15 RECORDS. CPU TIME:     0.00 SEC, REAL TIME:     0.13 SEC

 Node minimum:        6447.  Node maximum:        8302. integrals

 OPERATOR DM      FOR CENTER  0  COORDINATES:    0.000000    0.000000    0.000000


 **********************************************************************************************************************************
 DATASETS  * FILE   NREC   LENGTH (MB)   RECORD NAMES
              1      19       19.91       500      610      700      900      950      970     1000      129      960     1100   
                                          VAR    BASINP    GEOM    SYMINP    ZMAT    AOBASIS   BASIS     P2S    ABASIS      S 
                                         1400     1410     1420     1200     1210     1080     1600     1650     1700   
                                           T        V       ECP      H0       H01     AOSYM     SMH    MOLCAS    OPER   

 PROGRAMS   *        TOTAL       INT
 CPU TIMES  *         1.47      1.04
 REAL TIME  *         7.37 SEC
 DISK USED  *        64.22 MB      
 GA USED    *         0.00 MB       (max)       0.00 MB       (current)
 **********************************************************************************************************************************


 PROGRAM * RHF-SCF (OPEN SHELL)       Authors: W. Meyer, H.-J. Werner


 NUMBER OF ELECTRONS:       9+    5-    SPACE SYMMETRY=1    SPIN SYMMETRY: Quintet 
 CONVERGENCE THRESHOLDS:    1.00E-05 (Density)    1.00E-07 (Energy)
 MAX. NUMBER OF ITERATIONS:       60
 INTERPOLATION TYPE:            DIIS
 INTERPOLATION STEPS:              2 (START)      1 (STEP)
 LEVEL SHIFTS:                 -0.60 (CLOSED) -0.30 (OPEN) 

 Number of closed-shell orbitals:    5 (   2   1   1   0   1   0   0 )
 Number of open-shell orbitals:      4 (   1   0   0   1   0   1   1 )


 
 Extra symmetries of mos in symmetry 1:   1   1   3   2

   Atom=W  basis=cc-pVTZ-PP        lmin=0  lmax=2

 Orbital guess generated from atomic densities. Full valence occupancy:    4   1   1   1   1   1   1   0


 Molecular orbital dump at record        4202.2

 ITERATION    DDIFF          GRAD             ENERGY        2-EL.EN.            DIPOLE MOMENTS         DIIS   ORB.
    1      0.000D+00      0.000D+00       -66.65226888     89.934158    0.00000    0.00000    0.00000    0    start
    2      0.000D+00      0.126D-01       -66.68776178     92.176911    0.00000    0.00000    0.00000    1    diag,B
    3      0.108D-01      0.569D-02       -66.69203299     92.357803    0.00000    0.00000    0.00000    2    diag,B
    4      0.302D-02      0.292D-02       -66.69450750     92.550598    0.00000    0.00000    0.00000    3    diag,B
    5      0.381D-02      0.992D-03       -66.69491801     92.564785    0.00000    0.00000    0.00000    4    diag,B
    6      0.187D-02      0.580D-03       -66.69512340     92.525106    0.00000    0.00000    0.00000    5    diag,B
    7      0.187D-02      0.335D-03       -66.69521280     92.511265    0.00000    0.00000    0.00000    6    fixocc
    8      0.143D-02      0.204D-03       -66.69525349     92.508379    0.00000    0.00000    0.00000    7    diag,B
    9      0.120D-02      0.111D-03       -66.69526521     92.521978    0.00000    0.00000    0.00000    8    diag,B
   10      0.720D-03      0.397D-04       -66.69526630     92.523331    0.00000    0.00000    0.00000    9    orth
   11      0.232D-03      0.812D-05       -66.69526633     92.523829    0.00000    0.00000    0.00000    9    diag,B
   12      0.363D-04      0.265D-05       -66.69526634     92.523796    0.00000    0.00000    0.00000    9    diag,B
   13      0.447D-05      0.103D-05       -66.69526634     92.523796    0.00000    0.00000    0.00000    0    orth

 Final alpha occupancy:   3   1   1   1   1   1   1
 Final beta  occupancy:   2   1   1   0   1   0   0

 !RHF STATE 1.1 Energy                -66.695266336605
 Nuclear energy                         0.00000000
 One-electron energy                 -112.95716454
 Two-electron energy                   46.26189820
 Virial quotient                       -2.91921692
 !RHF STATE 1.1 Dipole moment           0.00000000     0.00000000     0.00000000
 Dipole moment /Debye                   0.00000000     0.00000000     0.00000000

 ELECTRON ORBITALS
 =================


   Orb  Occ    Energy  Couls-En    Coefficients

                                   1 1s      1 1s      1 1s      1 1s      1 1s      1 1s      1 3d0     1 3d2+    1 3d0     1 3d2+ 
                                   1 3d0     1 3d2+    1 3d0     1 3d2+    1 3d0     1 3d2+ 

   1.1   2    -3.4287  -14.5233  0.999993  0.000036 -0.000029  0.000015  0.000003 -0.000000  0.002782 -0.000019 -0.002170  0.000005
                                -0.001309  0.000003 -0.000565  0.000001 -0.000171  0.000000

   2.1   2    -0.2624   -4.6877  0.000000  0.997507  0.000002  0.000000 -0.000000  0.000000  0.068798 -0.000280  0.015169 -0.000038
                                -0.001761  0.000007  0.001370 -0.000004 -0.000396  0.000001

   3.1   +    -0.3609   -6.8024  0.000022  0.000346 -0.000054 -0.000005  0.000001 -0.000000 -0.000917  1.000000  0.000000 -0.000001
                                -0.000001  0.000001  0.000000  0.000001 -0.000000  0.000000

   4.1   0     0.0404   -5.5908 -0.002310 -0.069782 -0.015132 -0.010140  0.005470 -0.001211  0.959620  0.000903  0.226326  0.000208
                                -0.123415 -0.000116  0.065711  0.000061 -0.025736 -0.000024

   5.1   0     0.1102   -2.3324 -0.000023 -0.018592  0.796786  0.520064 -0.300192  0.072934  0.016232  0.000061  0.008323  0.000018
                                -0.008606 -0.000006  0.004708  0.000004 -0.002025 -0.000001

                                   1 2px     1 2px     1 2px     1 2px     1 2px     1 2px  

   1.2   2    -1.9230  -11.2673  1.000000  0.000003  0.000002  0.000000 -0.000000 -0.000000

   2.2   0     0.0447   -3.1404 -0.000524  0.888868 -0.378343  0.213593 -0.132868 -0.059130

   3.2   0     0.3168   -2.8214 -0.000629  0.445107  0.587205 -0.511667  0.394514  0.199063

                                   1 2py     1 2py     1 2py     1 2py     1 2py     1 2py  

   1.3   2    -1.9230  -11.2674  1.000000 -0.000004 -0.000003  0.000000  0.000000 -0.000000

   2.3   0     0.0447   -3.1403 -0.000520  0.888857 -0.378360  0.213601 -0.132874 -0.059133

   3.3   0     0.3168   -2.8214 -0.000624  0.445127  0.587192 -0.511665  0.394513  0.199063

                                   1 3d2-    1 3d2-    1 3d2-    1 3d2-    1 3d2- 

   1.4   +    -0.3609   -6.8024  1.000000 -0.000001  0.000001  0.000001  0.000000

   2.4   0     0.2157   -2.3960 -0.003738  0.669989 -0.607976  0.392261 -0.166208

   3.4   0     0.7582   -2.7544 -0.003736  0.689816  0.301270 -0.576680  0.317560

                                   1 2pz     1 2pz     1 2pz     1 2pz     1 2pz     1 2pz  

   1.5   2    -1.9312  -11.2805  0.999999 -0.002227 -0.001568 -0.000202  0.000196 -0.000140

   2.5   0     0.0423   -3.1481  0.000929  0.890365 -0.376606  0.211451 -0.131514 -0.058400

   3.5   0     0.3147   -2.8182  0.001131  0.442196  0.589538 -0.512098  0.393936  0.198685

                                   1 3d1+    1 3d1+    1 3d1+    1 3d1+    1 3d1+ 

   1.6   +    -0.3875   -6.8666  0.999968 -0.014146  0.004316 -0.001047  0.000652

   2.6   0     0.2131   -2.3899  0.008907  0.674622 -0.605252  0.388937 -0.164731

   3.6   0     0.7508   -2.7459  0.003853  0.686563  0.308177 -0.577456  0.316477

                                   1 3d1-    1 3d1-    1 3d1-    1 3d1-    1 3d1- 

   1.7   +    -0.3875   -6.8668  0.999968 -0.014178  0.004322 -0.001048  0.000654

   2.7   0     0.2131   -2.3899  0.008933  0.674632 -0.605246  0.388930 -0.164728

   3.7   0     0.7508   -2.7459  0.003872  0.686556  0.308192 -0.577458  0.316475

 HOMO      3.1    -0.360879 =      -9.8200eV
 LUMO      4.1     0.040428 =       1.1001eV
 LUMO-HOMO         0.401307 =      10.9201eV


 **********************************************************************************************************************************
 DATASETS  * FILE   NREC   LENGTH (MB)   RECORD NAMES
              1      19       19.91       500      610      700      900      950      970     1000      129      960     1100   
                                          VAR    BASINP    GEOM    SYMINP    ZMAT    AOBASIS   BASIS     P2S    ABASIS      S 
                                         1400     1410     1420     1200     1210     1080     1600     1650     1700   
                                           T        V       ECP      H0       H01     AOSYM     SMH    MOLCAS    OPER   

              2       4        2.77       700     1000      520     4202   
                                         GEOM     BASIS   MCVARS     RHF  

 PROGRAMS   *        TOTAL       RHF       INT
 CPU TIMES  *         1.54      0.07      1.04
 REAL TIME  *         7.81 SEC
 DISK USED  *       406.23 MB      
 SF USED    *         0.00 MB      
 GA USED    *         0.00 MB       (max)       0.00 MB       (current)
 **********************************************************************************************************************************


 PROGRAM * POP (Mulliken population analysis)

 
 Density matrix read from record         4202.2  Type=RHF/CHARGE (state 1.1)
 
 Population analysis by basis function type

 Unique atom        s        p        d        f        g    Total    Charge
   1  W       3.99001  6.00000  4.00999  0.00000  0.00000 14.00000  - 0.00000


 **********************************************************************************************************************************
 DATASETS  * FILE   NREC   LENGTH (MB)   RECORD NAMES
              1      19       19.91       500      610      700      900      950      970     1000      129      960     1100   
                                          VAR    BASINP    GEOM    SYMINP    ZMAT    AOBASIS   BASIS     P2S    ABASIS      S 
                                         1400     1410     1420     1200     1210     1080     1600     1650     1700   
                                           T        V       ECP      H0       H01     AOSYM     SMH    MOLCAS    OPER   

              2       4        2.77       700     1000      520     4202   
                                         GEOM     BASIS   MCVARS     RHF  

 PROGRAMS   *        TOTAL       POP       RHF       INT
 CPU TIMES  *         1.55      0.00      0.07      1.04
 REAL TIME  *         8.01 SEC
 DISK USED  *       406.23 MB      
 SF USED    *         0.00 MB      
 GA USED    *         0.00 MB       (max)       0.00 MB       (current)
 **********************************************************************************************************************************


 PROGRAM * MULTI (Direct Multiconfiguration SCF)       Authors: P.J. Knowles, H.-J. Werner (1984)     S.T. Elbert (1988)


 Number of closed-shell orbitals:   5 (   2   1   1   0   1   0   0   0 )
 Number of active  orbitals:        5 (   2   0   0   1   0   1   1   0 )
 Number of external orbitals:      39 (  12   5   5   4   5   4   4   0 )

 State symmetry 1

 Number of electrons:     4    Spin symmetry=Quintet   Space symmetry=1
 Number of states:        2
 Number of CSFs:          2   (2 determinants, 5 intermediate states)

 State symmetry 2

 Number of electrons:     4    Spin symmetry=Quintet   Space symmetry=4
 Number of states:        1
 Number of CSFs:          1   (1 determinants, 5 intermediate states)

 State symmetry 3

 Number of electrons:     4    Spin symmetry=Quintet   Space symmetry=6
 Number of states:        1
 Number of CSFs:          1   (1 determinants, 5 intermediate states)

 State symmetry 4

 Number of electrons:     4    Spin symmetry=Quintet   Space symmetry=7
 Number of states:        1
 Number of CSFs:          1   (1 determinants, 5 intermediate states)

 Molecular orbitals read from record     4202.2  Type=RHF/CANONICAL (state 1.1)
 *** IN SYMMETRY 1 ORBITAL  1 SYMMETRY CONTAMINATION OF 0.697D-02 HAS BEEN REMOVED
 *** IN SYMMETRY 1 ORBITAL  2 SYMMETRY CONTAMINATION OF 0.809D-01 HAS BEEN REMOVED
 *** IN SYMMETRY 1 ORBITAL  3 SYMMETRY CONTAMINATION OF 0.134D-02 HAS BEEN REMOVED
 *** IN SYMMETRY 1 ORBITAL  4 SYMMETRY CONTAMINATION OF 0.700D-01 HAS BEEN REMOVED

 EXTRA SYMMETRY OF MOS IN SYMMETRY 1:   1 1 3 2 1 3 2 1 3 2   1 3 2 1 2 3

 Wavefunction dump at record             5202.2

 Convergence thresholds  0.10E-01 (gradient)  0.10E-05 (energy)  0.10E-02 (step length)

 Weight factors for state symmetry  1:    0.20000   0.20000
 Weight factors for state symmetry  2:    0.20000
 Weight factors for state symmetry  3:    0.20000
 Weight factors for state symmetry  4:    0.20000

 Number of orbital rotations:       79   (     4 Core/Active     39 Core/Virtual   0 Active/Active     36 Active/Virtual)
 Total number of variables:         86


 ITER. MIC  NCI  NEG     ENERGY(VAR)     ENERGY(PROJ)   ENERGY CHANGE     GRAD(0)  GRAD(ORB)   GRAD(CI)     STEP       TIME

   1   29   16    0     -66.66880830     -66.69385177   -0.02504347    0.11071622 0.00000000 0.00000000  0.27D+00      0.04
   2   23   20    0     -66.69377804     -66.69381375   -0.00003571    0.00694292 0.00000000 0.00000000  0.74D-02      0.09
   3   23   20    0     -66.69381380     -66.69381380   -0.00000000    0.00001427 0.00000000 0.00000000  0.15D-04      0.13

 ** WVFN ****  CONVERGENCE REACHED, FINAL GRADIENT:  0.74D-10



 Results for state 1.1
 =====================

 !MCSCF STATE 1.1 Energy              -66.693813797989
 Nuclear energy                         0.00000000
 Kinetic energy                        22.84224168
 One electron energy                 -112.94660234
 Two electron energy                   46.25278854
 Virial ratio                           3.91975782

 !MCSCF STATE 1.1 Dipole moment         0.00000000     0.00000000     0.00000000
 Dipole moment /Debye                   0.00000000     0.00000000     0.00000000

 Results for state 2.1
 =====================

 !MCSCF STATE 2.1 Energy              -66.693813797989
 Nuclear energy                         0.00000000
 Kinetic energy                        22.84224168
 One electron energy                 -112.94660234
 Two electron energy                   46.25278854
 Virial ratio                           3.91975782

 !MCSCF STATE 2.1 Dipole moment         0.00000000     0.00000000     0.00000000
 Dipole moment /Debye                   0.00000000     0.00000000     0.00000000



 Results for state 1.4
 =====================

 !MCSCF STATE 1.4 Energy              -66.693813797989
 Nuclear energy                         0.00000000
 Kinetic energy                        22.84224168
 One electron energy                 -112.94660234
 Two electron energy                   46.25278854
 Virial ratio                           3.91975782

 !MCSCF STATE 1.4 Dipole moment         0.00000000     0.00000000     0.00000000
 Dipole moment /Debye                   0.00000000     0.00000000     0.00000000



 Results for state 1.6
 =====================

 !MCSCF STATE 1.6 Energy              -66.693813797989
 Nuclear energy                         0.00000000
 Kinetic energy                        22.84224168
 One electron energy                 -112.94660234
 Two electron energy                   46.25278854
 Virial ratio                           3.91975782

 !MCSCF STATE 1.6 Dipole moment         0.00000000     0.00000000     0.00000000
 Dipole moment /Debye                   0.00000000     0.00000000     0.00000000



 Results for state 1.7
 =====================

 !MCSCF STATE 1.7 Energy              -66.693813797989
 Nuclear energy                         0.00000000
 Kinetic energy                        22.84224168
 One electron energy                 -112.94660234
 Two electron energy                   46.25278854
 Virial ratio                           3.91975782

 !MCSCF STATE 1.7 Dipole moment         0.00000000     0.00000000     0.00000000
 Dipole moment /Debye                   0.00000000     0.00000000     0.00000000

 State-averaged charge density matrix saved on record  5202.2 (density set 1)


 NATURAL ORBITALS (state averaged)
 =================================

   Orb     Occ        Energy       Coefficients

                                   1 1s      1 1s      1 1s      1 1s      1 1s      1 1s      1 3d0     1 3d2+    1 3d0     1 3d2+ 
                                   1 3d0     1 3d2+    1 3d0     1 3d2+    1 3d0     1 3d2+ 

   1.1  2.00000    -3.429660     1.000000  0.000000  0.000000  0.000000  0.000000  0.000000  0.000000  0.000000  0.000000  0.000000
                                 0.000000  0.000000  0.000000  0.000000  0.000000  0.000000

   2.1  2.00000    -0.262193     0.000196  0.999991  0.000510  0.000040 -0.000044 -0.000002  0.000000  0.000000  0.000000  0.000000
                                 0.000000  0.000000  0.000000  0.000000  0.000000  0.000000

   3.1  0.80000    -0.057513     0.000000  0.000000  0.000000  0.000000  0.000000  0.000000  1.000011  0.000000 -0.007423  0.000000
                                 0.002196  0.000000 -0.000567  0.000000  0.000340  0.000000

   4.1  0.80000    -0.057513     0.000000  0.000000  0.000000  0.000000  0.000000  0.000000  0.000000  1.000011  0.000000 -0.007423
                                 0.000000  0.002196  0.000000 -0.000567  0.000000  0.000340

                                   1 2px     1 2px     1 2px     1 2px     1 2px     1 2px  

   1.2  2.00000    -1.926697     1.000000 -0.000801 -0.000565 -0.000075  0.000067 -0.000048

                                   1 2py     1 2py     1 2py     1 2py     1 2py     1 2py  

   1.3  2.00000    -1.926697     1.000000 -0.000801 -0.000565 -0.000075  0.000067 -0.000048

                                   1 3d2-    1 3d2-    1 3d2-    1 3d2-    1 3d2- 

   1.4  0.80000    -0.057513     1.000011 -0.007423  0.002196 -0.000567  0.000340

                                   1 2pz     1 2pz     1 2pz     1 2pz     1 2pz     1 2pz  

   1.5  2.00000    -1.926697     1.000000 -0.000801 -0.000565 -0.000075  0.000067 -0.000048

                                   1 3d1+    1 3d1+    1 3d1+    1 3d1+    1 3d1+ 

   1.6  0.80000    -0.057513     1.000011 -0.007423  0.002196 -0.000567  0.000340

                                   1 3d1-    1 3d1-    1 3d1-    1 3d1-    1 3d1- 

   1.7  0.80000    -0.057513     1.000011 -0.007423  0.002196 -0.000567  0.000340
 

 EXTRA SYMMETRY OF MOS IN SYMMETRY 1:   1 1 2 3 1 3 2 1 3 2   1 3 2 1 2 3

 Natural orbital dump (state averaged) at molpro section  5202.2    (Orbital set 2)


 CI vector for state symmetry 1
 ==============================

 0a a a a          0.0000000   1.0000000
 a0 a a a          1.0000000   0.0000000

 TOTAL ENERGIES                       -66.69381380   -66.69381380

 CI vector for state symmetry 2
 ==============================

 aa 0 a a          1.0000000

 TOTAL ENERGIES                       -66.69381380

 CI vector for state symmetry 3
 ==============================

 aa a 0 a          1.0000000

 TOTAL ENERGIES                       -66.69381380

 CI vector for state symmetry 4
 ==============================

 aa a a 0          1.0000000

 TOTAL ENERGIES                       -66.69381380



 **********************************************************************************************************************************
 DATASETS  * FILE   NREC   LENGTH (MB)   RECORD NAMES
              1      20       20.14       500      610      700      900      950      970     1000      129      960     1100   
                                          VAR    BASINP    GEOM    SYMINP    ZMAT    AOBASIS   BASIS     P2S    ABASIS      S 
                                         1400     1410     1420     1200     1210     1080     1600     1650     1700     1380   
                                           T        V       ECP      H0       H01     AOSYM     SMH    MOLCAS    OPER     JKOP   

              2       5        5.27       700     1000      520     4202     5202   
                                         GEOM     BASIS   MCVARS     RHF     MCSCF   

 PROGRAMS   *        TOTAL     MULTI       POP       RHF       INT
 CPU TIMES  *         1.96      0.41      0.00      0.07      1.04
 REAL TIME  *         9.99 SEC
 DISK USED  *       406.23 MB      
 SF USED    *        12.57 MB      
 GA USED    *         0.00 MB       (max)       0.00 MB       (current)
 **********************************************************************************************************************************


 PROGRAM * RHF-SCF (OPEN SHELL)       Authors: W. Meyer, H.-J. Werner


 NUMBER OF ELECTRONS:       9+    5-    SPACE SYMMETRY=1    SPIN SYMMETRY: Quintet 
 CONVERGENCE THRESHOLDS:    1.00E-05 (Density)    1.00E-07 (Energy)
 MAX. NUMBER OF ITERATIONS:        0
 INTERPOLATION TYPE:            DIIS
 INTERPOLATION STEPS:              2 (START)      1 (STEP)
 LEVEL SHIFTS:                 -0.60 (CLOSED) -0.30 (OPEN) 

 Number of closed-shell orbitals:    5 (   2   1   1   0   1   0   0 )
 Number of open-shell orbitals:      4 (   1   0   0   1   0   1   1 )


 Molecular orbitals read from record     5202.2  Type=MCSCF/NATURAL (state averaged)

 Molecular orbital dump at record        2101.2

 ITERATION    DDIFF          GRAD             ENERGY        2-EL.EN.            DIPOLE MOMENTS         DIIS   ORB.
    1      0.000D+00      0.000D+00       -66.69381380     92.505577    0.00000    0.00000    0.00000    0    start

 Final alpha occupancy:   3   1   1   1   1   1   1
 Final beta  occupancy:   2   1   1   0   1   0   0

 !RHF STATE 1.1 Energy                -66.693813797989
 Nuclear energy                         0.00000000
 One-electron energy                 -112.94660234
 Two-electron energy                   46.25278854
 Virial quotient                       -2.91975782
 !RHF STATE 1.1 Dipole moment           0.00000000     0.00000000     0.00000000
 Dipole moment /Debye                   0.00000000     0.00000000     0.00000000

 ELECTRON ORBITALS
 =================


   Orb  Occ    Energy  Couls-En    Coefficients

                                   1 1s      1 1s      1 1s      1 1s      1 1s      1 1s      1 3d0     1 3d2+    1 3d0     1 3d2+ 
                                   1 3d0     1 3d2+    1 3d0     1 3d2+    1 3d0     1 3d2+ 

   1.1   2    -3.4297  -14.5244  1.000000  0.000000  0.000000  0.000000  0.000000  0.000000  0.000000  0.000000  0.000000  0.000000
                                 0.000000  0.000000  0.000000  0.000000  0.000000  0.000000

   2.1   2    -0.2622   -4.6794  0.000196  0.999991  0.000510  0.000040 -0.000044 -0.000002  0.000000  0.000000  0.000000  0.000000
                                 0.000000  0.000000  0.000000  0.000000  0.000000  0.000000

   3.1   +    -0.0575   -6.5190  0.000000  0.000000  0.000000  0.000000  0.000000  0.000000  1.000011  0.000000 -0.007423  0.000000
                                 0.002196  0.000000 -0.000567  0.000000  0.000340  0.000000

                                   1 2px     1 2px     1 2px     1 2px     1 2px     1 2px  

   1.2   2    -1.9267  -11.2728  1.000000 -0.000801 -0.000565 -0.000075  0.000067 -0.000048

                                   1 2py     1 2py     1 2py     1 2py     1 2py     1 2py  

   1.3   2    -1.9267  -11.2728  1.000000 -0.000801 -0.000565 -0.000075  0.000067 -0.000048

                                   1 3d2-    1 3d2-    1 3d2-    1 3d2-    1 3d2- 

   1.4   +    -0.0575   -6.5190  1.000011 -0.007423  0.002196 -0.000567  0.000340

                                   1 2pz     1 2pz     1 2pz     1 2pz     1 2pz     1 2pz  

   1.5   2    -1.9267  -11.2728  1.000000 -0.000801 -0.000565 -0.000075  0.000067 -0.000048

                                   1 3d1+    1 3d1+    1 3d1+    1 3d1+    1 3d1+ 

   1.6   +    -0.0575   -6.5190  1.000011 -0.007423  0.002196 -0.000567  0.000340

                                   1 3d1-    1 3d1-    1 3d1-    1 3d1-    1 3d1- 

   1.7   +    -0.0575   -6.5190  1.000011 -0.007423  0.002196 -0.000567  0.000340

 HOMO      3.1    -0.057513 =      -1.5650eV
 LUMO      4.1    -0.057513 =      -1.5650eV
 LUMO-HOMO         0.000000 =       0.0000eV


 **********************************************************************************************************************************
 DATASETS  * FILE   NREC   LENGTH (MB)   RECORD NAMES
              1      20       20.14       500      610      700      900      950      970     1000      129      960     1100   
                                          VAR    BASINP    GEOM    SYMINP    ZMAT    AOBASIS   BASIS     P2S    ABASIS      S 
                                         1400     1410     1420     1200     1210     1080     1600     1650     1700     1380   
                                           T        V       ECP      H0       H01     AOSYM     SMH    MOLCAS    OPER     JKOP   

              2       6        7.79       700     1000      520     4202     5202     2101   
                                         GEOM     BASIS   MCVARS     RHF     MCSCF     RHF  

 PROGRAMS   *        TOTAL       RHF     MULTI       POP       RHF       INT
 CPU TIMES  *         2.20      0.24      0.41      0.00      0.07      1.04
 REAL TIME  *        10.74 SEC
 DISK USED  *       406.23 MB      
 SF USED    *        12.57 MB      
 GA USED    *         0.00 MB       (max)       0.00 MB       (current)
 **********************************************************************************************************************************


 PROGRAM * CI (Multireference internally contracted CI)     Authors: H.-J. Werner, P.J. Knowles, 1987


 Convergence thresholds:  THRVAR = 1.00D-08  THRDEN = 1.00D-06

 Number of optimized states:  1  Roots:   1
 Number of reference states:  1  Roots:   1

 Reference symmetry:                   1   Quintet 
 Number of electrons:                 14
 Maximum number of shells:             2
 Maximum number of spin couplings:     5

 Reference space:        1 conf        1 CSFs
 N elec internal:        5 conf        5 CSFs
 N-1 el internal:       21 conf       25 CSFs
 N-2 el internal:       11 conf       31 CSFs

 Number of electrons in valence space:                      6
 Maximum number of open shell orbitals in reference space:  4
 Maximum number of open shell orbitals in internal spaces:  6


 Number of core orbitals:           4 (   1   1   1   0   1   0   0 )
 Number of closed-shell orbitals:   1 (   1   0   0   0   0   0   0 )
 Number of active  orbitals:        4 (   1   0   0   1   0   1   1 )
 Number of external orbitals:      40 (  13   5   5   4   5   4   4 )

 Molecular orbitals read from record     2101.2  Type=RHF/CANONICAL (state 1.1)

 Coulomb and exchange operators available. No transformation done.

 Number of p-space configurations:   1

 Reference wavefunction optimized for reference space (refopt=1)

 State     Reference Energy 
   1         -66.69381380

 Number of blocks in overlap matrix:    15   Smallest eigenvalue:  0.10D+01
 Number of N-2 electron functions:      15
 Number of N-1 electron functions:      25

 Number of internal configurations:                    2
 Number of singly external configurations:           163
 Number of doubly external configurations:          1574
 Total number of contracted configurations:         1739
 Total number of uncontracted configurations:       3458

 Diagonal Coupling coefficients finished.               Storage:    1871 words, CPU-Time:      0.00 seconds.
 Energy denominators for pairs finished in 1 passes.    Storage:    3744 words, CPU-time:      0.00 seconds.

  ITER. STATE  ROOT     SQ.NORM     CORR.ENERGY   TOTAL ENERGY   ENERGY CHANGE       DEN1      VAR(S)    VAR(P)      TIME
    1     1     1     1.00000000     0.00000000   -66.69381380     0.00000000    -0.05074530  0.11D-01  0.52D-01     0.11
    2     1     1     1.08440267    -0.05973870   -66.75355250    -0.05973870    -0.00233299  0.10D-02  0.15D-02     0.11
    3     1     1     1.10731713    -0.06300001   -66.75681380    -0.00326131    -0.00018682  0.58D-04  0.19D-03     0.11
    4     1     1     1.11116369    -0.06320736   -66.75702116    -0.00020736    -0.00001743  0.78D-05  0.17D-04     0.12
    5     1     1     1.11132180    -0.06322835   -66.75704215    -0.00002099    -0.00000140  0.42D-06  0.11D-05     0.13
    6     1     1     1.11130795    -0.06323020   -66.75704400    -0.00000186    -0.00000009  0.32D-07  0.70D-07     0.13
    7     1     1     1.11135810    -0.06323032   -66.75704412    -0.00000012    -0.00000001  0.25D-08  0.37D-08     0.14


 =====================================
 Analysis of CPU times by interactions
 =====================================

       I      S      P

 I   0.0%
 S   7.1%   0.0%
 P   7.1%   7.1%   0.0%

 Initialization:  71.4%
 Other:            7.1%

 Total CPU:        0.1 seconds
 =====================================



 Reference coefficients greater than 0.0500000
 =============================================
 2////           0.9434030

  Internal coefficients greater than 0.0500000
 =============================================
 /2///           0.0989480

 Coefficients of singly external configurations greater than 0.0500000
 =====================================================================

 ///\/   4.1    -0.0755705
 //\//   4.1     0.0585522
 \////   5.1    -0.0522103

 Coefficients of doubly external configurations greater than 0.0500000
 =====================================================================

 PAIR    I     J   ->   K     L     NP  SYM  REF     COEFFICIENTS

   1    2.1   2.1      2.2   2.2     1   1    1   -0.08925345
   1    2.1   2.1      2.3   2.3     1   1    1   -0.08925078
   2    3.1   2.1      4.1   4.1     1   1    1    0.08428718
   1    2.1   2.1      2.5   2.5     1   1    1   -0.07695040
   1    2.1   2.1      4.1   4.1     1   1    1   -0.06407361



 RESULTS FOR STATE 1.1
 =====================

 Coefficient of reference function:   C(0) = 0.94340303 (fixed)   0.94340303 (relaxed)

 Energy contributions of configuration classes

 CLASS          SQ.NORM        ECORR1        ECORR2
 +++++++++++++++++++++++++++++++++++++++++++++++++++
 Internals    0.01100067   -0.00139333   -0.00185914
 Singles      0.02068342   -0.00593136   -0.00644267
 Pairs        0.09189970   -0.05590563   -0.05492851
 Total        1.12358379   -0.06323032   -0.06323032
 +++++++++++++++++++++++++++++++++++++++++++++++++++


 Reference energy                     -66.69381380
 Nuclear energy                         0.00000000
 Kinetic energy                        22.80529825
 One electron energy                 -112.82198922
 Two electron energy                   46.06494511
 Virial quotient                       -2.92726030
 Correlation energy                    -0.06323032
 !CI(SD) STATE 1.1 Energy             -66.757044117271

 Properties without orbital relaxation:

 !CI(SD) STATE 1.1 Dipole moment        0.00000000     0.00000000     0.00000000
 Dipole moment /Debye                   0.00000000     0.00000000     0.00000000

 Cluster corrected energies           -66.76485836 (Davidson, fixed reference)
 Cluster corrected energies           -66.76485836 (Davidson, relaxed reference)

 Cluster corrected energies           -66.75704412 (Pople, fixed reference)
 Cluster corrected energies           -66.75704412 (Pople, relaxed reference)


 Natural orbitals
 ================

   Orb     Occ           Coefficients

                         1 1s      1 1s      1 1s      1 1s      1 1s      1 1s      1 3d0     1 3d2+    1 3d0     1 3d2+ 
                         1 3d0     1 3d2+    1 3d0     1 3d2+    1 3d0     1 3d2+ 

   1.1    2.0000000    1.000000  0.000000  0.000000  0.000000  0.000000  0.000000  0.000000  0.000000  0.000000  0.000000
                       0.000000  0.000000  0.000000  0.000000  0.000000  0.000000

   2.1    1.8648688    0.000195  0.995122 -0.017383 -0.006288  0.002659 -0.000130 -0.098927  0.000006 -0.015360  0.000000
                       0.002059 -0.000000 -0.001153  0.000000  0.000387 -0.000000

   3.1    0.9845010    0.000019  0.099219 -0.008395 -0.001359  0.000338 -0.000041  0.994889 -0.000012  0.012231 -0.000001
                      -0.004849  0.000000  0.001003 -0.000000 -0.000572  0.000000

   4.1    0.0347732   -0.000000 -0.000005 -0.000048 -0.000004  0.000001 -0.000000  0.000012  0.984819  0.000010  0.167999
                      -0.000003 -0.007747  0.000001  0.003994 -0.000001 -0.002599

   5.1    0.0118848   -0.000000 -0.000103  0.990857  0.000311 -0.000296  0.000166  0.009235  0.000047 -0.132820  0.000016
                       0.019994  0.000000 -0.009136  0.000000  0.003057 -0.000000

   6.1    0.0029526    0.000003  0.014207  0.132797 -0.015305  0.003596 -0.001875 -0.018169  0.000000  0.990710 -0.000018
                       0.001273  0.000001  0.014303 -0.000001 -0.003279  0.000000

   7.1    0.0004559    0.000000  0.000001 -0.000005 -0.000258  0.000008 -0.000002 -0.000002 -0.172654  0.000015  0.973908
                      -0.000031 -0.151288  0.000004  0.015192 -0.000004 -0.020743

   8.1    0.0003860    0.000000 -0.000140 -0.000190  0.996073  0.001340 -0.001199  0.000881 -0.000040  0.015300  0.000253
                       0.086485 -0.000040 -0.005161  0.000003  0.009342 -0.000005

   9.1    0.0001427   -0.000000 -0.001580 -0.020089 -0.086537  0.008558 -0.000887  0.004839  0.000001  0.000199  0.000004
                       0.995989 -0.000028 -0.003280 -0.000001  0.001791 -0.000000

  10.1    0.0000245    0.000000  0.000263  0.000176 -0.001487  0.995475  0.009605 -0.000120  0.000005 -0.004980 -0.000049
                      -0.008232 -0.000268  0.093757 -0.000029  0.001553  0.000013

  11.1    0.0000214    0.000000  0.000000 -0.000002 -0.000002  0.000268  0.000011 -0.000000 -0.018597 -0.000000  0.145217
                       0.000025  0.976816  0.000070  0.145921 -0.000003 -0.055979

  12.1    0.0000130    0.000000  0.000802  0.006999  0.004936 -0.093953  0.014411 -0.000751  0.000000 -0.014763 -0.000007
                       0.004593 -0.000039  0.994638 -0.000034  0.036825  0.000005

  13.1    0.0000057   -0.000000  0.000000 -0.000001 -0.000001  0.000013  0.000075 -0.000000 -0.001459  0.000001  0.038159
                       0.000003  0.143685 -0.000028 -0.988428  0.000012  0.030107

  14.1    0.0000040   -0.000000 -0.000319  0.000019  0.001379 -0.010724  0.989785  0.000101  0.000000  0.002713 -0.000002
                       0.000592 -0.000018 -0.020256  0.000075  0.140914 -0.000001

  15.1    0.0000022   -0.000000 -0.000265 -0.002846 -0.009677  0.003446 -0.141531  0.000639  0.000000  0.003733  0.000001
                      -0.002923  0.000004 -0.034155  0.000002  0.989279 -0.000035

  16.1    0.0000010    0.000000  0.000000 -0.000000 -0.000001  0.000003 -0.000006 -0.000000 -0.001907  0.000000  0.027680
                       0.000001  0.047303 -0.000003  0.038339  0.000034  0.997759

                         1 2px     1 2px     1 2px     1 2px     1 2px     1 2px  

   1.2    2.0000000    1.000000 -0.000801 -0.000565 -0.000075  0.000067 -0.000048

   2.2    0.0400239    0.000001  1.000000 -0.000018 -0.000007  0.000029  0.000015

   3.2    0.0004236   -0.000000  0.000017  1.000000  0.000404 -0.000449 -0.000315

   4.2    0.0000235   -0.000001  0.000006 -0.000402  0.999990  0.004082  0.001618

   5.2    0.0000027   -0.000005  0.000030 -0.000451  0.004082 -0.999992 -0.000094

   6.2    0.0000006    0.000014 -0.000016  0.000315 -0.001617 -0.000101  0.999999

                         1 2py     1 2py     1 2py     1 2py     1 2py     1 2py  

   1.3    2.0000000    1.000000 -0.000801 -0.000565 -0.000075  0.000067 -0.000048

   2.3    0.0400222    0.000001  1.000000 -0.000016 -0.000008  0.000030  0.000015

   3.3    0.0004236   -0.000000  0.000015  1.000000  0.000410 -0.000450 -0.000315

   4.3    0.0000235   -0.000001  0.000007 -0.000407  0.999990  0.004091  0.001621

   5.3    0.0000027   -0.000005  0.000030 -0.000451  0.004091 -0.999992 -0.000086

   6.3    0.0000006    0.000014 -0.000016  0.000316 -0.001620 -0.000093  0.999999

                         1 3d2-    1 3d2-    1 3d2-    1 3d2-    1 3d2- 

   1.4    0.9904491    1.000015 -0.005510  0.000047 -0.000082  0.000194

   2.4    0.0027276    0.000000  1.000000  0.000114  0.000151 -0.000222

   3.4    0.0001735   -0.000022 -0.000115  0.999985  0.004684 -0.002761

   4.4    0.0000157    0.000047 -0.000148 -0.004658  0.999946  0.009300

   5.4    0.0000028   -0.000079  0.000224  0.002804 -0.009286  0.999953

                         1 2pz     1 2pz     1 2pz     1 2pz     1 2pz     1 2pz  

   1.5    2.0000000    1.000000 -0.000801 -0.000565 -0.000075  0.000067 -0.000048

   2.5    0.0379288    0.000001  0.999910  0.013381 -0.000778  0.000730  0.000046

   3.5    0.0004910   -0.000000 -0.013335  0.998856  0.045849  0.002651 -0.000638

   4.5    0.0000261   -0.000001  0.001343 -0.045909  0.996955  0.062959  0.002832

   5.5    0.0000032   -0.000004  0.000776 -0.000189  0.062758 -0.996445  0.056200

   6.5    0.0000007    0.000015 -0.000103  0.000778 -0.006331  0.055912  0.998415

                         1 3d1+    1 3d1+    1 3d1+    1 3d1+    1 3d1+ 

   1.6    0.9902377    0.999904  0.008966 -0.003553  0.000767 -0.000384

   2.6    0.0031941   -0.014506  0.999838 -0.005147  0.015188 -0.004017

   3.6    0.0001506    0.003508  0.005280  0.999956 -0.005547  0.004057

   4.6    0.0000141   -0.000556 -0.015113  0.005577  0.999790  0.012646

   5.6    0.0000025    0.000434  0.004189 -0.004150 -0.012560  0.999904

                         1 3d1-    1 3d1-    1 3d1-    1 3d1-    1 3d1- 

   1.7    0.9902376    0.999904  0.008965 -0.003553  0.000767 -0.000384

   2.7    0.0031940   -0.014505  0.999838 -0.005141  0.015185 -0.004015

   3.7    0.0001506    0.003508  0.005274  0.999956 -0.005543  0.004057

   4.7    0.0000141   -0.000556 -0.015110  0.005573  0.999790  0.012666

   5.7    0.0000025    0.000434  0.004188 -0.004150 -0.012581  0.999903

 Electronic charge:   14.000000


 **********************************************************************************************************************************
 DATASETS  * FILE   NREC   LENGTH (MB)   RECORD NAMES
              1      20       20.14       500      610      700      900      950      970     1000      129      960     1100   
                                          VAR    BASINP    GEOM    SYMINP    ZMAT    AOBASIS   BASIS     P2S    ABASIS      S 
                                         1400     1410     1420     1200     1210     1080     1600     1650     1700     1380   
                                           T        V       ECP      H0       H01     AOSYM     SMH    MOLCAS    OPER     JKOP   

              2       6        7.79       700     1000      520     4202     5202     2101   
                                         GEOM     BASIS   MCVARS     RHF     MCSCF     RHF  

 PROGRAMS   *        TOTAL        CI       RHF     MULTI       POP       RHF       INT
 CPU TIMES  *         2.64      0.43      0.24      0.41      0.00      0.07      1.04
 REAL TIME  *        12.23 SEC
 DISK USED  *       406.23 MB      
 SF USED    *        12.57 MB      
 GA USED    *         0.00 MB       (max)       0.00 MB       (current)
 **********************************************************************************************************************************

 CI/USERDEF energy=    -66.757044117271

        CI              RHF-SCF         MULTI           RHF-SCF 
    -66.75704412    -66.69381380    -66.69381380    -66.69526634
 **********************************************************************************************************************************
 Molpro calculation terminated
 Variable memory released
