
 Primary working directories    : /global/cscratch1/sd/bkincaid
 Secondary working directories  : /global/cscratch1/sd/bkincaid
 Wavefunction directory         : /global/homes/b/bkincaid/wfu/
 Main file repository           : /global/cscratch1/sd/bkincaid/

 SHA1      : 19cd028119e0e09f93f0674bd8af7968d9b3eff6
 NAME      : 2015.1.36
 ARCHNAME  : linux/x86_64
 FC        : /opt/cray/pe/craype/2.5.14/bin/ftn
 BLASLIB   : -L/opt/intel/compilers_and_libraries_2018.1.163/linux/mkl/lib/intel64 -Wl,-_start-group -lmkl_intel_ilp64 -lmkl_intel_thread -lmkl_core -Wl,-_end-group -liomp5
 id        : lbl

 Nodes     nprocs
 nid00746    11
 Number of processes for MPI-2 version of Molpro:   nprocs(total)=   12   nprocs(compute)=   11   nprocs(helper)=    1

 Using customized tuning parameters: mindgm=7; mindgv=16; mindgc=1; mindgr=1; noblas=0; minvec=7
 default implementation of scratch files=sf  

 ***,Calculation for Pt atom, singlet and triplet
 memory,1024,m
 geometry={
 1
 Pt
 Pt  0.0 0.0 0.0
 }
 
 basis={
 Including file /global/u1/b/bkincaid/molpro/Pt/atoms/LANL2/basis/ecp
 Including file /global/u1/b/bkincaid/molpro/Pt/atoms/LANL2/basis/aug-cc-pwCVTZ.basis
 }
 
 Including file /global/u1/b/bkincaid/molpro/Pt/atoms/LANL2/basis/states.proc
 
 do i=1,15
     if (i.eq.1) then
         Idten
     else if (i.eq.2) then
         EAs2d9
     else if (i.eq.3) then
         Is1d9
     else if (i.eq.4) then
         Is2d8
     else if (i.eq.5) then
         IId9
     else if (i.eq.6) then
         IIs1d8
     else if (i.eq.7) then
         IIId8
     else if (i.eq.8) then
         IVd7
     else if (i.eq.9) then
         Vd6
     else if (i.eq.10) then
         VId5
     else if (i.eq.11) then
         XIKr
     else if (i.eq.12) then
         XIVp3
     else if (i.eq.13) then
         XVIIs2
     else if (i.eq.14) then
         Vd5f1
     else if (i.eq.15) then
         Xf1
     endif
     scf(i)=energy
     _CC_NORM_MAX=2.0
    {rccsd(t),maxit=100;core}
     ccsd(i)=energy
 enddo
 
 table,scf,ccsd
 type,csv
 save

 Variables initialized (889), CPU time= 0.01 sec
 Commands  initialized (702), CPU time= 0.01 sec, 572 directives.
 Default parameters read. Elapsed time= 0.23 sec

 Checking input...
 Passed
1


                                         ***  PROGRAM SYSTEM MOLPRO  ***
                                       Copyright, TTI GmbH Stuttgart, 2015
                                    Version 2015.1 linked Dec 29 2018 15:55:43


 **********************************************************************************************************************************
 LABEL *   Calculation for Pt atom, singlet and triplet                                  
  64 bit mpp version                                                                     DATE: 27-Jul-21          TIME: 06:13:34  
 **********************************************************************************************************************************

 SHA1:             19cd028119e0e09f93f0674bd8af7968d9b3eff6
 **********************************************************************************************************************************

Geometry recognized as XYZ


 Variable memory set to 1024000000 words,  buffer space   230000 words

 SETTING BASIS          =    USERDEF

 DO I                   =         1.00000000   

 Running procedure=IDTEN


 Recomputing integrals since basis changed


 Using spherical harmonics



 PROGRAM * SEWARD (Integral evaluation for generally contracted gaussian basis sets)     Author: Roland Lindh, 1990

 Geometry written to block  1 of record 700

 Orientation using atomic masses  
 Molecule type: Atom
 Symmetry elements: X,Y,Z
 Rotational constants:       0.0000000      0.0000000      0.0000000 GHz  (calculated with average atomic masses)

 Point group  D2h 



 ATOMIC COORDINATES

 NR  ATOM    CHARGE       X              Y              Z

   1  PT     18.00    0.000000000    0.000000000    0.000000000

 NUCLEAR CHARGE:                   18
 NUMBER OF PRIMITIVE AOS:         434
 NUMBER OF SYMMETRY AOS:          347
 NUMBER OF CONTRACTIONS:          347   (  78Ag  +  60B3u +  60B2u +  24B1g +  60B1u +  24B2g +  24B3g +  17Au  )
 NUMBER OF CORE ORBITALS:           4   (   1Ag  +   1B3u +   1B2u +   0B1g +   1B1u +   0B2g +   0B3g +   0Au  )
 NUMBER OF VALENCE ORBITALS:        6   (   3Ag  +   0B3u +   0B2u +   1B1g +   0B1u +   1B2g +   1B3g +   0Au  )


 NUCLEAR REPULSION ENERGY    0.00000000

 EXTRA SYMMETRY OF AOS IN SYMMETRY 1:   1 1 1 1 1 1 1 1 1 1   1 1 1 1 1 1 1 1 1 1   1 1 1 1 1 1 1 1 1 1   1 1 1 2 3 2 3 2 3 2
                                        3 2 3 2 3 2 3 2 3 2   3 2 3 2 3 2 3 2 3 2   3 2 3 2 3 2 3 2 3 4   5 6 4 5 6 4 5 6
 EXTRA SYMMETRY OF AOS IN SYMMETRY 2:   1 1 1 1 1 1 1 1 1 1   1 1 1 1 1 1 1 1 1 1   1 1 1 1 1 1 2 3 2 3   2 3 2 3 2 3 2 3 2 3
                                        2 3 2 3 2 3 2 3 2 3   2 3 2 3 2 3 2 3 2 3
 EXTRA SYMMETRY OF AOS IN SYMMETRY 3:   1 1 1 1 1 1 1 1 1 1   1 1 1 1 1 1 1 1 1 1   1 1 1 1 1 1 2 3 2 3   2 3 2 3 2 3 2 3 2 3
                                        2 3 2 3 2 3 2 3 2 3   2 3 2 3 2 3 2 3 2 3
 EXTRA SYMMETRY OF AOS IN SYMMETRY 4:   1 1 1 1 1 1 1 1 1 1   1 1 1 1 1 1 1 1 2 3   2 3 2 3
 EXTRA SYMMETRY OF AOS IN SYMMETRY 5:   1 1 1 1 1 1 1 1 1 1   1 1 1 1 1 1 1 1 1 1   1 1 1 1 1 1 2 3 2 3   2 3 2 3 2 3 2 3 2 3
                                        2 3 2 3 2 3 2 3 2 3   2 3 2 3 2 3 2 3 2 3
 EXTRA SYMMETRY OF AOS IN SYMMETRY 6:   1 1 1 1 1 1 1 1 1 1   1 1 1 1 1 1 1 1 2 3   2 3 2 3
 EXTRA SYMMETRY OF AOS IN SYMMETRY 7:   1 1 1 1 1 1 1 1 1 1   1 1 1 1 1 1 1 1 2 3   2 3 2 3

 Eigenvalues of metric

         1 0.632E-05 0.391E-04 0.662E-04 0.117E-03 0.187E-03 0.332E-03 0.599E-03 0.825E-03
         2 0.139E-04 0.272E-03 0.963E-03 0.191E-02 0.191E-02 0.243E-02 0.243E-02 0.245E-02
         3 0.139E-04 0.272E-03 0.963E-03 0.191E-02 0.191E-02 0.243E-02 0.243E-02 0.245E-02
         4 0.825E-03 0.217E-02 0.713E-02 0.171E-01 0.337E-01 0.649E-01 0.119E+00 0.188E+00
         5 0.139E-04 0.272E-03 0.963E-03 0.191E-02 0.191E-02 0.243E-02 0.243E-02 0.245E-02
         6 0.825E-03 0.217E-02 0.713E-02 0.171E-01 0.337E-01 0.649E-01 0.119E+00 0.188E+00
         7 0.825E-03 0.217E-02 0.713E-02 0.171E-01 0.337E-01 0.649E-01 0.119E+00 0.188E+00
         8 0.191E-02 0.243E-02 0.658E-02 0.118E-01 0.266E-01 0.456E-01 0.920E-01 0.173E+00


 Contracted 2-electron integrals neglected if value below      1.0D-12

 Warning: maximum contribution to expansion of semi-local PP integrals   0.6D+09

 AO integral compression algorithm  1   Integral accuracy      1.0D-12

     1269.563 MB (compressed) written to integral file ( 32.0%)

     Node minimum: 60.817 MB, node maximum: 195.035 MB


 NUMBER OF SORTED TWO-ELECTRON INTEGRALS:   21372670.     BUFFER LENGTH:  32768
 NUMBER OF SEGMENTS:   1  SEGMENT LENGTH:   21372670      RECORD LENGTH: 524288

 Memory used in sort:      21.93 MW

 SORT1 READ   495758857. AND WROTE    12412097. INTEGRALS IN     36 RECORDS. CPU TIME:    11.06 SEC, REAL TIME:    11.65 SEC
 SORT2 READ   135579217. AND WROTE   235142862. INTEGRALS IN   6842 RECORDS. CPU TIME:     0.80 SEC, REAL TIME:     1.51 SEC

 Node minimum:    21275732.  Node maximum:    21480371. integrals

 OPERATOR DM      FOR CENTER  0  COORDINATES:    0.000000    0.000000    0.000000


 **********************************************************************************************************************************
 DATASETS  * FILE   NREC   LENGTH (MB)   RECORD NAMES
              1      19       20.77       500      610      700      900      950      970     1000      129      960     1100   
                                          VAR    BASINP    GEOM    SYMINP    ZMAT    AOBASIS   BASIS     P2S    ABASIS      S 
                                         1400     1410     1420     1200     1210     1080     1600     1650     1700   
                                           T        V       ECP      H0       H01     AOSYM     SMH    MOLCAS    OPER   

 PROGRAMS   *        TOTAL       INT
 CPU TIMES  *        76.81     76.57
 REAL TIME  *        80.90 SEC
 DISK USED  *         2.89 GB      
 GA USED    *         0.00 MB       (max)       0.00 MB       (current)
 **********************************************************************************************************************************


 PROGRAM * RHF-SCF (CLOSED SHELL)       Authors: W. Meyer, H.-J. Werner


 NUMBER OF ELECTRONS:       9+    9-    SPACE SYMMETRY=1    SPIN SYMMETRY: Singlet 
 CONVERGENCE THRESHOLDS:    1.00E-05 (Density)    1.00E-07 (Energy)
 MAX. NUMBER OF ITERATIONS:       60
 INTERPOLATION TYPE:            DIIS
 INTERPOLATION STEPS:              2 (START)      1 (STEP)
 LEVEL SHIFTS:                  0.00 (CLOSED)  0.00 (OPEN) 

 Number of closed-shell orbitals:    9 (   3   1   1   1   1   1   1   0 )


 
 Extra symmetries of mos in symmetry 1:   1   3   2
 Orbital guess generated from atomic densities. Full valence occupancy:    4   1   1   1   1   1   1   0


 Molecular orbital dump at record        4202.2

 ITERATION    DDIFF          GRAD             ENERGY        2-EL.EN.            DIPOLE MOMENTS         DIIS   ORB.
    1      0.000D+00      0.000D+00      -118.11128991    192.875618    0.00000    0.00000    0.00000    0    start
    2      0.000D+00      0.245D-01      -118.13859524    175.483753    0.00000    0.00000    0.00000    1    diag
    3      0.687D-02      0.222D-01      -118.27467985    184.226889    0.00000    0.00000    0.00000    2    diag
    4      0.307D-02      0.755D-03      -118.27487429    183.902612    0.00000    0.00000    0.00000    3    diag
    5      0.151D-03      0.670D-04      -118.27487636    183.928631    0.00000    0.00000    0.00000    4    diag
    6      0.217D-04      0.537D-05      -118.27487641    183.928959    0.00000    0.00000    0.00000    5    diag
    7      0.422D-05      0.994D-06      -118.27487641    183.928501    0.00000    0.00000    0.00000    0    orth

 Final occupancy:   3   1   1   1   1   1   1   0

 !RHF STATE 1.1 Energy               -118.274876411896
 Nuclear energy                         0.00000000
 One-electron energy                 -210.23912683
 Two-electron energy                   91.96425042
 Virial quotient                       -3.03948522
 !RHF STATE 1.1 Dipole moment           0.00000000     0.00000000     0.00000000
 Dipole moment /Debye                   0.00000000     0.00000000     0.00000000

 ELECTRON ORBITALS
 =================


   Orb  Occ    Energy  Couls-En    Coefficients

                                   1 1s      1 1s      1 1s      1 1s      1 1s      1 1s      1 1s      1 1s      1 1s      1 1s   
                                   1 1s      1 1s      1 1s      1 1s      1 1s      1 1s      1 1s      1 1s      1 1s      1 1s   
                                   1 1s      1 1s      1 1s      1 1s      1 1s      1 1s      1 1s      1 1s      1 1s      1 1s   
                                   1 1s      1 1s      1 1s      1 3d0     1 3d2+    1 3d0     1 3d2+    1 3d0     1 3d2+    1 3d0  
                                   1 3d2+    1 3d0     1 3d2+    1 3d0     1 3d2+    1 3d0     1 3d2+    1 3d0     1 3d2+    1 3d0  
                                   1 3d2+    1 3d0     1 3d2+    1 3d0     1 3d2+    1 3d0     1 3d2+    1 3d0     1 3d2+    1 3d0  
                                   1 3d2+    1 3d0     1 3d2+    1 3d0     1 3d2+    1 3d0     1 3d2+    1 3d0     1 3d2+    1 5g0  
                                   1 5g4+    1 5g2+    1 5g0     1 5g4+    1 5g2+    1 5g0     1 5g4+    1 5g2+ 

   1.1   2    -4.3374  -20.2802  0.000000 -0.000000  0.000000 -0.000000  0.000000 -0.000001  0.000002 -0.000003  0.000007 -0.000015
                                 0.000031 -0.000067  0.000157 -0.000386  0.001012 -0.002770  0.006605 -0.014473  0.029670 -0.061404
                                 0.117335 -0.243703  0.594541 -1.037357  0.088605  0.881432  0.425085  0.072722 -0.064716  0.042173
                                -0.009214  0.002941 -0.000813 -0.000000 -0.000000  0.000000  0.000000 -0.000000 -0.000000  0.000000
                                 0.000000 -0.000000 -0.000000  0.000000  0.000000 -0.000000 -0.000000  0.000000  0.000000 -0.000000
                                -0.000000  0.000000  0.000000 -0.000000 -0.000000  0.000000  0.000000  0.000000  0.000000 -0.000000
                                -0.000000  0.000000  0.000000 -0.000000 -0.000000 -0.000000 -0.000000 -0.000000 -0.000000 -0.000000
                                 0.000000  0.000000  0.000000  0.000000  0.000000  0.000000 -0.000000 -0.000000

   2.1   2    -0.3192  -10.0073  0.000000 -0.000000  0.000000 -0.000000  0.000000 -0.000000  0.000000 -0.000000  0.000000 -0.000000
                                 0.000000 -0.000000  0.000000 -0.000000  0.000000 -0.000000  0.000000 -0.000000  0.000000 -0.000000
                                 0.000000  0.000000 -0.000000  0.000000 -0.000000 -0.000000 -0.000000 -0.000000  0.000000 -0.000000
                                 0.000000 -0.000000  0.000000  0.000000 -0.000000 -0.000000  0.000002  0.000002 -0.000011 -0.000008
                                 0.000046  0.000030 -0.000167 -0.000090  0.000504  0.000279 -0.001566 -0.000668  0.003745  0.001748
                                -0.009806 -0.003057  0.017152  0.006948 -0.038980 -0.010311  0.057845 -0.054393  0.305148 -0.023641
                                 0.132629 -0.058182  0.326404 -0.049088  0.275389 -0.024300  0.136322 -0.000704  0.003948  0.000000
                                 0.000000  0.000000  0.000000 -0.000000 -0.000000  0.000000  0.000000  0.000000

   3.1   2    -0.3192  -10.0073  0.000000 -0.000000  0.000000 -0.000000  0.000000 -0.000000  0.000000 -0.000000  0.000000 -0.000000
                                 0.000000 -0.000000  0.000000 -0.000000  0.000000 -0.000000  0.000000  0.000000 -0.000000 -0.000000
                                 0.000000 -0.000000  0.000000 -0.000000  0.000000  0.000000  0.000000  0.000000 -0.000000  0.000000
                                -0.000000  0.000000 -0.000000 -0.000000 -0.000000  0.000002  0.000000 -0.000011 -0.000002  0.000046
                                 0.000008 -0.000167 -0.000030  0.000504  0.000090 -0.001566 -0.000279  0.003745  0.000668 -0.009806
                                -0.001748  0.017152  0.003057 -0.038980 -0.006948  0.057845  0.010311  0.305148  0.054393  0.132629
                                 0.023641  0.326404  0.058182  0.275389  0.049088  0.136322  0.024300  0.003948  0.000704  0.000000
                                 0.000000  0.000000 -0.000000  0.000000  0.000000  0.000000  0.000000  0.000000

   4.1   0    -0.0095   -4.3536 -0.000000  0.000000 -0.000000  0.000000 -0.000000  0.000000 -0.000000  0.000000 -0.000000  0.000000
                                -0.000001  0.000002 -0.000005  0.000011 -0.000033  0.000112 -0.000176  0.000153 -0.000255  0.002646
                                -0.009835  0.032463 -0.102292  0.220226 -0.053068 -0.229813 -0.154815 -0.000384  0.301731 -0.121843
                                 0.488936 -0.036142  0.576996 -0.000000  0.000000  0.000000 -0.000000 -0.000000  0.000000  0.000000
                                -0.000000 -0.000000  0.000000  0.000000 -0.000000 -0.000000  0.000000  0.000000 -0.000000 -0.000000
                                 0.000000  0.000000 -0.000000 -0.000000  0.000000  0.000000 -0.000000  0.000000 -0.000000  0.000000
                                -0.000000  0.000000 -0.000000  0.000000 -0.000000  0.000000 -0.000000  0.000000 -0.000000 -0.000000
                                 0.000000  0.000000  0.000000 -0.000000 -0.000000 -0.000000  0.000000 -0.000000

   5.1   0     0.0218   -2.0511 -0.000000  0.000000 -0.000000  0.000000 -0.000000  0.000000 -0.000000  0.000001 -0.000001  0.000003
                                -0.000006  0.000013 -0.000030  0.000073 -0.000190  0.000513 -0.001239  0.002739 -0.005481  0.010403
                                -0.017870  0.033680 -0.080749  0.160489 -0.092100 -0.033461 -0.228320  0.628641 -2.212499  2.919351
                                -2.190974  3.806455 -3.010424 -0.000000 -0.000000  0.000000  0.000000 -0.000000 -0.000000  0.000000
                                 0.000000 -0.000000 -0.000000  0.000000  0.000000 -0.000000 -0.000000  0.000000  0.000000 -0.000000
                                -0.000000  0.000000  0.000000 -0.000000 -0.000000  0.000000  0.000000  0.000000  0.000000  0.000000
                                 0.000000  0.000000  0.000000  0.000000  0.000000  0.000000 -0.000000  0.000000  0.000000 -0.000000
                                -0.000000 -0.000000  0.000000  0.000000  0.000000  0.000000 -0.000000 -0.000000

                                   1 2px     1 2px     1 2px     1 2px     1 2px     1 2px     1 2px     1 2px     1 2px     1 2px  
                                   1 2px     1 2px     1 2px     1 2px     1 2px     1 2px     1 2px     1 2px     1 2px     1 2px  
                                   1 2px     1 2px     1 2px     1 2px     1 2px     1 2px     1 4f1+    1 4f3+    1 4f1+    1 4f3+ 
                                   1 4f1+    1 4f3+    1 4f1+    1 4f3+    1 4f1+    1 4f3+    1 4f1+    1 4f3+    1 4f1+    1 4f3+ 
                                   1 4f1+    1 4f3+    1 4f1+    1 4f3+    1 4f1+    1 4f3+    1 4f1+    1 4f3+    1 4f1+    1 4f3+ 
                                   1 4f1+    1 4f3+    1 4f1+    1 4f3+    1 4f1+    1 4f3+    1 4f1+    1 4f3+    1 4f1+    1 4f3+ 


   1.2   2    -2.4072  -15.9861 -0.000000  0.000000 -0.000000  0.000000 -0.000000  0.000002 -0.000006  0.000020 -0.000067  0.000199
                                -0.000689  0.002125 -0.008676  0.030393 -0.060611  0.064441 -0.075779  0.135033 -0.192769 -0.091069
                                 0.537805  0.489586  0.170313 -0.003229  0.005451 -0.001689 -0.000000 -0.000000  0.000000  0.000000
                                -0.000000 -0.000000 -0.000000  0.000000  0.000000 -0.000000 -0.000000  0.000000  0.000000 -0.000000
                                -0.000000  0.000000  0.000000 -0.000000 -0.000000  0.000000  0.000000  0.000000  0.000000 -0.000000
                                -0.000000 -0.000000  0.000000  0.000000 -0.000000 -0.000000  0.000000  0.000000 -0.000000 -0.000000

   2.2   0     0.0378   -2.2716 -0.000000  0.000000 -0.000000  0.000000 -0.000000  0.000000 -0.000000  0.000001 -0.000004  0.000012
                                -0.000032  0.000111 -0.000468  0.001769 -0.003209  0.002939 -0.001629  0.000211 -0.000010  0.019287
                                -0.057321  0.013438 -0.073181  0.189854 -0.386667  1.218072  0.000000 -0.000000 -0.000000  0.000000
                                 0.000000 -0.000000 -0.000000  0.000000 -0.000000 -0.000000  0.000000  0.000000 -0.000000 -0.000000
                                 0.000000  0.000000  0.000000 -0.000000 -0.000000  0.000000 -0.000000 -0.000000 -0.000000  0.000000
                                 0.000000 -0.000000 -0.000000  0.000000  0.000000 -0.000000 -0.000000  0.000000  0.000000 -0.000000

   3.2   0     0.1358   -3.4767  0.000000 -0.000000  0.000000 -0.000000  0.000000 -0.000001  0.000003 -0.000009  0.000030 -0.000092
                                 0.000294 -0.000934  0.003855 -0.013819  0.026686 -0.027069  0.027003 -0.041709  0.064078 -0.042725
                                -0.009407 -0.217233  0.204136 -0.410884  1.832509 -1.091167  0.000000  0.000000 -0.000000 -0.000000
                                 0.000000  0.000000 -0.000000 -0.000000  0.000000  0.000000 -0.000000 -0.000000  0.000000  0.000000
                                -0.000000 -0.000000  0.000000  0.000000 -0.000000 -0.000000  0.000000  0.000000 -0.000000 -0.000000
                                 0.000000 -0.000000 -0.000000  0.000000  0.000000 -0.000000 -0.000000  0.000000  0.000000 -0.000000

                                   1 2py     1 2py     1 2py     1 2py     1 2py     1 2py     1 2py     1 2py     1 2py     1 2py  
                                   1 2py     1 2py     1 2py     1 2py     1 2py     1 2py     1 2py     1 2py     1 2py     1 2py  
                                   1 2py     1 2py     1 2py     1 2py     1 2py     1 2py     1 4f1-    1 4f3-    1 4f1-    1 4f3- 
                                   1 4f1-    1 4f3-    1 4f1-    1 4f3-    1 4f1-    1 4f3-    1 4f1-    1 4f3-    1 4f1-    1 4f3- 
                                   1 4f1-    1 4f3-    1 4f1-    1 4f3-    1 4f1-    1 4f3-    1 4f1-    1 4f3-    1 4f1-    1 4f3- 
                                   1 4f1-    1 4f3-    1 4f1-    1 4f3-    1 4f1-    1 4f3-    1 4f1-    1 4f3-    1 4f1-    1 4f3- 


   1.3   2    -2.4072  -15.9861 -0.000000  0.000000 -0.000000  0.000000 -0.000000  0.000002 -0.000006  0.000020 -0.000067  0.000199
                                -0.000689  0.002125 -0.008676  0.030393 -0.060611  0.064441 -0.075779  0.135033 -0.192769 -0.091069
                                 0.537805  0.489586  0.170313 -0.003229  0.005451 -0.001689 -0.000000 -0.000000  0.000000  0.000000
                                -0.000000 -0.000000  0.000000  0.000000 -0.000000 -0.000000  0.000000  0.000000 -0.000000 -0.000000
                                 0.000000  0.000000 -0.000000 -0.000000  0.000000  0.000000  0.000000  0.000000  0.000000 -0.000000
                                 0.000000  0.000000 -0.000000 -0.000000  0.000000 -0.000000 -0.000000 -0.000000 -0.000000  0.000000

   2.3   0     0.0378   -2.2716 -0.000000  0.000000 -0.000000  0.000000 -0.000000  0.000000 -0.000000  0.000001 -0.000004  0.000012
                                -0.000032  0.000111 -0.000468  0.001769 -0.003209  0.002939 -0.001629  0.000211 -0.000010  0.019287
                                -0.057321  0.013438 -0.073181  0.189854 -0.386667  1.218072  0.000000 -0.000000 -0.000000  0.000000
                                 0.000000 -0.000000 -0.000000  0.000000 -0.000000 -0.000000  0.000000  0.000000 -0.000000 -0.000000
                                 0.000000  0.000000  0.000000 -0.000000 -0.000000  0.000000 -0.000000  0.000000 -0.000000  0.000000
                                 0.000000  0.000000 -0.000000  0.000000  0.000000 -0.000000 -0.000000  0.000000  0.000000 -0.000000

   3.3   0     0.1358   -3.4767  0.000000 -0.000000  0.000000 -0.000000  0.000000 -0.000001  0.000003 -0.000009  0.000030 -0.000092
                                 0.000294 -0.000934  0.003855 -0.013819  0.026686 -0.027069  0.027003 -0.041709  0.064078 -0.042725
                                -0.009407 -0.217233  0.204136 -0.410884  1.832509 -1.091167  0.000000 -0.000000 -0.000000  0.000000
                                 0.000000 -0.000000 -0.000000  0.000000  0.000000 -0.000000 -0.000000  0.000000  0.000000 -0.000000
                                -0.000000  0.000000  0.000000 -0.000000 -0.000000  0.000000  0.000000  0.000000 -0.000000  0.000000
                                 0.000000 -0.000000 -0.000000  0.000000  0.000000 -0.000000 -0.000000  0.000000  0.000000 -0.000000

                                   1 3d2-    1 3d2-    1 3d2-    1 3d2-    1 3d2-    1 3d2-    1 3d2-    1 3d2-    1 3d2-    1 3d2- 
                                   1 3d2-    1 3d2-    1 3d2-    1 3d2-    1 3d2-    1 3d2-    1 3d2-    1 3d2-    1 5g2-    1 5g4- 
                                   1 5g2-    1 5g4-    1 5g2-    1 5g4- 

   1.4   2    -0.3192  -10.0073 -0.000000  0.000002 -0.000012  0.000047 -0.000169  0.000512 -0.001591  0.003804 -0.009961  0.017422
                                -0.039594  0.058757  0.309958  0.134720  0.331549  0.279729  0.138471  0.004010  0.000000  0.000000
                                 0.000000  0.000000  0.000000  0.000000

   2.4   0     0.1144   -2.3614 -0.000000  0.000001 -0.000004  0.000015 -0.000052  0.000154 -0.000378  0.000879 -0.001627  0.003639
                                -0.006924  0.018821 -0.138886  0.174096 -0.246264  0.181578 -0.447973  1.230394  0.000000 -0.000000
                                -0.000000  0.000000 -0.000000  0.000000

   3.4   0     0.4076   -3.5460  0.000000 -0.000004  0.000021 -0.000090  0.000313 -0.000937  0.002571 -0.006064  0.013578 -0.026530
                                 0.056076 -0.115513  0.238214 -0.738097  0.633256 -0.981303  1.849007 -0.825607  0.000000 -0.000000
                                -0.000000  0.000000  0.000000 -0.000000

                                   1 2pz     1 2pz     1 2pz     1 2pz     1 2pz     1 2pz     1 2pz     1 2pz     1 2pz     1 2pz  
                                   1 2pz     1 2pz     1 2pz     1 2pz     1 2pz     1 2pz     1 2pz     1 2pz     1 2pz     1 2pz  
                                   1 2pz     1 2pz     1 2pz     1 2pz     1 2pz     1 2pz     1 4f0     1 4f2+    1 4f0     1 4f2+ 
                                   1 4f0     1 4f2+    1 4f0     1 4f2+    1 4f0     1 4f2+    1 4f0     1 4f2+    1 4f0     1 4f2+ 
                                   1 4f0     1 4f2+    1 4f0     1 4f2+    1 4f0     1 4f2+    1 4f0     1 4f2+    1 4f0     1 4f2+ 
                                   1 4f0     1 4f2+    1 4f0     1 4f2+    1 4f0     1 4f2+    1 4f0     1 4f2+    1 4f0     1 4f2+ 


   1.5   2    -2.4072  -15.9861 -0.000000  0.000000 -0.000000  0.000000 -0.000000  0.000002 -0.000006  0.000020 -0.000067  0.000199
                                -0.000689  0.002125 -0.008676  0.030393 -0.060611  0.064441 -0.075779  0.135033 -0.192769 -0.091069
                                 0.537805  0.489586  0.170313 -0.003229  0.005451 -0.001689 -0.000000 -0.000000  0.000000  0.000000
                                -0.000000 -0.000000  0.000000  0.000000 -0.000000 -0.000000  0.000000  0.000000 -0.000000 -0.000000
                                 0.000000  0.000000 -0.000000 -0.000000  0.000000  0.000000  0.000000  0.000000  0.000000  0.000000
                                 0.000000  0.000000 -0.000000 -0.000000  0.000000  0.000000 -0.000000 -0.000000  0.000000 -0.000000

   2.5   0     0.0378   -2.2716 -0.000000  0.000000 -0.000000  0.000000 -0.000000  0.000000 -0.000000  0.000001 -0.000004  0.000012
                                -0.000032  0.000111 -0.000468  0.001769 -0.003209  0.002939 -0.001629  0.000211 -0.000010  0.019287
                                -0.057321  0.013438 -0.073181  0.189854 -0.386667  1.218072  0.000000 -0.000000 -0.000000  0.000000
                                 0.000000 -0.000000 -0.000000  0.000000  0.000000 -0.000000 -0.000000  0.000000  0.000000 -0.000000
                                -0.000000  0.000000  0.000000 -0.000000 -0.000000  0.000000  0.000000 -0.000000 -0.000000  0.000000
                                 0.000000 -0.000000 -0.000000  0.000000  0.000000 -0.000000 -0.000000  0.000000  0.000000 -0.000000

   3.5   0     0.1358   -3.4767  0.000000 -0.000000  0.000000 -0.000000  0.000000 -0.000001  0.000003 -0.000009  0.000030 -0.000092
                                 0.000294 -0.000934  0.003855 -0.013819  0.026686 -0.027069  0.027003 -0.041709  0.064078 -0.042725
                                -0.009407 -0.217233  0.204136 -0.410884  1.832509 -1.091167  0.000000 -0.000000 -0.000000  0.000000
                                 0.000000 -0.000000 -0.000000  0.000000  0.000000 -0.000000 -0.000000  0.000000  0.000000 -0.000000
                                -0.000000  0.000000  0.000000 -0.000000 -0.000000  0.000000  0.000000 -0.000000 -0.000000  0.000000
                                 0.000000 -0.000000 -0.000000  0.000000  0.000000 -0.000000 -0.000000  0.000000  0.000000 -0.000000

                                   1 3d1+    1 3d1+    1 3d1+    1 3d1+    1 3d1+    1 3d1+    1 3d1+    1 3d1+    1 3d1+    1 3d1+ 
                                   1 3d1+    1 3d1+    1 3d1+    1 3d1+    1 3d1+    1 3d1+    1 3d1+    1 3d1+    1 5g1+    1 5g3+ 
                                   1 5g1+    1 5g3+    1 5g1+    1 5g3+ 

   1.6   2    -0.3192  -10.0073 -0.000000  0.000002 -0.000012  0.000047 -0.000169  0.000512 -0.001591  0.003804 -0.009961  0.017422
                                -0.039594  0.058757  0.309958  0.134720  0.331549  0.279729  0.138471  0.004010  0.000000  0.000000
                                 0.000000  0.000000  0.000000  0.000000

   2.6   0     0.1144   -2.3614 -0.000000  0.000001 -0.000004  0.000015 -0.000052  0.000154 -0.000378  0.000879 -0.001627  0.003639
                                -0.006924  0.018821 -0.138886  0.174096 -0.246264  0.181578 -0.447973  1.230394  0.000000 -0.000000
                                -0.000000  0.000000 -0.000000  0.000000

   3.6   0     0.4076   -3.5460  0.000000 -0.000004  0.000021 -0.000090  0.000313 -0.000937  0.002571 -0.006064  0.013578 -0.026530
                                 0.056076 -0.115513  0.238214 -0.738097  0.633256 -0.981303  1.849007 -0.825607  0.000000 -0.000000
                                -0.000000  0.000000  0.000000 -0.000000

                                   1 3d1-    1 3d1-    1 3d1-    1 3d1-    1 3d1-    1 3d1-    1 3d1-    1 3d1-    1 3d1-    1 3d1- 
                                   1 3d1-    1 3d1-    1 3d1-    1 3d1-    1 3d1-    1 3d1-    1 3d1-    1 3d1-    1 5g1-    1 5g3- 
                                   1 5g1-    1 5g3-    1 5g1-    1 5g3- 

   1.7   2    -0.3192  -10.0073 -0.000000  0.000002 -0.000012  0.000047 -0.000169  0.000512 -0.001591  0.003804 -0.009961  0.017422
                                -0.039594  0.058757  0.309958  0.134720  0.331549  0.279729  0.138471  0.004010  0.000000  0.000000
                                 0.000000  0.000000  0.000000 -0.000000

   2.7   0     0.1144   -2.3614 -0.000000  0.000001 -0.000004  0.000015 -0.000052  0.000154 -0.000378  0.000879 -0.001627  0.003639
                                -0.006924  0.018821 -0.138886  0.174096 -0.246264  0.181578 -0.447973  1.230394  0.000000 -0.000000
                                -0.000000  0.000000 -0.000000  0.000000

   3.7   0     0.4076   -3.5460  0.000000 -0.000004  0.000021 -0.000090  0.000313 -0.000937  0.002571 -0.006064  0.013578 -0.026530
                                 0.056076 -0.115513  0.238214 -0.738097  0.633256 -0.981303  1.849007 -0.825607  0.000000 -0.000000
                                -0.000000  0.000000  0.000000 -0.000000

                                   1 4f2-    1 4f2-    1 4f2-    1 4f2-    1 4f2-    1 4f2-    1 4f2-    1 4f2-    1 4f2-    1 4f2- 
                                   1 4f2-    1 4f2-    1 4f2-    1 4f2-    1 4f2-    1 4f2-    1 4f2- 

   1.8   0     0.1576   -1.9471  0.000003 -0.000048  0.000160 -0.000221  0.000325 -0.000739  0.001673 -0.003534  0.007086 -0.014766
                                 0.056735 -0.120220  0.273891 -0.485935  0.802552 -2.138549  2.517638

   2.8   0     0.3819   -2.4014 -0.000005  0.000088 -0.000293  0.000404 -0.000595  0.001351 -0.003071  0.006449 -0.013058  0.028832
                                -0.099540  0.232289 -0.503147  0.959391 -1.561766  4.049157 -2.614387

 HOMO      1.4    -0.319245 =      -8.6871eV
 LUMO      4.1    -0.009544 =      -0.2597eV
 LUMO-HOMO         0.309701 =       8.4274eV


 **********************************************************************************************************************************
 DATASETS  * FILE   NREC   LENGTH (MB)   RECORD NAMES
              1      19       20.81       500      610      700      900      950      970     1000      129      960     1100   
                                          VAR    BASINP    GEOM    SYMINP    ZMAT    AOBASIS   BASIS     P2S    ABASIS      S 
                                         1400     1410     1420     1200     1210     1080     1600     1650     1700   
                                           T        V       ECP      H0       H01     AOSYM     SMH    MOLCAS    OPER   

              2       5        5.77       200      700     1000      520     4202   
                                        OPTIONS   GEOM     BASIS   MCVARS     RHF  

 PROGRAMS   *        TOTAL       RHF       INT
 CPU TIMES  *        78.87      1.83     76.57
 REAL TIME  *        85.47 SEC
 DISK USED  *         3.20 GB      
 SF USED    *         0.08 MB      
 GA USED    *         0.00 MB       (max)       0.00 MB       (current)
 **********************************************************************************************************************************
 SETTING SCF(1)         =      -118.27487641  AU                              
 SETTING _CC_NORM_MAX   =         2.00000000                                  


 PROGRAM * CCSD (Restricted open-shell coupled cluster)     Authors: C. Hampel, H.-J. Werner, 1991, M. Deegan, P.J. Knowles, 1992


 Convergence thresholds:  THRVAR = 1.00D-08  THRDEN = 1.00D-06

 CCSD(T)     terms to be evaluated (factor= 1.000)


 Number of closed-shell orbitals:   9 (   3   1   1   1   1   1   1   0 )
 Number of external orbitals:     338 (  75  59  59  23  59  23  23  17 )

 Memory could be reduced to 82.18 Mwords without degradation in triples

 Number of N-1 electron functions:              18
 Number of N-2 electron functions:             153
 Number of singly external CSFs:               942
 Number of doubly external CSFs:           1702326
 Total number of CSFs:                     1703268

 Molecular orbitals read from record     4202.2  Type=RHF/CANONICAL (state 1.1)

 Integral transformation finished. Total CPU:   2.11 sec, npass=  1  Memory used:  15.16 MW

 Starting RMP2 calculation

 Wavefunction is spin-projected

 ITER.      SQ.NORM     CORR.ENERGY   TOTAL ENERGY   ENERGY CHANGE        DEN1      VAR(S)    VAR(P)  DIIS     TIME
   1      1.15193262    -0.71279111  -118.98766753    -0.71279111    -0.00165459  0.89D-11  0.73D-03  1  1     2.36
   2      1.15368919    -0.71454968  -118.98942609    -0.00175857    -0.00000633  0.34D-12  0.53D-05  2  2     2.81
   3      1.15381531    -0.71461161  -118.98948803    -0.00006193    -0.00000004  0.76D-14  0.44D-07  3  3     3.11
   4      1.15382082    -0.71461259  -118.98948901    -0.00000098    -0.00000000  0.85D-16  0.25D-09  4  4     3.81

 Norm of t1 vector:      0.00001788      S-energy:    -0.00000000      T1 diagnostic:  0.00000298
 Norm of t2 vector:      0.39219998      P-energy:    -0.71461259
                                         Alpha-Beta:  -0.49477296
                                         Alpha-Alpha: -0.10991982
                                         Beta-Beta:   -0.10991982

 Spin contamination <S**2-Sz**2-Sz>     0.00000000
  Reference energy                   -118.274876411896
  RHF-RMP2 correlation energy          -0.714612593329
 !RHF-RMP2 energy                    -118.989489005225
 (NB above energy spin projected)

 Starting RCCSD calculation

 ITER.      SQ.NORM     CORR.ENERGY   TOTAL ENERGY   ENERGY CHANGE        DEN1      VAR(S)    VAR(P)  DIIS     TIME
   1      1.12234599    -0.65883687  -118.93371328    -0.65883687    -0.01432014  0.15D-02  0.31D-02  1  1     6.19
   2      1.13181253    -0.67170937  -118.94658578    -0.01287250    -0.00086821  0.18D-04  0.46D-03  2  2     9.38
   3      1.13432220    -0.67227472  -118.94715114    -0.00056536    -0.00014291  0.36D-04  0.87D-04  3  3    11.71
   4      1.13626274    -0.67279576  -118.94767218    -0.00052104    -0.00002961  0.15D-06  0.24D-04  4  4    13.80
   5      1.13759270    -0.67304695  -118.94792336    -0.00025118    -0.00000378  0.15D-06  0.29D-05  5  5    16.09
   6      1.13805841    -0.67309531  -118.94797173    -0.00004837    -0.00000024  0.48D-07  0.13D-06  6  6    17.64
   7      1.13809843    -0.67309962  -118.94797603    -0.00000430    -0.00000003  0.50D-08  0.17D-07  6  2    20.21
   8      1.13810518    -0.67310058  -118.94797699    -0.00000096    -0.00000000  0.14D-08  0.15D-08  6  1    21.73

 Norm of t1 vector:      0.04312083      S-energy:     0.00000028      T1 diagnostic:  0.00718680
                                                                       D1 diagnostic:  0.01269656
 Norm of t2 vector:      0.36911485      P-energy:    -0.67310086
                                         Alpha-Beta:  -0.48455535
                                         Alpha-Alpha: -0.09427275
                                         Beta-Beta:   -0.09427275

 Spin contamination <S**2-Sz**2-Sz>     0.00000000

 Memory could be reduced to 84.40 Mwords without degradation in triples
 

  Correlated core orbitals:             1.1       1.2       1.3       1.5
  Orbital energies:                    -4.3374   -2.4072   -2.4072   -2.4072
 
  RCCSD core-core energy               -0.109401490076
  RCCSD core-valence energy            -0.230240772418
  RCCSD valence correlation energy     -0.333458317621
 

 RESULTS
 =======

  Reference energy                   -118.274876411896
  RCCSD singles energy                  0.000000279746
  RCCSD pair energy                    -0.673100859860
  RCCSD correlation energy             -0.673100580114
  Triples (T) contribution             -0.031096284573
  Total correlation energy             -0.704196864687
 
  RHF-RCCSD energy                   -118.947976992010
  RHF-RCCSD[T] energy                -118.979790603467
  RHF-RCCSD-T energy                 -118.978865466686
 !RHF-RCCSD(T) energy                -118.979073276583

 Program statistics:

 Available memory in ccsd:              1023999162
 Min. memory needed in ccsd:               5073078
 Max. memory used in ccsd:                 7141569
 Max. memory used in cckext:               5646279 ( 8 integral passes)
 Max. memory used in cckint:              15156646 ( 1 integral passes)



 **********************************************************************************************************************************
 DATASETS  * FILE   NREC   LENGTH (MB)   RECORD NAMES
              1      19       20.81       500      610      700      900      950      970     1000      129      960     1100   
                                          VAR    BASINP    GEOM    SYMINP    ZMAT    AOBASIS   BASIS     P2S    ABASIS      S 
                                         1400     1410     1420     1200     1210     1080     1600     1650     1700   
                                           T        V       ECP      H0       H01     AOSYM     SMH    MOLCAS    OPER   

              2       5        5.77       200      700     1000      520     4202   
                                        OPTIONS   GEOM     BASIS   MCVARS     RHF  

 PROGRAMS   *        TOTAL  RCCSD(T)       RHF       INT
 CPU TIMES  *       126.00     46.88      1.83     76.57
 REAL TIME  *       184.19 SEC
 DISK USED  *         5.53 GB      
 SF USED    *         1.24 GB      
 GA USED    *         0.00 MB       (max)       0.00 MB       (current)
 **********************************************************************************************************************************
 SETTING CCSD(1)        =      -118.97907328  AU                              

 DO I                   =         2.00000000   

 Running procedure=EAS2D9


 PROGRAM * RHF-SCF (OPEN SHELL)       Authors: W. Meyer, H.-J. Werner


 NUMBER OF ELECTRONS:      10+    9-    SPACE SYMMETRY=1    SPIN SYMMETRY: Doublet 
 CONVERGENCE THRESHOLDS:    1.00E-05 (Density)    1.00E-07 (Energy)
 MAX. NUMBER OF ITERATIONS:       60
 INTERPOLATION TYPE:            DIIS
 INTERPOLATION STEPS:              2 (START)      1 (STEP)
 LEVEL SHIFTS:                 -0.60 (CLOSED) -0.30 (OPEN) 

 Number of closed-shell orbitals:    9 (   3   1   1   1   1   1   1   0 )
 Number of open-shell orbitals:      1 (   1   0   0   0   0   0   0   0 )


 
 Extra symmetries of mos in symmetry 1:   1   1   3   2
 Orbital guess generated from atomic densities. Full valence occupancy:    4   1   1   1   1   1   1   0


 Molecular orbital dump at record        4202.2

 ITERATION    DDIFF          GRAD             ENERGY        2-EL.EN.            DIPOLE MOMENTS         DIIS   ORB.
    1      0.000D+00      0.000D+00      -118.19571505    199.350554    0.00000    0.00000    0.00000    0    start
    2      0.000D+00      0.182D-01      -118.31473405    190.229232    0.00000    0.00000    0.00000    1    diag,B
    3      0.739D-02      0.689D-02      -118.32859563    191.290658    0.00000    0.00000    0.00000    2    diag,B
    4      0.215D-02      0.167D-02      -118.33383764    190.694818    0.00000    0.00000    0.00000    3    diag,B
    5      0.206D-02      0.999D-03      -118.33741111    190.218022    0.00000    0.00000    0.00000    4    diag,B
    6      0.303D-02      0.579D-03      -118.33921624    189.887611    0.00000    0.00000    0.00000    5    diag,B
    7      0.294D-02      0.326D-03      -118.33995706    189.701176    0.00000    0.00000    0.00000    6    fixocc
    8      0.216D-02      0.182D-03      -118.34020441    189.607103    0.00000    0.00000    0.00000    7    diag,B
    9      0.293D-02      0.106D-03      -118.34030553    189.544917    0.00000    0.00000    0.00000    8    diag,B
   10      0.224D-02      0.596D-04      -118.34033282    189.528366    0.00000    0.00000    0.00000    9    orth
   11      0.766D-03      0.428D-04      -118.34035644    189.502138    0.00000    0.00000    0.00000    9    diag,B
   12      0.195D-02      0.152D-04      -118.34035826    189.498060    0.00000    0.00000    0.00000    9    diag,B
   13      0.555D-03      0.507D-05      -118.34035838    189.496513    0.00000    0.00000    0.00000    9    diag,B
   14      0.910D-04      0.245D-05      -118.34035840    189.496448    0.00000    0.00000    0.00000    9    diag,B
   15      0.182D-04      0.868D-06      -118.34035840    189.496457    0.00000    0.00000    0.00000    9    diag,B
   16      0.356D-05      0.495D-06      -118.34035840    189.496427    0.00000    0.00000    0.00000    0    orth

 Final alpha occupancy:   4   1   1   1   1   1   1   0
 Final beta  occupancy:   3   1   1   1   1   1   1   0

 !RHF STATE 1.1 Energy               -118.340358400425
 Nuclear energy                         0.00000000
 One-electron energy                 -213.08857183
 Two-electron energy                   94.74821343
 Virial quotient                       -3.09289421
 !RHF STATE 1.1 Dipole moment           0.00000000     0.00000000     0.00000000
 Dipole moment /Debye                   0.00000000     0.00000000     0.00000000

 ELECTRON ORBITALS
 =================


   Orb  Occ    Energy  Couls-En    Coefficients

                                   1 1s      1 1s      1 1s      1 1s      1 1s      1 1s      1 1s      1 1s      1 1s      1 1s   
                                   1 1s      1 1s      1 1s      1 1s      1 1s      1 1s      1 1s      1 1s      1 1s      1 1s   
                                   1 1s      1 1s      1 1s      1 1s      1 1s      1 1s      1 1s      1 1s      1 1s      1 1s   
                                   1 1s      1 1s      1 1s      1 3d0     1 3d2+    1 3d0     1 3d2+    1 3d0     1 3d2+    1 3d0  
                                   1 3d2+    1 3d0     1 3d2+    1 3d0     1 3d2+    1 3d0     1 3d2+    1 3d0     1 3d2+    1 3d0  
                                   1 3d2+    1 3d0     1 3d2+    1 3d0     1 3d2+    1 3d0     1 3d2+    1 3d0     1 3d2+    1 3d0  
                                   1 3d2+    1 3d0     1 3d2+    1 3d0     1 3d2+    1 3d0     1 3d2+    1 3d0     1 3d2+    1 5g0  
                                   1 5g4+    1 5g2+    1 5g0     1 5g4+    1 5g2+    1 5g0     1 5g4+    1 5g2+ 

   1.1   2    -4.2074  -20.1658  0.000000 -0.000000  0.000000 -0.000000  0.000000 -0.000001  0.000002 -0.000003  0.000007 -0.000015
                                 0.000030 -0.000067  0.000157 -0.000385  0.001010 -0.002765  0.006591 -0.014432  0.029585 -0.061321
                                 0.117386 -0.244321  0.596955 -1.042874  0.087256  0.897791  0.417721  0.063165 -0.056331  0.036590
                                -0.008005  0.002629 -0.000698 -0.000000  0.000000  0.000000 -0.000000 -0.000000  0.000000  0.000000
                                -0.000000 -0.000001  0.000000  0.000004 -0.000000 -0.000012  0.000000  0.000029 -0.000000 -0.000069
                                 0.000000  0.000156 -0.000000 -0.000410  0.000000  0.000534 -0.000000  0.001918 -0.000000 -0.000735
                                -0.000000 -0.001097 -0.000000 -0.001360 -0.000000 -0.000429 -0.000000 -0.000021  0.000000 -0.000045
                                -0.000000 -0.000000 -0.000704 -0.000000 -0.000000 -0.000471 -0.000000 -0.000000

   2.1   2    -0.0455   -5.6914 -0.000000  0.000000 -0.000000  0.000000 -0.000000  0.000000 -0.000000  0.000000 -0.000000  0.000001
                                -0.000001  0.000003 -0.000008  0.000018 -0.000053  0.000175 -0.000288  0.000301 -0.000520  0.003993
                                -0.014225  0.046332 -0.145746  0.315684 -0.081928 -0.324836 -0.243248  0.137397  0.147953  0.262202
                                 0.389950  0.219145  0.076125  0.000000 -0.000000 -0.000000  0.000000  0.000000 -0.000000 -0.000001
                                 0.000000  0.000005 -0.000000 -0.000015  0.000000  0.000048 -0.000000 -0.000115  0.000000  0.000303
                                -0.000000 -0.000538  0.000000  0.001271 -0.000000 -0.001938  0.000000 -0.010468  0.000000 -0.003196
                                 0.000000 -0.008792  0.000000 -0.001937  0.000000  0.001052 -0.000000  0.001778 -0.000000 -0.000370
                                 0.000000 -0.000000 -0.000359 -0.000000 -0.000000 -0.000078  0.000000  0.000000

   3.1   2    -0.1499   -9.9219  0.000000 -0.000000  0.000000 -0.000000  0.000000 -0.000000  0.000000 -0.000000  0.000000 -0.000000
                                 0.000000 -0.000000  0.000000 -0.000000  0.000000 -0.000000  0.000000 -0.000000  0.000000 -0.000000
                                 0.000000 -0.000000  0.000001 -0.000001  0.000000  0.000002  0.000001 -0.000001  0.000000 -0.000001
                                -0.000000  0.000000  0.000000  0.000000 -0.000000 -0.000000  0.000002  0.000000 -0.000012 -0.000000
                                 0.000048  0.000000 -0.000172 -0.000000  0.000520  0.000000 -0.001617 -0.000000  0.003866  0.000000
                                -0.010138 -0.000000  0.017717  0.000001 -0.040328 -0.000002  0.060022 -0.000008  0.319825 -0.000003
                                 0.135650 -0.000009  0.338711 -0.000007  0.262503 -0.000003  0.130668 -0.000000  0.012256 -0.000000
                                -0.000000  0.000963 -0.000000 -0.000000  0.001697 -0.000000 -0.000000  0.002902

   4.1   +    -0.2238  -10.1354  0.000000 -0.000000  0.000000 -0.000000  0.000000 -0.000000  0.000000 -0.000000  0.000000 -0.000000
                                 0.000000 -0.000000  0.000001 -0.000002  0.000004 -0.000008  0.000034 -0.000113  0.000242 -0.000156
                                -0.000481  0.002963 -0.010992  0.026120 -0.007426 -0.035822 -0.010195  0.044780 -0.005278  0.029894
                                -0.011601 -0.010877 -0.004760 -0.000000 -0.000000  0.000002  0.000000 -0.000012 -0.000000  0.000049
                                 0.000000 -0.000175 -0.000000  0.000529  0.000000 -0.001645 -0.000000  0.003934  0.000000 -0.010314
                                -0.000000  0.018026  0.000000 -0.040942 -0.000001  0.059660  0.000002  0.327873  0.000008  0.140459
                                 0.000004  0.349619  0.000009  0.252340  0.000006  0.104379  0.000003  0.002248  0.000000  0.002315
                                 0.000000 -0.000000  0.005774  0.000000 -0.000000  0.006568 -0.000000 -0.000000

   5.1   0     0.0940   -1.2977  0.000000 -0.000000  0.000000 -0.000000  0.000000 -0.000000  0.000000 -0.000001  0.000002 -0.000004
                                 0.000009 -0.000019  0.000044 -0.000107  0.000278 -0.000733  0.001837 -0.004220  0.008476 -0.014609
                                 0.021474 -0.030953  0.057512 -0.102828  0.108607 -0.101845  0.252740 -0.984941  3.583394 -4.530187
                                 3.604747 -4.795032  3.474574 -0.000000  0.000000  0.000000 -0.000000 -0.000000  0.000000  0.000001
                                -0.000000 -0.000002  0.000000  0.000007 -0.000000 -0.000021  0.000000  0.000049 -0.000000 -0.000129
                                 0.000000  0.000229 -0.000000 -0.000529  0.000000  0.000817 -0.000000  0.003886 -0.000000  0.001960
                                -0.000000  0.003138 -0.000000  0.002208 -0.000000 -0.000265  0.000000  0.001755 -0.000000  0.000088
                                 0.000000  0.000000 -0.000052  0.000000 -0.000000 -0.000370 -0.000000 -0.000000

   6.1   0     0.1906   -2.1354 -0.000000  0.000000 -0.000000  0.000000 -0.000000  0.000000 -0.000001  0.000002 -0.000004  0.000008
                                -0.000017  0.000038 -0.000088  0.000217 -0.000557  0.001441 -0.003730  0.008849 -0.017844  0.028379
                                -0.035306  0.031030 -0.011692 -0.021914 -0.171046  0.473308 -0.359539  2.089012 -8.294136 10.266037
                                -8.528426  7.317693 -2.663992 -0.000000  0.000000  0.000000 -0.000000 -0.000000  0.000000  0.000002
                                -0.000000 -0.000006  0.000000  0.000017 -0.000000 -0.000051  0.000000  0.000122 -0.000000 -0.000305
                                 0.000000  0.000555 -0.000000 -0.001258  0.000000  0.002056 -0.000000  0.006582 -0.000000  0.006199
                                -0.000000  0.003433  0.000000  0.006136 -0.000000 -0.006433  0.000000  0.020276 -0.000001  0.000214
                                 0.000000  0.000000 -0.000198  0.000000 -0.000000 -0.001042 -0.000000 -0.000000

                                   1 2px     1 2px     1 2px     1 2px     1 2px     1 2px     1 2px     1 2px     1 2px     1 2px  
                                   1 2px     1 2px     1 2px     1 2px     1 2px     1 2px     1 2px     1 2px     1 2px     1 2px  
                                   1 2px     1 2px     1 2px     1 2px     1 2px     1 2px     1 4f1+    1 4f3+    1 4f1+    1 4f3+ 
                                   1 4f1+    1 4f3+    1 4f1+    1 4f3+    1 4f1+    1 4f3+    1 4f1+    1 4f3+    1 4f1+    1 4f3+ 
                                   1 4f1+    1 4f3+    1 4f1+    1 4f3+    1 4f1+    1 4f3+    1 4f1+    1 4f3+    1 4f1+    1 4f3+ 
                                   1 4f1+    1 4f3+    1 4f1+    1 4f3+    1 4f1+    1 4f3+    1 4f1+    1 4f3+    1 4f1+    1 4f3+ 


   1.2   2    -2.2584  -15.8528 -0.000000  0.000000 -0.000000  0.000000 -0.000000  0.000002 -0.000006  0.000020 -0.000067  0.000199
                                -0.000689  0.002123 -0.008668  0.030355 -0.060555  0.064409 -0.075857  0.135356 -0.193321 -0.092617
                                 0.544875  0.489414  0.162967 -0.001763  0.006052 -0.001609 -0.000000  0.000000  0.000001 -0.000000
                                -0.000002  0.000000  0.000003 -0.000000 -0.000004  0.000000  0.000009 -0.000000 -0.000025  0.000000
                                 0.000036 -0.000000 -0.000141  0.000000  0.001128 -0.000000  0.003242 -0.000000  0.001885 -0.000000
                                 0.002147 -0.000000 -0.000091  0.000000  0.000394 -0.000000 -0.000147  0.000000  0.000079 -0.000000

   2.2   0     0.1484   -1.9356 -0.000000  0.000000 -0.000000  0.000000 -0.000000  0.000000 -0.000001  0.000003 -0.000011  0.000034
                                -0.000100  0.000329 -0.001370  0.005029 -0.009440  0.009160 -0.007429  0.008444 -0.012510  0.033466
                                -0.072984  0.058227 -0.129811  0.315779 -0.708409  1.384964  0.000000 -0.000000 -0.000000  0.000000
                                 0.000001 -0.000000 -0.000001  0.000000  0.000001 -0.000000 -0.000003  0.000000  0.000006 -0.000000
                                -0.000013  0.000000  0.000028 -0.000000 -0.000069  0.000000  0.000138 -0.000000 -0.000359  0.000000
                                 0.000894 -0.000000 -0.001161  0.000000  0.002859 -0.000000 -0.006347  0.000000  0.008749 -0.000000

   3.2   0     0.2772   -1.8463  0.000000 -0.000000  0.000000 -0.000000  0.000000 -0.000000  0.000001 -0.000002  0.000008 -0.000024
                                 0.000077 -0.000245  0.001013 -0.003638  0.007009 -0.007086  0.006970 -0.010593  0.016253 -0.012245
                                 0.001713 -0.056390  0.058876 -0.105552  0.402334 -0.207393  0.000003  0.000000 -0.000056 -0.000000
                                 0.000188  0.000000 -0.000259 -0.000000  0.000382  0.000000 -0.000869 -0.000000  0.001967  0.000000
                                -0.004151 -0.000000  0.008329  0.000001 -0.017448 -0.000001  0.066094  0.000005 -0.140996 -0.000010
                                 0.318120  0.000022 -0.564475 -0.000039  0.923931  0.000063 -2.398858 -0.000164  2.650628  0.000181

                                   1 2py     1 2py     1 2py     1 2py     1 2py     1 2py     1 2py     1 2py     1 2py     1 2py  
                                   1 2py     1 2py     1 2py     1 2py     1 2py     1 2py     1 2py     1 2py     1 2py     1 2py  
                                   1 2py     1 2py     1 2py     1 2py     1 2py     1 2py     1 4f1-    1 4f3-    1 4f1-    1 4f3- 
                                   1 4f1-    1 4f3-    1 4f1-    1 4f3-    1 4f1-    1 4f3-    1 4f1-    1 4f3-    1 4f1-    1 4f3- 
                                   1 4f1-    1 4f3-    1 4f1-    1 4f3-    1 4f1-    1 4f3-    1 4f1-    1 4f3-    1 4f1-    1 4f3- 
                                   1 4f1-    1 4f3-    1 4f1-    1 4f3-    1 4f1-    1 4f3-    1 4f1-    1 4f3-    1 4f1-    1 4f3- 


   1.3   2    -2.2584  -15.8528 -0.000000  0.000000 -0.000000  0.000000 -0.000000  0.000002 -0.000006  0.000020 -0.000067  0.000199
                                -0.000689  0.002123 -0.008668  0.030355 -0.060555  0.064409 -0.075857  0.135356 -0.193321 -0.092617
                                 0.544875  0.489415  0.162967 -0.001763  0.006052 -0.001609 -0.000000  0.000000  0.000001 -0.000000
                                -0.000002  0.000000  0.000003 -0.000000 -0.000004  0.000000  0.000009 -0.000000 -0.000025  0.000000
                                 0.000036 -0.000000 -0.000141  0.000000  0.001128 -0.000000  0.003243 -0.000000  0.001886 -0.000000
                                 0.002147 -0.000000 -0.000091  0.000000  0.000394 -0.000000 -0.000147  0.000000  0.000079 -0.000000

   2.3   0     0.1484   -1.9356 -0.000000  0.000000 -0.000000  0.000000 -0.000000  0.000000 -0.000001  0.000003 -0.000011  0.000034
                                -0.000100  0.000329 -0.001370  0.005029 -0.009440  0.009160 -0.007429  0.008444 -0.012510  0.033466
                                -0.072984  0.058226 -0.129811  0.315779 -0.708408  1.384963  0.000000 -0.000000 -0.000000  0.000000
                                 0.000001 -0.000000 -0.000001  0.000000  0.000001 -0.000000 -0.000003  0.000000  0.000006 -0.000000
                                -0.000013  0.000000  0.000028 -0.000000 -0.000069  0.000000  0.000138 -0.000000 -0.000359  0.000000
                                 0.000894 -0.000000 -0.001161  0.000000  0.002859 -0.000000 -0.006347  0.000000  0.008748 -0.000000

   3.3   0     0.2772   -1.8463  0.000000 -0.000000  0.000000 -0.000000  0.000000 -0.000000  0.000001 -0.000002  0.000008 -0.000024
                                 0.000077 -0.000245  0.001013 -0.003638  0.007010 -0.007087  0.006971 -0.010595  0.016255 -0.012246
                                 0.001713 -0.056397  0.058884 -0.105565  0.402386 -0.207420  0.000003  0.000000 -0.000056 -0.000000
                                 0.000188  0.000000 -0.000259 -0.000000  0.000382  0.000000 -0.000869 -0.000000  0.001967  0.000000
                                -0.004151 -0.000000  0.008328  0.000001 -0.017448 -0.000001  0.066094  0.000005 -0.140995 -0.000011
                                 0.318118  0.000024 -0.564471 -0.000042  0.923924  0.000069 -2.398841 -0.000180  2.650610  0.000198

                                   1 3d2-    1 3d2-    1 3d2-    1 3d2-    1 3d2-    1 3d2-    1 3d2-    1 3d2-    1 3d2-    1 3d2- 
                                   1 3d2-    1 3d2-    1 3d2-    1 3d2-    1 3d2-    1 3d2-    1 3d2-    1 3d2-    1 5g2-    1 5g4- 
                                   1 5g2-    1 5g4-    1 5g2-    1 5g4- 

   1.4   2    -0.1499   -9.9219 -0.000000  0.000002 -0.000012  0.000048 -0.000172  0.000520 -0.001617  0.003866 -0.010138  0.017717
                                -0.040328  0.060022  0.319825  0.135650  0.338711  0.262503  0.130668  0.012256  0.000963 -0.000000
                                 0.001697 -0.000000  0.002902 -0.000000

   2.4   0     0.2453   -2.1659 -0.000000  0.000001 -0.000005  0.000023 -0.000079  0.000234 -0.000594  0.001386 -0.002719  0.005825
                                -0.011427  0.028547 -0.170640  0.240400 -0.311824  0.259049 -0.555679  1.275082 -0.000030  0.000000
                                -0.000108  0.000000 -0.000054  0.000000

   3.4   0     0.5791   -3.3991  0.000000 -0.000004  0.000023 -0.000096  0.000332 -0.000994  0.002721 -0.006417  0.014322 -0.028048
                                 0.059185 -0.122511  0.265220 -0.788494  0.686460 -1.003470  1.838676 -0.765142 -0.000051  0.000000
                                -0.000485  0.000000  0.000403 -0.000000

                                   1 2pz     1 2pz     1 2pz     1 2pz     1 2pz     1 2pz     1 2pz     1 2pz     1 2pz     1 2pz  
                                   1 2pz     1 2pz     1 2pz     1 2pz     1 2pz     1 2pz     1 2pz     1 2pz     1 2pz     1 2pz  
                                   1 2pz     1 2pz     1 2pz     1 2pz     1 2pz     1 2pz     1 4f0     1 4f2+    1 4f0     1 4f2+ 
                                   1 4f0     1 4f2+    1 4f0     1 4f2+    1 4f0     1 4f2+    1 4f0     1 4f2+    1 4f0     1 4f2+ 
                                   1 4f0     1 4f2+    1 4f0     1 4f2+    1 4f0     1 4f2+    1 4f0     1 4f2+    1 4f0     1 4f2+ 
                                   1 4f0     1 4f2+    1 4f0     1 4f2+    1 4f0     1 4f2+    1 4f0     1 4f2+    1 4f0     1 4f2+ 


   1.5   2    -2.2640  -15.8669 -0.000000  0.000000 -0.000000  0.000000 -0.000000  0.000002 -0.000006  0.000020 -0.000067  0.000199
                                -0.000689  0.002125 -0.008675  0.030377 -0.060602  0.064464 -0.075933  0.135490 -0.193337 -0.093725
                                 0.546943  0.491324  0.159907 -0.003249  0.005888 -0.001637 -0.000000  0.000000  0.000000 -0.000000
                                -0.000001  0.000000  0.000002 -0.000000 -0.000002  0.000000  0.000006 -0.000000 -0.000012  0.000000
                                 0.000043 -0.000000 -0.000118  0.000000 -0.000220 -0.000000 -0.000141 -0.000000 -0.001821 -0.000000
                                -0.002037 -0.000000 -0.000785  0.000000 -0.000430 -0.000000 -0.000008  0.000000 -0.000019 -0.000000

   2.5   0     0.1472   -1.9559 -0.000000  0.000000 -0.000000  0.000000 -0.000000  0.000000 -0.000001  0.000003 -0.000010  0.000032
                                -0.000096  0.000315 -0.001312  0.004823 -0.009040  0.008753 -0.007016  0.007793 -0.011514  0.032980
                                -0.073660  0.054606 -0.126587  0.315195 -0.689661  1.374525  0.000000 -0.000000 -0.000000  0.000000
                                 0.000001 -0.000000 -0.000002  0.000000  0.000002 -0.000000 -0.000005  0.000000  0.000012 -0.000000
                                -0.000026  0.000000  0.000057 -0.000000 -0.000138  0.000000  0.000055 -0.000000 -0.000425  0.000000
                                 0.001405 -0.000000 -0.001123  0.000000  0.004242 -0.000000 -0.008577  0.000000  0.012416 -0.000000

   3.5   0     0.2718   -3.5341  0.000000 -0.000000  0.000000 -0.000000  0.000000 -0.000001  0.000003 -0.000010  0.000035 -0.000106
                                 0.000339 -0.001079  0.004451 -0.015973  0.030808 -0.031195  0.030895 -0.047333  0.072701 -0.051543
                                -0.002010 -0.252451  0.256000 -0.426093  1.771499 -0.916273  0.000000 -0.000000 -0.000007  0.000000
                                 0.000024 -0.000000 -0.000032  0.000000  0.000048 -0.000000 -0.000108  0.000000  0.000247 -0.000000
                                -0.000522  0.000000  0.001067 -0.000000 -0.002304  0.000000  0.007223 -0.000000 -0.016636  0.000000
                                 0.041650 -0.000001 -0.066525  0.000001  0.119354 -0.000002 -0.287602  0.000005  0.329881 -0.000006

                                   1 3d1+    1 3d1+    1 3d1+    1 3d1+    1 3d1+    1 3d1+    1 3d1+    1 3d1+    1 3d1+    1 3d1+ 
                                   1 3d1+    1 3d1+    1 3d1+    1 3d1+    1 3d1+    1 3d1+    1 3d1+    1 3d1+    1 5g1+    1 5g3+ 
                                   1 5g1+    1 5g3+    1 5g1+    1 5g3+ 

   1.6   2    -0.1753   -9.9995 -0.000000  0.000002 -0.000012  0.000048 -0.000173  0.000524 -0.001630  0.003898 -0.010220  0.017866
                                -0.040678  0.060317  0.323058  0.136959  0.342208  0.259739  0.121769  0.007944  0.000991 -0.000000
                                 0.002130 -0.000000  0.002861 -0.000000

   2.6   0     0.2441   -2.1625 -0.000000  0.000001 -0.000005  0.000023 -0.000079  0.000235 -0.000598  0.001396 -0.002753  0.005877
                                -0.011559  0.028660 -0.167419  0.239168 -0.307425  0.258929 -0.548858  1.272689 -0.000135  0.000000
                                -0.000486  0.000000 -0.000108  0.000000

   3.6   0     0.5742   -3.3833  0.000000 -0.000004  0.000023 -0.000094  0.000328 -0.000981  0.002686 -0.006334  0.014131 -0.027685
                                 0.058417 -0.120980  0.263342 -0.779771  0.679796 -0.989380  1.835979 -0.767665 -0.000368  0.000000
                                -0.002042  0.000000  0.001304 -0.000000

                                   1 3d1-    1 3d1-    1 3d1-    1 3d1-    1 3d1-    1 3d1-    1 3d1-    1 3d1-    1 3d1-    1 3d1- 
                                   1 3d1-    1 3d1-    1 3d1-    1 3d1-    1 3d1-    1 3d1-    1 3d1-    1 3d1-    1 5g1-    1 5g3- 
                                   1 5g1-    1 5g3-    1 5g1-    1 5g3- 

   1.7   2    -0.1753   -9.9995 -0.000000  0.000002 -0.000012  0.000048 -0.000173  0.000524 -0.001630  0.003898 -0.010220  0.017866
                                -0.040678  0.060317  0.323058  0.136959  0.342209  0.259739  0.121769  0.007944  0.000990 -0.000000
                                 0.002130 -0.000000  0.002861 -0.000000

   2.7   0     0.2441   -2.1625 -0.000000  0.000001 -0.000005  0.000023 -0.000079  0.000235 -0.000598  0.001396 -0.002753  0.005877
                                -0.011559  0.028660 -0.167419  0.239168 -0.307424  0.258929 -0.548858  1.272689 -0.000135  0.000000
                                -0.000486  0.000000 -0.000108  0.000000

   3.7   0     0.5742   -3.3833  0.000000 -0.000004  0.000023 -0.000094  0.000328 -0.000981  0.002686 -0.006334  0.014131 -0.027685
                                 0.058417 -0.120980  0.263342 -0.779770  0.679795 -0.989379  1.835979 -0.767665 -0.000368  0.000000
                                -0.002042  0.000000  0.001304 -0.000000

                                   1 4f2-    1 4f2-    1 4f2-    1 4f2-    1 4f2-    1 4f2-    1 4f2-    1 4f2-    1 4f2-    1 4f2- 
                                   1 4f2-    1 4f2-    1 4f2-    1 4f2-    1 4f2-    1 4f2-    1 4f2- 

   1.8   0     0.2777   -1.7604  0.000004 -0.000058  0.000194 -0.000267  0.000393 -0.000894  0.002023 -0.004271  0.008565 -0.017934
                                 0.067974 -0.144998  0.326780 -0.580568  0.949167 -2.467458  2.722572

   2.8   0     0.5371   -2.2169 -0.000006  0.000099 -0.000332  0.000457 -0.000674  0.001531 -0.003477  0.007310 -0.014779  0.032329
                                -0.113669  0.261009 -0.570366  1.076589 -1.743125  4.121197 -2.541033

 HOMO      1.4    -0.149908 =      -4.0792eV
 LUMO      5.1     0.093998 =       2.5578eV
 LUMO-HOMO         0.243906 =       6.6370eV


 **********************************************************************************************************************************
 DATASETS  * FILE   NREC   LENGTH (MB)   RECORD NAMES
              1      19       20.81       500      610      700      900      950      970     1000      129      960     1100   
                                          VAR    BASINP    GEOM    SYMINP    ZMAT    AOBASIS   BASIS     P2S    ABASIS      S 
                                         1400     1410     1420     1200     1210     1080     1600     1650     1700   
                                           T        V       ECP      H0       H01     AOSYM     SMH    MOLCAS    OPER   

              2       5        5.93       200      700     1000      520     4202   
                                        OPTIONS   GEOM     BASIS   MCVARS     RHF  

 PROGRAMS   *        TOTAL       RHF  RCCSD(T)       RHF       INT
 CPU TIMES  *       128.41      2.40     46.88      1.83     76.57
 REAL TIME  *       187.69 SEC
 DISK USED  *         5.53 GB      
 SF USED    *         1.24 GB      
 GA USED    *         0.00 MB       (max)       0.00 MB       (current)
 **********************************************************************************************************************************


 PROGRAM * POP (Mulliken population analysis)

 
 Density matrix read from record         4202.2  Type=RHF/CHARGE (state 1.1)
 
 Population analysis by basis function type

 Unique atom        s        p        d        f        g    Total    Charge
   1  PT      4.00065  5.99975  8.99902  0.00025  0.00033 19.00000  - 1.00000


 **********************************************************************************************************************************
 DATASETS  * FILE   NREC   LENGTH (MB)   RECORD NAMES
              1      19       20.81       500      610      700      900      950      970     1000      129      960     1100   
                                          VAR    BASINP    GEOM    SYMINP    ZMAT    AOBASIS   BASIS     P2S    ABASIS      S 
                                         1400     1410     1420     1200     1210     1080     1600     1650     1700   
                                           T        V       ECP      H0       H01     AOSYM     SMH    MOLCAS    OPER   

              2       5        5.93       200      700     1000      520     4202   
                                        OPTIONS   GEOM     BASIS   MCVARS     RHF  

 PROGRAMS   *        TOTAL       POP       RHF  RCCSD(T)       RHF       INT
 CPU TIMES  *       128.42      0.01      2.40     46.88      1.83     76.57
 REAL TIME  *       187.71 SEC
 DISK USED  *         5.53 GB      
 SF USED    *         1.24 GB      
 GA USED    *         0.00 MB       (max)       0.00 MB       (current)
 **********************************************************************************************************************************


 PROGRAM * MULTI (Direct Multiconfiguration SCF)       Authors: P.J. Knowles, H.-J. Werner (1984)     S.T. Elbert (1988)


 Number of closed-shell orbitals:   5 (   2   1   1   0   1   0   0   0 )
 Number of active  orbitals:        5 (   2   0   0   1   0   1   1   0 )
 Number of external orbitals:     337 (  74  59  59  23  59  23  23  17 )

 State symmetry 1

 Number of electrons:     9    Spin symmetry=Doublet   Space symmetry=1
 Number of states:        2
 Number of CSFs:          2   (2 determinants, 5 intermediate states)

 State symmetry 2

 Number of electrons:     9    Spin symmetry=Doublet   Space symmetry=4
 Number of states:        1
 Number of CSFs:          1   (1 determinants, 5 intermediate states)

 State symmetry 3

 Number of electrons:     9    Spin symmetry=Doublet   Space symmetry=6
 Number of states:        1
 Number of CSFs:          1   (1 determinants, 5 intermediate states)

 State symmetry 4

 Number of electrons:     9    Spin symmetry=Doublet   Space symmetry=7
 Number of states:        1
 Number of CSFs:          1   (1 determinants, 5 intermediate states)

 Molecular orbitals read from record     4202.2  Type=RHF/CANONICAL (state 1.1)
 *** IN SYMMETRY 1 ORBITAL  1 SYMMETRY CONTAMINATION OF 0.216D-02 HAS BEEN REMOVED
 *** IN SYMMETRY 1 ORBITAL  2 SYMMETRY CONTAMINATION OF 0.132D-01 HAS BEEN REMOVED
 *** IN SYMMETRY 1 ORBITAL  3 SYMMETRY CONTAMINATION OF 0.418D-02 HAS BEEN REMOVED
 *** IN SYMMETRY 1 ORBITAL  4 SYMMETRY CONTAMINATION OF 0.142D+00 HAS BEEN REMOVED

 EXTRA SYMMETRY OF MOS IN SYMMETRY 1:   1 1 3 2 1 1 2 3 1 2   3 1 2 3 1 4 6 5 2 3   1 4 6 5 2 3 1 4 6 5   2 3 1 2 3 1 2 3 1 2
                                        3 1 2 3 1 2 3 1 2 3   1 1 2 3 1 2 3 1 2 3   1 1 2 3 1 1 2 3 1 1   1 1 1 1 1 1 1 1
 *** IN SYMMETRY 2 ORBITAL  1 SYMMETRY CONTAMINATION OF 0.496D-02 HAS BEEN REMOVED
 EXTRA SYMMETRY OF MOS IN SYMMETRY 2:   1 1 2 3 1 2 3 1 2 3   2 3 1 2 3 2 3 1 2 3   1 2 3 1 2 3 1 2 3 1   2 3 1 2 3 1 2 3 1 1
                                        2 3 1 2 3 1 2 3 1 2   3 1 1 1 1 1 1 1 1 1
 *** IN SYMMETRY 3 ORBITAL  1 SYMMETRY CONTAMINATION OF 0.496D-02 HAS BEEN REMOVED
 EXTRA SYMMETRY OF MOS IN SYMMETRY 3:   1 1 2 3 1 2 3 1 2 3   2 3 1 2 3 2 3 1 2 3   1 2 3 1 2 3 1 2 3 1   2 3 1 2 3 1 2 3 1 1
                                        2 3 1 2 3 1 2 3 1 2   3 1 1 1 1 1 1 1 1 1
 *** IN SYMMETRY 4 ORBITAL  1 SYMMETRY CONTAMINATION OF 0.415D-02 HAS BEEN REMOVED
 EXTRA SYMMETRY OF MOS IN SYMMETRY 4:   1 1 1 1 2 3 1 2 3 1   2 3 1 1 1 1 1 1 1 1   1 1 1 1
 *** IN SYMMETRY 5 ORBITAL  1 SYMMETRY CONTAMINATION OF 0.300D-02 HAS BEEN REMOVED
 EXTRA SYMMETRY OF MOS IN SYMMETRY 5:   1 1 1 2 3 2 3 1 2 3   2 3 1 2 3 2 3 1 2 3   1 2 3 1 2 3 1 2 3 1   2 3 1 2 3 1 2 3 1 1
                                        2 3 1 2 3 1 2 3 1 2   3 1 1 1 1 1 1 1 1 1
 *** IN SYMMETRY 6 ORBITAL  1 SYMMETRY CONTAMINATION OF 0.449D-02 HAS BEEN REMOVED
 EXTRA SYMMETRY OF MOS IN SYMMETRY 6:   1 1 1 1 2 3 1 2 3 1   2 3 1 1 1 1 1 1 1 1   1 1 1 1
 *** IN SYMMETRY 7 ORBITAL  1 SYMMETRY CONTAMINATION OF 0.449D-02 HAS BEEN REMOVED
 EXTRA SYMMETRY OF MOS IN SYMMETRY 7:   1 1 1 1 2 3 1 2 3 1   2 3 1 1 1 1 1 1 1 1   1 1 1 1

 Wavefunction dump at record             5202.2

 Convergence thresholds  0.10E-01 (gradient)  0.10E-05 (energy)  0.10E-02 (step length)

 Weight factors for state symmetry  1:    0.20000   0.20000
 Weight factors for state symmetry  2:    0.20000
 Weight factors for state symmetry  3:    0.20000
 Weight factors for state symmetry  4:    0.20000

 Number of orbital rotations:      546   (     4 Core/Active    325 Core/Virtual   0 Active/Active    217 Active/Virtual)
 Total number of variables:        553


 ITER. MIC  NCI  NEG     ENERGY(VAR)     ENERGY(PROJ)   ENERGY CHANGE     GRAD(0)  GRAD(ORB)   GRAD(CI)     STEP       TIME

   1   32   16    0    -118.33581631    -118.33680036   -0.00098405    0.04070409 0.00000000 0.00000000  0.33D-01      0.46
   2   28   20    0    -118.33680055    -118.33680066   -0.00000011    0.00029370 0.00000000 0.00000000  0.66D-03      0.86
   3   23   20    0    -118.33680066    -118.33680066    0.00000000    0.00000006 0.00000000 0.00000000  0.13D-06      1.20

 ** WVFN ****  CONVERGENCE REACHED, FINAL GRADIENT:  0.13D-09



 Results for state 1.1
 =====================

 !MCSCF STATE 1.1 Energy             -118.336800659441
 Nuclear energy                         0.00000000
 Kinetic energy                        38.25879467
 One electron energy                 -213.09782328
 Two electron energy                   94.76102262
 Virial ratio                           4.09306139

 !MCSCF STATE 1.1 Dipole moment         0.00000000     0.00000000     0.00000000
 Dipole moment /Debye                   0.00000000     0.00000000     0.00000000

 Results for state 2.1
 =====================

 !MCSCF STATE 2.1 Energy             -118.336800659441
 Nuclear energy                         0.00000000
 Kinetic energy                        38.25879467
 One electron energy                 -213.09782328
 Two electron energy                   94.76102262
 Virial ratio                           4.09306139

 !MCSCF STATE 2.1 Dipole moment         0.00000000     0.00000000     0.00000000
 Dipole moment /Debye                   0.00000000     0.00000000     0.00000000



 Results for state 1.4
 =====================

 !MCSCF STATE 1.4 Energy             -118.336800659441
 Nuclear energy                         0.00000000
 Kinetic energy                        38.25879467
 One electron energy                 -213.09782328
 Two electron energy                   94.76102262
 Virial ratio                           4.09306139

 !MCSCF STATE 1.4 Dipole moment         0.00000000     0.00000000     0.00000000
 Dipole moment /Debye                   0.00000000     0.00000000     0.00000000



 Results for state 1.6
 =====================

 !MCSCF STATE 1.6 Energy             -118.336800659441
 Nuclear energy                         0.00000000
 Kinetic energy                        38.25879467
 One electron energy                 -213.09782328
 Two electron energy                   94.76102262
 Virial ratio                           4.09306139

 !MCSCF STATE 1.6 Dipole moment         0.00000000     0.00000000     0.00000000
 Dipole moment /Debye                   0.00000000     0.00000000     0.00000000



 Results for state 1.7
 =====================

 !MCSCF STATE 1.7 Energy             -118.336800659441
 Nuclear energy                         0.00000000
 Kinetic energy                        38.25879467
 One electron energy                 -213.09782328
 Two electron energy                   94.76102262
 Virial ratio                           4.09306139

 !MCSCF STATE 1.7 Dipole moment         0.00000000     0.00000000     0.00000000
 Dipole moment /Debye                   0.00000000     0.00000000     0.00000000

 State-averaged charge density matrix saved on record  5202.2 (density set 1)


 NATURAL ORBITALS (state averaged)
 =================================

   Orb     Occ        Energy       Coefficients

                                   1 1s      1 1s      1 1s      1 1s      1 1s      1 1s      1 1s      1 1s      1 1s      1 1s   
                                   1 1s      1 1s      1 1s      1 1s      1 1s      1 1s      1 1s      1 1s      1 1s      1 1s   
                                   1 1s      1 1s      1 1s      1 1s      1 1s      1 1s      1 1s      1 1s      1 1s      1 1s   
                                   1 1s      1 1s      1 1s      1 3d0     1 3d2+    1 3d0     1 3d2+    1 3d0     1 3d2+    1 3d0  
                                   1 3d2+    1 3d0     1 3d2+    1 3d0     1 3d2+    1 3d0     1 3d2+    1 3d0     1 3d2+    1 3d0  
                                   1 3d2+    1 3d0     1 3d2+    1 3d0     1 3d2+    1 3d0     1 3d2+    1 3d0     1 3d2+    1 3d0  
                                   1 3d2+    1 3d0     1 3d2+    1 3d0     1 3d2+    1 3d0     1 3d2+    1 3d0     1 3d2+    1 5g0  
                                   1 5g4+    1 5g2+    1 5g0     1 5g4+    1 5g2+    1 5g0     1 5g4+    1 5g2+ 

   1.1  2.00000    -4.207100     0.000000 -0.000000  0.000000 -0.000000  0.000000 -0.000001  0.000002 -0.000003  0.000007 -0.000015
                                 0.000030 -0.000067  0.000157 -0.000385  0.001010 -0.002765  0.006591 -0.014432  0.029586 -0.061322
                                 0.117385 -0.244311  0.596917 -1.042784  0.087240  0.897668  0.417642  0.063354 -0.056350  0.036718
                                -0.008050  0.002586 -0.000717  0.000000  0.000000  0.000000  0.000000  0.000000  0.000000  0.000000
                                 0.000000  0.000000  0.000000  0.000000  0.000000  0.000000  0.000000  0.000000  0.000000  0.000000
                                 0.000000  0.000000  0.000000  0.000000  0.000000  0.000000  0.000000  0.000000  0.000000  0.000000
                                 0.000000  0.000000  0.000000  0.000000  0.000000  0.000000  0.000000  0.000000  0.000000  0.000000
                                 0.000000  0.000000  0.000000  0.000000  0.000000  0.000000  0.000000  0.000000

   2.1  2.00000    -0.045513    -0.000000  0.000000 -0.000000  0.000000 -0.000000  0.000000 -0.000000  0.000000 -0.000000  0.000001
                                -0.000001  0.000003 -0.000008  0.000018 -0.000053  0.000175 -0.000288  0.000302 -0.000521  0.004000
                                -0.014250  0.046414 -0.146007  0.316255 -0.082080 -0.325501 -0.243517  0.138019  0.147711  0.263105
                                 0.390128  0.218974  0.075147  0.000000  0.000000  0.000000  0.000000  0.000000  0.000000  0.000000
                                 0.000000  0.000000  0.000000  0.000000  0.000000  0.000000  0.000000  0.000000  0.000000  0.000000
                                 0.000000  0.000000  0.000000  0.000000  0.000000  0.000000  0.000000  0.000000  0.000000  0.000000
                                 0.000000  0.000000  0.000000  0.000000  0.000000  0.000000  0.000000  0.000000  0.000000  0.000000
                                 0.000000  0.000000  0.000000  0.000000  0.000000  0.000000  0.000000  0.000000

   3.1  1.80000    -0.115686     0.000000  0.000000  0.000000  0.000000  0.000000  0.000000  0.000000  0.000000  0.000000  0.000000
                                 0.000000  0.000000  0.000000  0.000000  0.000000  0.000000  0.000000  0.000000  0.000000  0.000000
                                 0.000000  0.000000  0.000000  0.000000  0.000000  0.000000  0.000000  0.000000  0.000000  0.000000
                                 0.000000  0.000000  0.000000 -0.000000  0.000000  0.000002  0.000000 -0.000012  0.000000  0.000048
                                 0.000000 -0.000173  0.000000  0.000523  0.000000 -0.001626  0.000000  0.003889  0.000000 -0.010196
                                 0.000000  0.017822  0.000000 -0.040562  0.000000  0.060147  0.000000  0.322187  0.000000  0.136747
                                 0.000000  0.341402  0.000000  0.260357  0.000000  0.124028  0.000000  0.009006  0.000000  0.000000
                                 0.000000  0.000000  0.000000  0.000000  0.000000  0.000000  0.000000  0.000000

   4.1  1.80000    -0.115686     0.000000  0.000000  0.000000  0.000000  0.000000  0.000000  0.000000  0.000000  0.000000  0.000000
                                 0.000000  0.000000  0.000000  0.000000  0.000000  0.000000  0.000000  0.000000  0.000000  0.000000
                                 0.000000  0.000000  0.000000  0.000000  0.000000  0.000000  0.000000  0.000000  0.000000  0.000000
                                 0.000000  0.000000  0.000000  0.000000 -0.000000  0.000000  0.000002  0.000000 -0.000012  0.000000
                                 0.000048  0.000000 -0.000173  0.000000  0.000523  0.000000 -0.001626  0.000000  0.003889  0.000000
                                -0.010196  0.000000  0.017822  0.000000 -0.040562  0.000000  0.060147  0.000000  0.322187  0.000000
                                 0.136747  0.000000  0.341402  0.000000  0.260357  0.000000  0.124028  0.000000  0.009006  0.000000
                                 0.000000  0.000000  0.000000  0.000000  0.000000  0.000000  0.000000  0.000000

                                   1 2px     1 2px     1 2px     1 2px     1 2px     1 2px     1 2px     1 2px     1 2px     1 2px  
                                   1 2px     1 2px     1 2px     1 2px     1 2px     1 2px     1 2px     1 2px     1 2px     1 2px  
                                   1 2px     1 2px     1 2px     1 2px     1 2px     1 2px     1 4f1+    1 4f3+    1 4f1+    1 4f3+ 
                                   1 4f1+    1 4f3+    1 4f1+    1 4f3+    1 4f1+    1 4f3+    1 4f1+    1 4f3+    1 4f1+    1 4f3+ 
[...]
                                   1 4f0     1 4f2+    1 4f0     1 4f2+    1 4f0     1 4f2+    1 4f0     1 4f2+    1 4f0     1 4f2+ 


   1.5  2.00000    -7.588778    -0.000000  0.000000 -0.000000  0.000000 -0.000000  0.000002 -0.000006  0.000020 -0.000068  0.000201
                                -0.000709  0.002169 -0.008830  0.030721 -0.061676  0.066174 -0.080373  0.147605 -0.215298 -0.118345
                                 0.725432  0.449729  0.025026 -0.002732  0.000936 -0.000274  0.000000  0.000000  0.000000  0.000000
                                 0.000000  0.000000  0.000000  0.000000  0.000000  0.000000  0.000000  0.000000  0.000000  0.000000
                                 0.000000  0.000000  0.000000  0.000000  0.000000  0.000000  0.000000  0.000000  0.000000  0.000000
                                 0.000000  0.000000  0.000000  0.000000  0.000000  0.000000  0.000000  0.000000  0.000000  0.000000

   2.5  0.14286    -2.739413     0.000000  0.000000  0.000000  0.000000  0.000000  0.000000  0.000000  0.000000  0.000000  0.000000
                                 0.000000  0.000000  0.000000  0.000000  0.000000  0.000000  0.000000  0.000000  0.000000  0.000000
                                 0.000000  0.000000  0.000000  0.000000  0.000000  0.000000 -0.000002  0.000000  0.000025  0.000000
                                -0.000082  0.000000  0.000111  0.000000 -0.000180  0.000000  0.000349  0.000000 -0.001192  0.000000
                                 0.000668  0.000000 -0.004863  0.000000  0.078720  0.000000  0.228477  0.000000  0.355982  0.000000
                                 0.435023  0.000000  0.044988  0.000000  0.034242  0.000000 -0.017245  0.000000  0.008113  0.000000

   3.5  0.14286    -2.739413     0.000000  0.000000  0.000000  0.000000  0.000000  0.000000  0.000000  0.000000  0.000000  0.000000
                                 0.000000  0.000000  0.000000  0.000000  0.000000  0.000000  0.000000  0.000000  0.000000  0.000000
                                 0.000000  0.000000  0.000000  0.000000  0.000000  0.000000  0.000000 -0.000002  0.000000  0.000025
                                 0.000000 -0.000082  0.000000  0.000111  0.000000 -0.000180  0.000000  0.000349  0.000000 -0.001192
                                 0.000000  0.000668  0.000000 -0.004863  0.000000  0.078720  0.000000  0.228477  0.000000  0.355982
                                 0.000000  0.435023  0.000000  0.044988  0.000000  0.034242  0.000000 -0.017245  0.000000  0.008113

                                   1 4f2-    1 4f2-    1 4f2-    1 4f2-    1 4f2-    1 4f2-    1 4f2-    1 4f2-    1 4f2-    1 4f2- 
                                   1 4f2-    1 4f2-    1 4f2-    1 4f2-    1 4f2-    1 4f2-    1 4f2- 

   1.8  0.14286    -2.739413    -0.000002  0.000025 -0.000082  0.000111 -0.000180  0.000349 -0.001192  0.000668 -0.004863  0.078720
                                 0.228477  0.355982  0.435023  0.044988  0.034242 -0.017245  0.008113

 Total charge:   9.000000000000
 

 EXTRA SYMMETRY OF MOS IN SYMMETRY 1:   1 3 2 1 2 3 1 6 5 4   3 2 1 3 2 1 1 2 3 1   1 4 5 6 2 3 1 4 5 6   2 3 1 2 3 1 2 3 1 2
                                        3 1 2 3 1 2 3 1 3 2   1 1 2 3 1 2 3 1 3 2   1 1 3 2 1 1 2 3 1 1   1 1 1 1 1 1 1 1
 EXTRA SYMMETRY OF MOS IN SYMMETRY 2:   1 2 3 1 1 3 2 1 3 2   2 3 1 3 2 1 2 3 2 3   1 2 3 1 2 3 1 2 3 1   2 3 1 3 2 1 3 2 1 1
                                        3 2 1 3 2 1 2 3 1 2   3 1 1 1 1 1 1 1 1 1
 EXTRA SYMMETRY OF MOS IN SYMMETRY 3:   1 2 3 1 1 2 3 1 2 3   2 3 1 3 2 1 2 3 2 3   1 2 3 1 2 3 1 2 3 1   2 3 1 2 3 1 2 3 1 1
                                        3 2 1 3 2 1 2 3 1 2   3 1 1 1 1 1 1 1 1 1
 EXTRA SYMMETRY OF MOS IN SYMMETRY 4:   1 1 2 3 1 1 1 3 2 1   3 2 1 1 1 1 1 1 1 1   1 1 1 1
 EXTRA SYMMETRY OF MOS IN SYMMETRY 5:   1 2 3 1 1 2 3 1 3 2   3 2 1 2 3 1 2 3 2 3   1 3 2 1 2 3 1 2 3 1   2 3 1 2 3 1 2 3 1 1
                                        2 3 1 2 3 1 2 3 1 2   3 1 1 1 1 1 1 1 1 1
 EXTRA SYMMETRY OF MOS IN SYMMETRY 7:   1 1 2 3 1 1 1 3 2 1   3 2 1 1 1 1 1 1 1 1   1 1 1 1

 Natural orbital dump (state averaged) at molpro section  5202.2    (Orbital set 2)


 CI vector for state symmetry 1
 ==============================

 0a 00 00 0         -0.1234757   0.9923476
 a0 00 00 0          0.9923476   0.1234757

 TOTAL ENERGIES                       -96.00114193   -96.00114193

 CI vector for state symmetry 2
 ==============================

 00 0a 00 0          0.1238225   0.9923044
 00 a0 00 0          0.9923044  -0.1238225

 TOTAL ENERGIES                       -96.00114193   -96.00114193

 CI vector for state symmetry 3
 ==============================

 00 00 0a 0          1.0000000   0.0000000
 00 00 a0 0          0.0000000   1.0000000

 TOTAL ENERGIES                       -96.00114193   -96.00114193

 CI vector for state symmetry 4
 ==============================

 00 00 00 a          1.0000000

 TOTAL ENERGIES                       -96.00114193



 **********************************************************************************************************************************
 DATASETS  * FILE   NREC   LENGTH (MB)   RECORD NAMES
              1      20       46.45       500      610      700      900      950      970     1000      129      960     1100   
                                          VAR    BASINP    GEOM    SYMINP    ZMAT    AOBASIS   BASIS     P2S    ABASIS      S 
                                         1400     1410     1420     1200     1210     1080     1600     1650     1700     1380   
                                           T        V       ECP      H0       H01     AOSYM     SMH    MOLCAS    OPER     JKOP   

              2      19       48.91       200      700     1000      520     4202     5202     2102     2105     5202(1)  2107   
                                        OPTIONS   GEOM     BASIS   MCVARS     RHF     MCSCF     RHF      RHF     MCSCF     RHF  
                                         2109     2111     2113     2115     2117     2119     2120     2121     2123   
                                          RHF      RHF      RHF      RHF      RHF      RHF      RHF      RHF      RHF  

 PROGRAMS   *        TOTAL     MULTI       POP       RHF  RCCSD(T)       RHF     MULTI       POP       RHF  RCCSD(T)       RHF
 CPU TIMES  *       622.06      2.79      0.00      3.01     36.94      0.09      4.99      0.01      1.99      1.07      0.91
 REAL TIME  *      1222.49 SEC
 DISK USED  *         6.02 GB      
 SF USED    *         1.40 GB      
 GA USED    *         0.00 MB       (max)       0.00 MB       (current)
 **********************************************************************************************************************************


 PROGRAM * RHF-SCF (OPEN SHELL)       Authors: W. Meyer, H.-J. Werner


 NUMBER OF ELECTRONS:       5+    4-    SPACE SYMMETRY=8    SPIN SYMMETRY: Doublet 
 CONVERGENCE THRESHOLDS:    1.00E-05 (Density)    1.00E-07 (Energy)
 MAX. NUMBER OF ITERATIONS:        0
 INTERPOLATION TYPE:            DIIS
 INTERPOLATION STEPS:              2 (START)      1 (STEP)
 LEVEL SHIFTS:                 -0.60 (CLOSED) -0.30 (OPEN) 

 Number of closed-shell orbitals:    4 (   1   1   1   0   1   0   0   0 )
 Number of open-shell orbitals:      1 (   0   0   0   0   0   0   0   1 )


 Molecular orbitals read from record     5202.2  Type=MCSCF/NATURAL (state averaged)

 Molecular orbital dump at record        2127.2

 ITERATION    DDIFF          GRAD             ENERGY        2-EL.EN.            DIPOLE MOMENTS         DIIS   ORB.
    1      0.000D+00      0.000D+00       -96.00114193     55.505158    0.00000    0.00000    0.00000    0    start

 Final alpha occupancy:   1   1   1   0   1   0   0   1
 Final beta  occupancy:   1   1   1   0   1   0   0   0

 !RHF STATE 1.8 Energy                -96.001141925853
 Nuclear energy                         0.00000000
 One-electron energy                 -123.75372080
 Two-electron energy                   27.75257887
 Virial quotient                       -4.06916271
 !RHF STATE 1.8 Dipole moment           0.00000000     0.00000000     0.00000000
 Dipole moment /Debye                   0.00000000     0.00000000     0.00000000

 Orbital energies:

         1.1          2.1          3.1
     -9.752806    -4.664789    -4.664789

         1.2          2.2          3.2
     -7.588778    -2.739413    -2.739413

         1.3          2.3          3.3
     -7.588778    -2.739413    -2.739413

         1.4          2.4
     -4.664789    -2.417882

         1.5          2.5          3.5
     -7.588778    -2.739413    -2.739413

         1.6          2.6
     -4.664789    -2.417882

         1.7          2.7
     -4.664789    -2.417882

         1.8          2.8          3.8
     -2.739413    -1.696220    -1.162633

 HOMO      1.8    -2.739413 =     -74.5432eV
 LUMO      2.1    -4.664789 =    -126.9354eV
 LUMO-HOMO        -1.925375 =     -52.3921eV


 **********************************************************************************************************************************
 DATASETS  * FILE   NREC   LENGTH (MB)   RECORD NAMES
              1      20       46.45       500      610      700      900      950      970     1000      129      960     1100   
                                          VAR    BASINP    GEOM    SYMINP    ZMAT    AOBASIS   BASIS     P2S    ABASIS      S 
                                         1400     1410     1420     1200     1210     1080     1600     1650     1700     1380   
                                           T        V       ECP      H0       H01     AOSYM     SMH    MOLCAS    OPER     JKOP   

              2      20       52.17       200      700     1000      520     4202     5202     2102     2105     5202(1)  2107   
                                        OPTIONS   GEOM     BASIS   MCVARS     RHF     MCSCF     RHF      RHF     MCSCF     RHF  
                                         2109     2111     2113     2115     2117     2119     2120     2121     2123     2127   
                                          RHF      RHF      RHF      RHF      RHF      RHF      RHF      RHF      RHF      RHF  

 PROGRAMS   *        TOTAL       RHF     MULTI       POP       RHF  RCCSD(T)       RHF     MULTI       POP       RHF  RCCSD(T)
 CPU TIMES  *       622.14      0.07      2.79      0.00      3.01     36.94      0.09      4.99      0.01      1.99      1.07
 REAL TIME  *      1222.64 SEC
 DISK USED  *         6.02 GB      
 SF USED    *         1.40 GB      
 GA USED    *         0.00 MB       (max)       0.00 MB       (current)
 **********************************************************************************************************************************
 SETTING SCF(15)        =       -96.00114193  AU                              
 SETTING _CC_NORM_MAX   =         2.00000000                                  


 PROGRAM * CCSD (Restricted open-shell coupled cluster)     Authors: C. Hampel, H.-J. Werner, 1991, M. Deegan, P.J. Knowles, 1992


 Convergence thresholds:  THRVAR = 1.00D-08  THRDEN = 1.00D-06

 CCSD(T)     terms to be evaluated (factor= 1.000)


 Number of closed-shell orbitals:   4 (   1   1   1   0   1   0   0   0 )
 Number of active  orbitals:        1 (   0   0   0   0   0   0   0   1 )
 Number of external orbitals:     342 (  77  59  59  24  59  24  24  16 )

 Memory could be reduced to 61.86 Mwords without degradation in triples

 Number of N-1 electron functions:               9
 Number of N-2 electron functions:              36
 Number of singly external CSFs:               525
 Number of doubly external CSFs:            416837
 Total number of CSFs:                      417362

 Molecular orbitals read from record     2127.2  Type=RHF/CANONICAL (state 1.8)

 Integral transformation finished. Total CPU:   0.94 sec, npass=  1  Memory used:   8.91 MW

 Starting RMP2 calculation

 Wavefunction is spin-projected

 ITER.      SQ.NORM     CORR.ENERGY   TOTAL ENERGY   ENERGY CHANGE        DEN1      VAR(S)    VAR(P)  DIIS     TIME
   1      1.06477097    -0.32713291   -96.32827483    -0.32713291    -0.00091696  0.30D-07  0.45D-03  1  1     1.03
   2      1.06584645    -0.32812650   -96.32926843    -0.00099360    -0.00000242  0.62D-10  0.13D-05  2  2     1.06
   3      1.06590027    -0.32816215   -96.32930408    -0.00003565    -0.00000000  0.35D-13  0.70D-10  3  3     1.10
   4      1.06590046    -0.32816225   -96.32930418    -0.00000010    -0.00000000  0.40D-17  0.13D-12  4  4     1.14

 Norm of t1 vector:      0.00665787      S-energy:    -0.00025655      T1 diagnostic:  0.00031837
 Norm of t2 vector:      0.25662450      P-energy:    -0.32790570
                                         Alpha-Beta:  -0.24949421
                                         Alpha-Alpha: -0.05058273
                                         Beta-Beta:   -0.02782876

 Spin contamination <S**2-Sz**2-Sz>     0.00000000
  Reference energy                    -96.001141925853
  RHF-RMP2 correlation energy          -0.328162250965
 !RHF-RMP2 energy                     -96.329304176818
 (NB above energy spin projected)

 Starting RCCSD calculation

 ITER.      SQ.NORM     CORR.ENERGY   TOTAL ENERGY   ENERGY CHANGE        DEN1      VAR(S)    VAR(P)  DIIS     TIME
   1      1.08618152    -0.34265672   -96.34379865    -0.34265672    -0.01297991  0.47D-03  0.59D-02  1  1     3.41
   2      1.11950211    -0.35778403   -96.35892596    -0.01512731    -0.00382532  0.79D-04  0.21D-02  2  2     5.11
   3      1.16656943    -0.37049879   -96.37164072    -0.01271476    -0.00073602  0.10D-05  0.42D-03  3  3     6.71
   4      1.18572613    -0.37396783   -96.37510976    -0.00346904    -0.00020902  0.52D-06  0.12D-03  4  4     8.29
   5      1.20225619    -0.37634850   -96.37749043    -0.00238067    -0.00000647  0.69D-07  0.24D-05  5  5     8.95
   6      1.20397701    -0.37657286   -96.37771478    -0.00022435    -0.00000069  0.64D-08  0.37D-06  6  6     9.43
   7      1.20397046    -0.37657043   -96.37771236     0.00000242    -0.00000029  0.93D-10  0.17D-06  6  3    10.05
   8      1.20402912    -0.37657841   -96.37772034    -0.00000798    -0.00000003  0.25D-09  0.11D-07  6  1    11.32
   9      1.20403933    -0.37657885   -96.37772077    -0.00000044    -0.00000000  0.15D-11  0.44D-09  6  2    12.13

 Norm of t1 vector:      0.05432875      S-energy:    -0.00014554      T1 diagnostic:  0.01277749
                                                                       D1 diagnostic:  0.03822316
 Norm of t2 vector:      0.44842805      P-energy:    -0.37643331
                                         Alpha-Beta:  -0.30564729
                                         Alpha-Alpha: -0.04575502
                                         Beta-Beta:   -0.02503100

 Doubles amplitudes (print threshold =  0.500E-01):

         I         J         SYM. A    SYM. B    A         B      T(IJ, AB) [Alpha-Beta]

         5         4         6         7         1         1     -0.16199719
         5         4         7         6         1         1     -0.16199719
         5         3         4         7         1         1     -0.16199718
         5         3         7         4         1         1     -0.16199718
         5         2         4         6         1         1     -0.16199718
         5         2         6         4         1         1     -0.16199718

 Spin contamination <S**2-Sz**2-Sz>     0.00000000

 Memory could be reduced to 60.68 Mwords without degradation in triples
 

  Correlated core orbitals:             1.1       1.2       1.3       1.5
  Orbital energies:                    -9.7629   -7.6026   -7.6026   -7.6026
 
  RCCSD core-core energy               -0.247382601836
  RCCSD core-valence energy            -0.129196246206
  RCCSD valence correlation energy      0.000000000000
 

 RESULTS
 =======

  Reference energy                    -96.001141925853
  RCCSD singles energy                 -0.000145540093
  RCCSD pair energy                    -0.376433307950
  RCCSD correlation energy             -0.376578848043
  Triples (T) contribution             -0.023322225560
  Total correlation energy             -0.399901073603
 
  RHF-RCCSD energy                    -96.377720773896
  RHF-RCCSD[T] energy                 -96.401311676172
  RHF-RCCSD-T energy                  -96.400986127784
 !RHF-RCCSD(T) energy                 -96.401042999456

 Program statistics:

 Available memory in ccsd:              1023999650
 Min. memory needed in ccsd:               1619495
 Max. memory used in ccsd:                 2071732
 Max. memory used in cckext:               1969854 ( 9 integral passes)
 Max. memory used in cckint:               8905245 ( 1 integral passes)



 **********************************************************************************************************************************
 DATASETS  * FILE   NREC   LENGTH (MB)   RECORD NAMES
              1      20       46.45       500      610      700      900      950      970     1000      129      960     1100   
                                          VAR    BASINP    GEOM    SYMINP    ZMAT    AOBASIS   BASIS     P2S    ABASIS      S 
                                         1400     1410     1420     1200     1210     1080     1600     1650     1700     1380   
                                           T        V       ECP      H0       H01     AOSYM     SMH    MOLCAS    OPER     JKOP   

              2      20       52.17       200      700     1000      520     4202     5202     2102     2105     5202(1)  2107   
                                        OPTIONS   GEOM     BASIS   MCVARS     RHF     MCSCF     RHF      RHF     MCSCF     RHF  
                                         2109     2111     2113     2115     2117     2119     2120     2121     2123     2127   
                                          RHF      RHF      RHF      RHF      RHF      RHF      RHF      RHF      RHF      RHF  

 PROGRAMS   *        TOTAL  RCCSD(T)       RHF     MULTI       POP       RHF  RCCSD(T)       RHF     MULTI       POP       RHF
 CPU TIMES  *       639.15     16.67      0.07      2.79      0.00      3.01     36.94      0.09      4.99      0.01      1.99
 REAL TIME  *      1252.40 SEC
 DISK USED  *         6.02 GB      
 SF USED    *         1.40 GB      
 GA USED    *         0.00 MB       (max)       0.00 MB       (current)
 **********************************************************************************************************************************
 SETTING CCSD(15)       =       -96.40104300  AU                              
 Output type csv         
                                                                                                                                                                                                                                                                

        SCF,CCSD
   -118.27487641,   -118.97907328
   -118.33680066,   -119.08920406
   -118.31831537,   -119.00699677
   -118.31756324,   -119.00802467
   -118.02922059,   -118.66878061
   -118.03636259,   -118.65653452
   -117.41616710,   -117.98668103
   -116.35245616,   -116.86623346
   -114.79713772,   -115.26107246
   -112.75786958,   -113.16436796
    -92.79331044,    -93.05808859
    -66.07500919,    -66.19982340
    -31.40747247,    -31.45640150
   -113.65468260,   -114.22025620
    -96.00114193,    -96.40104300
                                                  

 RCCSD(T)/USERDEF energy=    -96.401042999456

        RCCSD(T)        RHF-SCF         MULTI           RHF-SCF         RCCSD(T)        RHF-SCF         MULTI           RHF-SCF 
    -96.40104300    -96.00114193    -96.00114193    -96.00115672   -114.22025620   -113.65468260   -113.66136190   -113.65611838
 **********************************************************************************************************************************
 Molpro calculation terminated
 Variable memory released
