<?xml version="1.0"?>
<molpro xmlns="http://www.molpro.net/schema/molpro-output"
  xmlns:xsd="http://www.w3.org/1999/XMLSchema"
  xmlns:cml="http://www.xml-cml.org/schema"
  xmlns:stm="http://www.xml-cml.org/schema"
  xmlns:xhtml="http://www.w3.org/1999/xhtml">
 <!--

 Nodes     nprocs
 nid01083    11
 Number of processes for MPI-2 version of Molpro:   nprocs(total)=   12   nprocs(compute)=   11   nprocs(helper)=    1

 Using customized tuning parameters: mindgm=7; mindgv=16; mindgc=1; mindgr=1; noblas=0; minvec=7
 default implementation of scratch files=sf

 --><job>
  <!--

 Variables initialized (889), CPU time= 0.02 sec
 Commands  initialized (702), CPU time= 0.01 sec, 572 directives.
 Default parameters read. Elapsed time= 0.12 sec

 Checking input...
 Passed
1


                                         ***  PROGRAM SYSTEM MOLPRO  ***
                                       Copyright, TTI GmbH Stuttgart, 2015
                                    Version 2015.1 linked Dec 29 2018 15:55:43


 **********************************************************************************************************************************
 LABEL *   Calculation for Ir groundstate
  64 bit mpp version                                                                     DATE: 05-Jan-21          TIME: 11:10:39
 **********************************************************************************************************************************

 SHA1:             19cd028119e0e09f93f0674bd8af7968d9b3eff6
 **********************************************************************************************************************************
  -->
  <!--

 THRESHOLDS:

 ZERO    =  1.00D-12  ONEINT  =  1.00D-12  TWOINT  =  1.00D-15  PREFAC  =  1.00D-14  LOCALI  =  1.00D-09  EORDER  =  1.00D-04
 ENERGY  =  0.00D+00  ETEST   =  0.00D+00  EDENS   =  0.00D+00  THRDEDEF=  1.00D-06  GRADIENT=  1.00D-02  STEP    =  1.00D-03
 ORBITAL =  1.00D-05  CIVEC   =  1.00D-05  COEFF   =  1.00D-04  PRINTCI =  5.00D-02  PUNCHCI =  9.90D+01  OPTGRAD =  3.00D-04
 OPTENERG=  1.00D-06  OPTSTEP =  3.00D-04  THRGRAD =  1.00D-10  COMPRESS=  1.00D-11  VARMIN  =  1.00D-07  VARMAX  =  1.00D-03
 THRDOUB =  0.00D+00  THRDIV  =  1.00D-05  THRRED  =  1.00D-07  THRPSP  =  1.00D+00  THRDC   =  1.00D-10  THRCS   =  1.00D-10
 THRNRM  =  1.00D-08  THREQ   =  0.00D+00  THRDE   =  1.00D+00  THRREF  =  1.00D-05  SPARFAC =  1.00D+00  THRDLP  =  1.00D-07
 THRDIA  =  1.00D-10  THRDLS  =  1.00D-07  THRGPS  =  0.00D+00  THRKEX  =  0.00D+00  THRDIS  =  2.00D-01  THRVAR  =  1.00D-10
 THRLOC  =  1.00D-06  THRGAP  =  1.00D-06  THRLOCT = -1.00D+00  THRGAPT = -1.00D+00  THRORB  =  1.00D-06  THRMLTP =  0.00D+00
 THRCPQCI=  1.00D-10  KEXTA   =  0.00D+00  THRCOARS=  0.00D+00  SYMTOL  =  1.00D-06  GRADTOL =  1.00D-06  THROVL  =  1.00D-08
 THRORTH =  1.00D-08  GRID    =  1.00D-06  GRIDMAX =  1.00D-03  DTMAX   =  0.00D+00  THROCCDE=  1.00D-01  THROCCDE=  1.00D-01



 THRESHOLDS:

 ZERO    =  1.00D-12  ONEINT  =  1.00D-12  TWOINT  =  1.00D-15  PREFAC  =  1.00D-14  LOCALI  =  1.00D-09  EORDER  =  1.00D-04
 ENERGY  =  0.00D+00  ETEST   =  0.00D+00  EDENS   =  0.00D+00  THRDEDEF=  1.00D-06  GRADIENT=  1.00D-02  STEP    =  1.00D-03
 ORBITAL =  1.00D-05  CIVEC   =  1.00D-05  COEFF   =  1.00D-04  PRINTCI =  5.00D-02  PUNCHCI =  9.90D+01  OPTGRAD =  3.00D-04
 OPTENERG=  1.00D-06  OPTSTEP =  3.00D-04  THRGRAD =  1.00D-10  COMPRESS=  1.00D-11  VARMIN  =  1.00D-07  VARMAX  =  1.00D-03
 THRDOUB =  0.00D+00  THRDIV  =  1.00D-05  THRRED  =  1.00D-07  THRPSP  =  1.00D+00  THRDC   =  1.00D-10  THRCS   =  1.00D-10
 THRNRM  =  1.00D-08  THREQ   =  0.00D+00  THRDE   =  1.00D+00  THRREF  =  1.00D-05  SPARFAC =  1.00D+00  THRDLP  =  1.00D-07
 THRDIA  =  1.00D-10  THRDLS  =  1.00D-07  THRGPS  =  0.00D+00  THRKEX  =  0.00D+00  THRDIS  =  2.00D-01  THRVAR  =  1.00D-10
 THRLOC  =  1.00D-06  THRGAP  =  1.00D-06  THRLOCT = -1.00D+00  THRGAPT = -1.00D+00  THRORB  =  1.00D-06  THRMLTP =  0.00D+00
 THRCPQCI=  1.00D-10  KEXTA   =  0.00D+00  THRCOARS=  0.00D+00  SYMTOL  =  1.00D-06  GRADTOL =  1.00D-06  THROVL  =  1.00D-15
 THRORTH =  1.00D-08  GRID    =  1.00D-06  GRIDMAX =  1.00D-03  DTMAX   =  0.00D+00  THROCCDE=  1.00D-01  THROCCDE=  1.00D-01


 SETTING DKROLL         =         1.00000000
 SETTING DKHO           =        10.00000000
 SETTING DKHP           =         4.00000000

Geometry recognized as XYZ


 DO I                   =         1.00000000

 Variable memory set to 1024000000 words,  buffer space   230000 words


 Running procedure=IS2D7
 SETTING BASIS          =    USERDEF
  --><jobstep command="RHF-SCF" commandset="SCFPRO">
   <!--


 Recomputing integrals since basis changed


 Using spherical harmonics



 PROGRAM * SEWARD (Integral evaluation for generally contracted gaussian basis sets)     Author: Roland Lindh, 1990

 Geometry written to block  1 of record 700

 Orientation using atomic masses
 Molecule type: Atom
 Symmetry elements: X,Y,Z
 Rotational constants:       0.0000000      0.0000000      0.0000000 GHz  (calculated with average atomic masses)

 Point group  D2h


   --><cml:molecule>
    <cml:symmetry pointGroup="D2h"/>
    <cml:atomArray>
     <cml:atom id="a1" elementType="Ir" x3="0.0" y3="0.0" z3="0.0"/>
    </cml:atomArray>
    <cml:bondArray>
    </cml:bondArray>
   </cml:molecule><!--

 ATOMIC COORDINATES

 NR  ATOM    CHARGE       X              Y              Z

   1  IR     77.00    0.000000000    0.000000000    0.000000000

 NUCLEAR CHARGE:                   77
 NUMBER OF PRIMITIVE AOS:         420
 NUMBER OF SYMMETRY AOS:          345
 NUMBER OF CONTRACTIONS:          127   (  33Ag  +  18B3u +  18B2u +  12B1g +  18B1u +  12B2g +  12B3g +   4Au  )
 NUMBER OF CORE ORBITALS:          34   (   9Ag  +   6B3u +   6B2u +   2B1g +   6B1u +   2B2g +   2B3g +   1Au  )
 NUMBER OF VALENCE ORBITALS:        6   (   3Ag  +   0B3u +   0B2u +   1B1g +   0B1u +   1B2g +   1B3g +   0Au  )


 NUCLEAR REPULSION ENERGY    0.00000000

 One-electron integrals computed with SEWARD

 10nd-order Douglas-Kroll-Hess method activated. McWeeny DKH parametrization is used.

 Computing Douglas-Kroll / X2C integrals

 AO integral compression algorithm  1   Integral accuracy      1.0D-15

     52.953 MB (compressed) written to integral file ( 81.2%)

     Node minimum: 2.621 MB, node maximum: 6.816 MB


 NUMBER OF SORTED TWO-ELECTRON INTEGRALS:     414529.     BUFFER LENGTH:  32768
 NUMBER OF SEGMENTS:   1  SEGMENT LENGTH:     414529      RECORD LENGTH: 524288

 Memory used in sort:       0.97 MW

 SORT1 READ     8222235. AND WROTE      317000. INTEGRALS IN      1 RECORDS. CPU TIME:     0.18 SEC, REAL TIME:     0.21 SEC
 SORT2 READ     3322214. AND WROTE     4351165. INTEGRALS IN    187 RECORDS. CPU TIME:     0.02 SEC, REAL TIME:     0.02 SEC

 Node minimum:      383518.  Node maximum:      414529. integrals

 OPERATOR DM      FOR CENTER  0  COORDINATES:    0.000000    0.000000    0.000000

 EXTRA SYMMETRY OF AOS IN SYMMETRY 1:   1 1 1 1 1 1 1 1 1 1   1 2 3 2 3 2 3 2 3 2   3 2 3 2 3 2 3 4 5 6   4 5 6
 EXTRA SYMMETRY OF AOS IN SYMMETRY 2:   1 1 1 1 1 1 1 1 1 1   2 3 2 3 2 3 2 3
 EXTRA SYMMETRY OF AOS IN SYMMETRY 3:   1 1 1 1 1 1 1 1 1 1   2 3 2 3 2 3 2 3
 EXTRA SYMMETRY OF AOS IN SYMMETRY 4:   1 1 1 1 1 1 1 1 2 3   2 3
 EXTRA SYMMETRY OF AOS IN SYMMETRY 5:   1 1 1 1 1 1 1 1 1 1   2 3 2 3 2 3 2 3
 EXTRA SYMMETRY OF AOS IN SYMMETRY 6:   1 1 1 1 1 1 1 1 2 3   2 3
 EXTRA SYMMETRY OF AOS IN SYMMETRY 7:   1 1 1 1 1 1 1 1 2 3   2 3

 Eigenvalues of metric

         1 0.703E-04 0.234E-02 0.234E-02 0.343E-02 0.111E-01 0.339E-01 0.339E-01 0.990E-01
         2 0.318E-03 0.246E-02 0.383E-01 0.122E+00 0.122E+00 0.306E+00 0.479E+00 0.479E+00
         3 0.318E-03 0.246E-02 0.383E-01 0.122E+00 0.122E+00 0.306E+00 0.479E+00 0.479E+00
         4 0.234E-02 0.339E-01 0.990E-01 0.321E+00 0.321E+00 0.999E+00 0.100E+01 0.149E+01
         5 0.318E-03 0.246E-02 0.383E-01 0.122E+00 0.122E+00 0.306E+00 0.479E+00 0.479E+00
         6 0.234E-02 0.339E-01 0.990E-01 0.321E+00 0.321E+00 0.999E+00 0.100E+01 0.149E+01
         7 0.234E-02 0.339E-01 0.990E-01 0.321E+00 0.321E+00 0.999E+00 0.100E+01 0.149E+01
         8 0.122E+00 0.479E+00 0.103E+01 0.237E+01


 **********************************************************************************************************************************
 DATASETS  * FILE   NREC   LENGTH (MB)   RECORD NAMES
              1      22       20.45       500      610      700      900      950      970     1000      129      960     1700
                                          VAR    BASINP    GEOM    SYMINP    ZMAT    AOBASIS   BASIS     P2S    ABASIS    OPER
                                         1101     1401     1411     1412     1650     1100     1400     1410     1200     1210
                                          SR      EKINR    POTR     PVPR    MOLCAS      S      EKIN      POT      H0       H01
                                         1080     1600
                                         AOSYM     SMH

 PROGRAMS   *        TOTAL       INT
 CPU TIMES  *        13.76     13.44
 REAL TIME  *        14.76 SEC
 DISK USED  *        76.86 MB
 GA USED    *         0.00 MB       (max)       0.00 MB       (current)
 **********************************************************************************************************************************


 PROGRAM * RHF-SCF (OPEN SHELL)       Authors: W. Meyer, H.-J. Werner


 NUMBER OF ELECTRONS:      40+   37-    SPACE SYMMETRY=1    SPIN SYMMETRY: Quartet
 CONVERGENCE THRESHOLDS:    1.00E-05 (Density)    1.54E-07 (Energy)
 MAX. NUMBER OF ITERATIONS:       60
 INTERPOLATION TYPE:            DIIS
 INTERPOLATION STEPS:              2 (START)      1 (STEP)
 LEVEL SHIFTS:                 -0.60 (CLOSED) -0.30 (OPEN)

 Number of closed-shell orbitals:   37 (  12   6   6   2   6   2   2   1 )
 Number of open-shell orbitals:      3 (   0   0   0   1   0   1   1   0 )



 Extra symmetries of mos in symmetry 1:   1   1   1   3   2   1   3   2   1   1   3   2
 Orbital guess generated from atomic densities. Full valence occupancy:   12   6   6   3   6   3   3   1


 Molecular orbital dump at record        4202.2

 ITERATION    DDIFF          GRAD             ENERGY        2-EL.EN.            DIPOLE MOMENTS         DIIS   ORB.
    1      0.000D+00      0.000D+00    -17817.38821871  12691.999671    0.00000    0.00000    0.00000    0    start
    2      0.000D+00      0.101D+00    -17824.13722755  13568.804644    0.00000    0.00000    0.00000    1    diag,B
    3      0.840D+00      0.128D+00    -17826.34941510  13356.237827    0.00000    0.00000    0.00000    2    diag,B
    4      0.442D-01      0.366D-01    -17826.83456360  13271.039786    0.00000    0.00000    0.00000    3    diag,B
    5      0.357D-01      0.898D-02    -17826.88969392  13244.790319    0.00000    0.00000    0.00000    4    diag,B
    6      0.367D-01      0.251D-02    -17826.89620649  13243.649429    0.00000    0.00000    0.00000    5    diag,B
    7      0.249D-01      0.139D-02    -17826.89765198  13246.230662    0.00000    0.00000    0.00000    6    fixocc
    8      0.117D-01      0.422D-03    -17826.89787770  13247.435890    0.00000    0.00000    0.00000    7    diag,B
    9      0.382D-02      0.888D-04    -17826.89789236  13247.513075    0.00000    0.00000    0.00000    8    diag,B
   10      0.255D-03      0.315D-04    -17826.89789501  13247.464320    0.00000    0.00000    0.00000    9    orth
   11      0.590D-03      0.118D-04    -17826.89789546  13247.450035    0.00000    0.00000    0.00000    9    diag,B
   12      0.334D-03      0.513D-05    -17826.89789553  13247.436867    0.00000    0.00000    0.00000    9    diag,B
   13      0.165D-03      0.147D-05    -17826.89789554  13247.433943    0.00000    0.00000    0.00000    9    diag,B
   14      0.266D-04      0.240D-06    -17826.89789554  13247.433974    0.00000    0.00000    0.00000    9    diag,B
   15      0.963D-06      0.956D-07    -17826.89789554  13247.433930    0.00000    0.00000    0.00000    0    orth

 Final alpha occupancy:  12   6   6   3   6   3   3   1
 Final beta  occupancy:  12   6   6   2   6   2   2   1

 !RHF STATE 1.1 Energy               -17826.8978955368
   --><property name="Energy" method="RHF" principal="true" stateSymmetry="1" stateNumber="1"
     value="-17826.8978955368"/><!--
 Nuclear energy                         0.00000000
 One-electron energy               -24450.61486059
 Two-electron energy                 6623.71696506
 Virial quotient                       -0.68162703
 !RHF STATE 1.1 Dipole moment           0.00000000     0.00000000     0.00000000
 Dipole moment /Debye                   0.00000000     0.00000000     0.00000000
   --><property name="Dipole moment" method="RHF" principal="true" stateSymmetry="1"
     stateNumber="1" value="0.0 0.0 0.0"/><!--

 ELECTRON ORBITALS
 =================


   Orb  Occ    Energy  Couls-En    Coefficients

                                   1 1s      1 1s      1 1s      1 1s      1 1s      1 1s      1 1s      1 1s      1 1s      1 1s
                                   1 1s      1 3d0     1 3d2+    1 3d0     1 3d2+    1 3d0     1 3d2+    1 3d0     1 3d2+    1 3d0
                                   1 3d2+    1 3d0     1 3d2+    1 3d0     1 3d2+    1 3d0     1 3d2+    1 5g0     1 5g4+    1 5g2+
                                   1 5g0     1 5g4+    1 5g2+

   1.1   2 -2813.3039-6057.7534  0.994262 -0.104044 -0.024680  0.001800  0.002235  0.000603 -0.000034  0.000301 -0.000625  0.001114
                                -0.002806 -0.000000 -0.000000  0.000000 -0.000000  0.000000 -0.000000 -0.000000  0.000000  0.000000
                                -0.000000 -0.000000 -0.000000 -0.000000  0.000000 -0.000000  0.000000  0.000000  0.000000  0.000000
                                -0.000000 -0.000000 -0.000000

   2.1   2  -497.5160-1323.6742  0.100947  0.989438 -0.103281  0.004955 -0.005064 -0.001264  0.000076 -0.000635  0.001318 -0.002005
                                 0.006258 -0.000000 -0.000000  0.000000  0.000000  0.000000  0.000000 -0.000000 -0.000000  0.000000
                                 0.000000 -0.000000  0.000000 -0.000000 -0.000000 -0.000000 -0.000000  0.000000  0.000000 -0.000000
                                 0.000000  0.000000  0.000000

   3.1   2  -118.7924 -468.3797  0.035354  0.100129  0.989816 -0.107542  0.011419  0.002584 -0.000169  0.001305 -0.002711  0.003537
                                -0.013466 -0.000000 -0.000000 -0.000000  0.000000 -0.000000  0.000000  0.000000 -0.000000 -0.000000
                                 0.000000  0.000000 -0.000000  0.000000 -0.000000  0.000000 -0.000000 -0.000003 -0.000003  0.000000
                                 0.000000  0.000000 -0.000000

   4.1   2   -77.8884 -396.7367  0.000000  0.000000  0.000000  0.000000  0.000000  0.000000 -0.000000  0.000000 -0.000000 -0.000000
                                -0.000000 -0.000002  0.999934  0.000000 -0.009767  0.000000 -0.000086 -0.000000  0.000053  0.000000
                                -0.000021 -0.000000  0.000000 -0.000000  0.000088 -0.000000  0.000108  0.000000 -0.000000  0.000003
                                -0.000000  0.000000 -0.000001

   5.1   2   -77.8884 -396.7367 -0.000000 -0.000000  0.000000 -0.000000 -0.000000 -0.000000  0.000000 -0.000000  0.000000  0.000000
                                 0.000000  0.999934  0.000002 -0.009767 -0.000000 -0.000086 -0.000000  0.000053  0.000000 -0.000021
                                -0.000000  0.000000  0.000000  0.000088  0.000000  0.000108  0.000000 -0.000002  0.000003  0.000000
                                 0.000001 -0.000001 -0.000000

   6.1   2   -26.6342 -202.3968  0.001947  0.003426  0.108682  0.983402 -0.022734 -0.004952  0.000385 -0.002499  0.005256 -0.006415
                                 0.026668  0.000000 -0.000000 -0.000000 -0.000000  0.000000 -0.000000 -0.000000  0.000000  0.000000
                                -0.000000 -0.000000  0.000000 -0.000000  0.000000 -0.000000  0.000000 -0.000071 -0.000060 -0.000000
                                 0.000053  0.000045 -0.000000

   7.1   2   -12.0979 -164.1814 -0.000000 -0.000000 -0.000000 -0.000000 -0.000000 -0.000000  0.000000 -0.000000  0.000000 -0.000000
                                 0.000000 -0.000000  0.009818 -0.000001  1.000729  0.000000 -0.000647 -0.000000  0.000035  0.000000
                                -0.000106 -0.000000  0.000081  0.000000 -0.000856  0.000000 -0.000075  0.000000 -0.000000  0.000156
                                -0.000000  0.000000 -0.000156

   8.1   2   -12.0979 -164.1814  0.000000  0.000000  0.000000  0.000000 -0.000000 -0.000000  0.000000 -0.000000  0.000000 -0.000000
                                 0.000000  0.009818  0.000000  1.000729  0.000001 -0.000647 -0.000000  0.000035  0.000000 -0.000106
                                -0.000000  0.000081  0.000000 -0.000856 -0.000000 -0.000075 -0.000000 -0.000101  0.000119  0.000000
                                 0.000101 -0.000119 -0.000000

   9.1   2    -4.2455  -88.4655  0.000369  0.001657  0.004791  0.014338  1.023489 -0.001434 -0.004647  0.001354 -0.005596  0.005234
                                -0.029416 -0.000000 -0.000000 -0.000000  0.000000 -0.000000  0.000000  0.000000 -0.000000 -0.000000
                                 0.000000  0.000000  0.000000  0.000000  0.000000  0.000000 -0.000000 -0.000203 -0.000172 -0.000000
                                 0.001201  0.001015  0.000000

  10.1   2    -0.2965  -29.9582 -0.000231 -0.000899 -0.002906 -0.006941 -0.004831  1.001119  0.007761 -0.002484 -0.001390 -0.002569
                                 0.015991  0.000000 -0.000000  0.000000  0.000000 -0.000000 -0.000000 -0.000001 -0.000000 -0.000000
                                -0.000000  0.000003  0.000000 -0.000000  0.000000 -0.000000 -0.000000  0.000593  0.000501  0.000000
                                 0.000348  0.000294  0.000000

  11.1   2    -0.4578  -53.6302  0.000000  0.000000  0.000000  0.000000 -0.000000 -0.000000  0.000000 -0.000000  0.000000 -0.000000
                                -0.000000 -0.000000  0.000194 -0.000000  0.002910 -0.000003  1.006258  0.000000 -0.041356  0.000000
                                -0.005625  0.000000 -0.007848  0.000000 -0.000267  0.000000 -0.005568 -0.000000  0.000000 -0.000153
                                -0.000000  0.000000 -0.000830

  12.1   2    -0.4578  -53.6303  0.000000  0.000000  0.000000  0.000000  0.000001  0.000001 -0.000000  0.000000 -0.000002  0.000000
                                -0.000000  0.000194  0.000000  0.002909  0.000000  1.006259  0.000003 -0.041356 -0.000000 -0.005625
                                -0.000000 -0.007851 -0.000000 -0.000267 -0.000000 -0.005568 -0.000000  0.000099 -0.000117 -0.000000
                                 0.000536 -0.000634 -0.000000

  13.1   0     0.1171  -15.2364 -0.028278 -0.095886 -0.330320 -0.760535 -2.008431 -4.024138  0.740568 -0.357726  4.592900 -0.180360
                                 1.016473 -0.000000 -0.000000 -0.000000 -0.000000  0.000001 -0.000000  0.000000  0.000000  0.000000
                                 0.000000 -0.000001 -0.000000  0.000000  0.000000  0.000000  0.000000 -0.000599 -0.000506  0.000000
                                 0.001685  0.001424 -0.000000

  14.1   0     0.2052  -15.5152 -0.000000 -0.000000 -0.000000 -0.000000 -0.000000  0.000000 -0.000000  0.000000 -0.000000 -0.000000
                                 0.000000 -0.000000  0.013113 -0.000000  0.116243  0.000001 -0.253083  0.000002 -0.585405  0.000001
                                -0.173893 -0.000006  1.551473  0.000000 -0.026649  0.000001 -0.317127 -0.000000  0.000000 -0.000276
                                -0.000000  0.000000 -0.000673

                                   1 2px     1 2px     1 2px     1 2px     1 2px     1 2px     1 2px     1 2px     1 2px     1 2px
                                   1 4f1+    1 4f3+    1 4f1+    1 4f3+    1 4f1+    1 4f3+    1 4f1+    1 4f3+

   1.2   2  -433.5677-1207.6610  1.000000  0.000224 -0.000216  0.000010 -0.000000  0.000000 -0.000000  0.000000  0.000000  0.000000
                                 0.000001 -0.000001 -0.000001  0.000001  0.000000 -0.000000 -0.000000  0.000000

   2.2   2   -99.7059 -431.6415 -0.000226  0.999899 -0.014398 -0.000229  0.000001  0.000000  0.000000 -0.000000 -0.000008 -0.000005
                                -0.000003  0.000004  0.000008 -0.000010  0.000001 -0.000001  0.000001 -0.000002

   3.2   2   -20.2410 -185.1661  0.000233  0.014586  1.000456  0.015180 -0.000112 -0.000113 -0.000128  0.000026 -0.000265 -0.001006
                                -0.000031  0.000041  0.000142 -0.000183 -0.000106  0.000136  0.000017 -0.000022

   4.2   2    -3.0329 -137.1543  0.000000  0.000000  0.000000  0.000000  0.000000  0.000000  0.000000 -0.000000 -0.000000  0.000000
                                 0.790603  0.612430  0.000436  0.000338 -0.000821 -0.000636 -0.000378 -0.000293

   5.2   2    -3.0310 -137.1226  0.000019  0.000124 -0.000039  0.006947  0.001142  0.000389  0.000892 -0.000308 -0.000906  0.001630
                                -0.612300  0.790436 -0.000229  0.000295  0.000185 -0.000238  0.000047 -0.000061

   6.2   2    -2.4782  -76.5674 -0.000052 -0.000329 -0.015733  0.996982 -0.001779 -0.004550 -0.003066  0.000410  0.000211  0.003086
                                 0.006796 -0.008774 -0.001217  0.001571 -0.002616  0.003377 -0.002548  0.003290

   7.2   0     0.0352  -16.2159 -0.002625 -0.024216 -0.101371 -0.267358 -0.506810  0.514843 -0.097255  1.110480  0.020733  0.169133
                                 0.000285 -0.000368 -0.000056  0.000072 -0.000293  0.000379  0.001549 -0.001999

   8.2   0     0.1692  -18.1094 -0.011792 -0.108112 -0.446552 -0.962842 -5.376981  2.771487 -0.481229  2.872663  0.096831  0.775362
                                -0.000299  0.000386  0.000067 -0.000086  0.000357 -0.000461 -0.002632  0.003398

                                   1 2py     1 2py     1 2py     1 2py     1 2py     1 2py     1 2py     1 2py     1 2py     1 2py
                                   1 4f1-    1 4f3-    1 4f1-    1 4f3-    1 4f1-    1 4f3-    1 4f1-    1 4f3-

   1.3   2  -433.5677-1207.6610  1.000000  0.000224 -0.000216  0.000010 -0.000000  0.000000 -0.000000  0.000000  0.000000  0.000000
                                 0.000001  0.000001 -0.000001 -0.000001  0.000000  0.000000 -0.000000 -0.000000

   2.3   2   -99.7059 -431.6415 -0.000226  0.999899 -0.014398 -0.000229  0.000001  0.000000  0.000000 -0.000000 -0.000008 -0.000005
                                -0.000003 -0.000004  0.000008  0.000010  0.000001  0.000001  0.000001  0.000002

   3.3   2   -20.2410 -185.1661  0.000233  0.014586  1.000456  0.015180 -0.000112 -0.000113 -0.000128  0.000026 -0.000265 -0.001006
                                -0.000031 -0.000041  0.000142  0.000183 -0.000106 -0.000136  0.000017  0.000022

   4.3   2    -3.0329 -137.1543  0.000000  0.000000  0.000000  0.000000  0.000000  0.000000  0.000000 -0.000000 -0.000000  0.000000
                                 0.790603 -0.612430  0.000436 -0.000338 -0.000821  0.000636 -0.000378  0.000293

   5.3   2    -3.0310 -137.1226 -0.000019 -0.000124  0.000039 -0.006947 -0.001142 -0.000389 -0.000892  0.000308  0.000906 -0.001630
                                 0.612300  0.790436  0.000229  0.000295 -0.000185 -0.000238 -0.000047 -0.000061

   6.3   2    -2.4782  -76.5674 -0.000052 -0.000329 -0.015733  0.996982 -0.001779 -0.004550 -0.003066  0.000410  0.000211  0.003086
                                 0.006796  0.008774 -0.001217 -0.001571 -0.002616 -0.003377 -0.002548 -0.003290

   7.3   0     0.0352  -16.2159 -0.002625 -0.024216 -0.101371 -0.267358 -0.506810  0.514843 -0.097255  1.110480  0.020733  0.169133
                                 0.000285  0.000368 -0.000056 -0.000072 -0.000293 -0.000379  0.001549  0.001999

   8.3   0     0.1692  -18.1094 -0.011792 -0.108112 -0.446552 -0.962842 -5.376981  2.771487 -0.481229  2.872663  0.096831  0.775362
                                -0.000299 -0.000386  0.000067  0.000086  0.000357  0.000461 -0.002632 -0.003398

                                   1 3d2-    1 3d2-    1 3d2-    1 3d2-    1 3d2-    1 3d2-    1 3d2-    1 3d2-    1 5g2-    1 5g4-
                                   1 5g2-    1 5g4-

   1.4   2   -77.8846 -396.7276  0.999972 -0.009496  0.000075 -0.000034  0.000017 -0.000003 -0.000087 -0.000073  0.000002 -0.000000
                                -0.000000  0.000000

   2.4   2   -12.0908 -164.0882  0.009518  0.999837  0.000901 -0.000614  0.000474 -0.000195  0.000586 -0.001217  0.000078 -0.000000
                                -0.000077  0.000000

   3.4   +    -0.5219  -54.4041  0.000153  0.001165  0.999674 -0.068937 -0.014438 -0.002906 -0.000549 -0.001776  0.000422  0.000000
                                 0.002319  0.000000

   4.4   0     0.2030  -15.3552  0.012903  0.114542 -0.232609 -0.570535 -0.169735  1.538187 -0.026197 -0.312392 -0.000143  0.000000
                                -0.000338 -0.000000

   5.4   0     0.7401  -26.4138 -0.055638 -0.517181 -0.236869  2.951123  0.856030 -2.381283  0.104785  1.354806 -0.000499 -0.000000
                                -0.000574  0.000000

                                   1 2pz     1 2pz     1 2pz     1 2pz     1 2pz     1 2pz     1 2pz     1 2pz     1 2pz     1 2pz
                                   1 4f0     1 4f2+    1 4f0     1 4f2+    1 4f0     1 4f2+    1 4f0     1 4f2+

   1.5   2  -433.5677-1207.6610  1.000000  0.000224 -0.000216  0.000010 -0.000000  0.000000 -0.000000  0.000000  0.000000  0.000000
                                -0.000002 -0.000000  0.000002  0.000000 -0.000000  0.000000  0.000000 -0.000000

   2.5   2   -99.7059 -431.6415 -0.000226  0.999899 -0.014398 -0.000229  0.000001  0.000000  0.000000 -0.000000 -0.000008 -0.000005
                                 0.000005 -0.000000 -0.000013  0.000000 -0.000002 -0.000000 -0.000002  0.000000

   3.5   2   -20.2410 -185.1661  0.000233  0.014586  1.000456  0.015180 -0.000112 -0.000113 -0.000128  0.000026 -0.000265 -0.001006
                                 0.000051 -0.000000 -0.000232  0.000000  0.000173  0.000000 -0.000028  0.000000

   4.5   2    -3.0329 -137.1543  0.000000  0.000000 -0.000000  0.000000  0.000000  0.000000  0.000000 -0.000000 -0.000000  0.000000
                                 0.000000  1.000062  0.000000  0.000552 -0.000000 -0.001038 -0.000000 -0.000478

   5.5   2    -3.0310 -137.1226  0.000019  0.000124 -0.000039  0.006947  0.001142  0.000389  0.000892 -0.000308 -0.000906  0.001630
                                 0.999850 -0.000000  0.000373 -0.000000 -0.000301  0.000000 -0.000077  0.000000

   6.5   2    -2.4782  -76.5674 -0.000052 -0.000329 -0.015733  0.996982 -0.001779 -0.004550 -0.003066  0.000410  0.000211  0.003086
                                -0.011098 -0.000000  0.001987 -0.000000  0.004272  0.000000  0.004161  0.000000

   7.5   0     0.0352  -16.2159 -0.002625 -0.024216 -0.101371 -0.267358 -0.506809  0.514842 -0.097255  1.110480  0.020733  0.169133
                                -0.000466  0.000000  0.000091 -0.000000  0.000479 -0.000000 -0.002529  0.000000

   8.5   0     0.1692  -18.1094 -0.011792 -0.108112 -0.446552 -0.962843 -5.376982  2.771487 -0.481229  2.872663  0.096832  0.775362
                                 0.000488 -0.000000 -0.000109 -0.000000 -0.000584  0.000000  0.004298 -0.000000

                                   1 3d1+    1 3d1+    1 3d1+    1 3d1+    1 3d1+    1 3d1+    1 3d1+    1 3d1+    1 5g1+    1 5g3+
                                   1 5g1+    1 5g3+

   1.6   2   -77.8846 -396.7276  0.999972 -0.009496  0.000075 -0.000034  0.000017 -0.000003 -0.000087 -0.000073 -0.000001 -0.000002
                                 0.000000  0.000000

   2.6   2   -12.0908 -164.0882  0.009518  0.999837  0.000901 -0.000614  0.000474 -0.000195  0.000586 -0.001217 -0.000028 -0.000073
                                 0.000027  0.000072

   3.6   +    -0.5219  -54.4041  0.000153  0.001165  0.999674 -0.068937 -0.014438 -0.002906 -0.000549 -0.001776 -0.000149 -0.000395
                                -0.000820 -0.002169

   4.6   0     0.2030  -15.3552  0.012903  0.114542 -0.232610 -0.570535 -0.169735  1.538187 -0.026197 -0.312392  0.000051  0.000134
                                 0.000120  0.000316

   5.6   0     0.7401  -26.4138 -0.055638 -0.517181 -0.236870  2.951123  0.856030 -2.381283  0.104785  1.354806  0.000176  0.000467
                                 0.000203  0.000536

                                   1 3d1-    1 3d1-    1 3d1-    1 3d1-    1 3d1-    1 3d1-    1 3d1-    1 3d1-    1 5g1-    1 5g3-
                                   1 5g1-    1 5g3-

   1.7   2   -77.8846 -396.7276  0.999972 -0.009496  0.000075 -0.000034  0.000017 -0.000003 -0.000087 -0.000073 -0.000001  0.000002
                                 0.000000 -0.000000

   2.7   2   -12.0908 -164.0882  0.009518  0.999837  0.000901 -0.000614  0.000474 -0.000195  0.000586 -0.001217 -0.000028  0.000073
                                 0.000027 -0.000072

   3.7   +    -0.5219  -54.4041  0.000153  0.001165  0.999674 -0.068937 -0.014438 -0.002906 -0.000549 -0.001776 -0.000149  0.000395
                                -0.000820  0.002169

   4.7   0     0.2030  -15.3552  0.012903  0.114542 -0.232610 -0.570535 -0.169735  1.538187 -0.026197 -0.312392  0.000051 -0.000134
                                 0.000120 -0.000316

   5.7   0     0.7401  -26.4138 -0.055638 -0.517181 -0.236870  2.951123  0.856030 -2.381283  0.104785  1.354806  0.000176 -0.000467
                                 0.000203 -0.000536

                                   1 4f2-    1 4f2-    1 4f2-    1 4f2-

   1.8   2    -3.0354 -137.1810  1.000217  0.000816 -0.001855 -0.000914

   2.8   0     1.0768  -33.5372 -0.159909  0.120339 -0.058659  1.017115

   3.8   0     3.0794  -48.5805 -0.341216 -0.036409  1.375232 -0.827527

 HOMO     12.1    -0.457846 =     -12.4586eV
 LUMO      7.5     0.035168 =       0.9570eV
 LUMO-HOMO         0.493014 =      13.4156eV


 **********************************************************************************************************************************
 DATASETS  * FILE   NREC   LENGTH (MB)   RECORD NAMES
              1      22       20.45       500      610      700      900      950      970     1000      129      960     1700
                                          VAR    BASINP    GEOM    SYMINP    ZMAT    AOBASIS   BASIS     P2S    ABASIS    OPER
                                         1101     1401     1411     1412     1650     1100     1400     1410     1200     1210
                                          SR      EKINR    POTR     PVPR    MOLCAS      S      EKIN      POT      H0       H01
                                         1080     1600
                                         AOSYM     SMH

              2       5        5.45       200      700     1000      520     4202
                                        OPTIONS   GEOM     BASIS   MCVARS     RHF

 PROGRAMS   *        TOTAL       RHF       INT
 CPU TIMES  *        14.11      0.34     13.44
 REAL TIME  *        15.15 SEC
 DISK USED  *       366.87 MB
 SF USED    *         0.01 MB
 GA USED    *         0.00 MB       (max)       0.00 MB       (current)
 **********************************************************************************************************************************
   -->
   <time start="11:10:39" end="11:10:54" cpu="14.11" system="0.81" real="15.15"/>
   <storage units="megabyte" memory="8193.84" sf="0.01" df="290.01" eaf="76.86" ga="0.0"/>
  </jobstep><!--
  --><jobstep command="POP" commandset="POP">
   <!--


 PROGRAM * POP (Mulliken population analysis)


 Density matrix read from record         4202.2  Type=RHF/CHARGE (state 1.1)

 Population analysis by basis function type

 Unique atom        s        p        d        f        g    Total    Charge
   1  IR     11.99999 23.99960 26.99998 14.00040  0.00003 77.00000  - 0.00000


 **********************************************************************************************************************************
 DATASETS  * FILE   NREC   LENGTH (MB)   RECORD NAMES
              1      22       20.45       500      610      700      900      950      970     1000      129      960     1700
                                          VAR    BASINP    GEOM    SYMINP    ZMAT    AOBASIS   BASIS     P2S    ABASIS    OPER
                                         1101     1401     1411     1412     1650     1100     1400     1410     1200     1210
                                          SR      EKINR    POTR     PVPR    MOLCAS      S      EKIN      POT      H0       H01
                                         1080     1600
                                         AOSYM     SMH

              2       5        5.45       200      700     1000      520     4202
                                        OPTIONS   GEOM     BASIS   MCVARS     RHF

 PROGRAMS   *        TOTAL       POP       RHF       INT
 CPU TIMES  *        14.12      0.01      0.34     13.44
 REAL TIME  *        15.16 SEC
 DISK USED  *       366.87 MB
 SF USED    *         0.01 MB
 GA USED    *         0.00 MB       (max)       0.00 MB       (current)
 **********************************************************************************************************************************
   -->
   <time start="11:10:54" end="11:10:54" cpu="0.01" system="0.0" real="0.01"/>
   <storage units="megabyte" memory="8193.84" sf="0.01" df="290.01" eaf="76.86" ga="0.0"/>
  </jobstep><!--
 SETTING BASIS          =    USERDEF
  --><jobstep command="MULTI" commandset="MULTI">
   <!--


 Recomputing integrals since basis changed


 Using spherical harmonics



 PROGRAM * SEWARD (Integral evaluation for generally contracted gaussian basis sets)     Author: Roland Lindh, 1990

 Geometry written to block  1 of record 700

 Orientation using atomic masses
 Molecule type: Atom
 Symmetry elements: X,Y,Z
 Rotational constants:       0.0000000      0.0000000      0.0000000 GHz  (calculated with average atomic masses)

 Point group  D2h



 ATOMIC COORDINATES

 NR  ATOM    CHARGE       X              Y              Z

   1  IR     77.00    0.000000000    0.000000000    0.000000000

 NUCLEAR CHARGE:                   77
 NUMBER OF PRIMITIVE AOS:         508
 NUMBER OF SYMMETRY AOS:          416
 NUMBER OF CONTRACTIONS:          416   ( 100Ag  +  68B3u +  68B2u +  32B1g +  68B1u +  32B2g +  32B3g +  16Au  )
 NUMBER OF CORE ORBITALS:          34   (   9Ag  +   6B3u +   6B2u +   2B1g +   6B1u +   2B2g +   2B3g +   1Au  )
 NUMBER OF VALENCE ORBITALS:        6   (   3Ag  +   0B3u +   0B2u +   1B1g +   0B1u +   1B2g +   1B3g +   0Au  )


 NUCLEAR REPULSION ENERGY    0.00000000

 One-electron integrals computed with SEWARD

 10nd-order Douglas-Kroll-Hess method activated. McWeeny DKH parametrization is used.

 Computing Douglas-Kroll / X2C integrals

 AO integral compression algorithm  1   Integral accuracy      1.0D-15

     3785.359 MB (compressed) written to integral file ( 47.3%)

     Node minimum: 214.172 MB, node maximum: 474.743 MB


 NUMBER OF SORTED TWO-ELECTRON INTEGRALS:   44229242.     BUFFER LENGTH:  32768
 NUMBER OF SEGMENTS:   2  SEGMENT LENGTH:   31981226      RECORD LENGTH: 524288

 Memory used in sort:      32.54 MW

 SORT1 READ  1000561018. AND WROTE    28152332. INTEGRALS IN     82 RECORDS. CPU TIME:    22.55 SEC, REAL TIME:    24.99 SEC
 SORT2 READ   309298233. AND WROTE   485200232. INTEGRALS IN  14839 RECORDS. CPU TIME:     1.15 SEC, REAL TIME:     3.20 SEC

 Node minimum:    43961037.  Node maximum:    44229242. integrals

 OPERATOR DM      FOR CENTER  0  COORDINATES:    0.000000    0.000000    0.000000

 EXTRA SYMMETRY OF AOS IN SYMMETRY 1:   1 1 1 1 1 1 1 1 1 1   1 1 1 1 1 1 1 1 1 1   1 1 1 1 1 1 1 1 1 1   1 1 1 1 1 1 1 1 1 1
                                        1 1 1 1 1 1 1 1 1 1   1 1 1 1 1 1 1 1 1 1   1 1 1 1 1 1 1 1 1 1   1 1 1 1 1 1 1 1 1 1
                                        1 1 1 1 1 1 1 1 1 1   1 2 3 4 2 3 4 2 3 4
 EXTRA SYMMETRY OF AOS IN SYMMETRY 2:   1 1 1 1 1 1 1 1 1 1   1 1 1 1 1 1 1 1 1 1   1 1 1 1 1 1 1 1 1 1   1 1 1 1 1 1 2 3 2 3
                                        2 3 2 3 2 3 2 3 2 3   2 3 2 3 2 3 2 3 2 3   2 3 2 3 2 3 2 3
 EXTRA SYMMETRY OF AOS IN SYMMETRY 3:   1 1 1 1 1 1 1 1 1 1   1 1 1 1 1 1 1 1 1 1   1 1 1 1 1 1 1 1 1 1   1 1 1 1 1 1 2 3 2 3
                                        2 3 2 3 2 3 2 3 2 3   2 3 2 3 2 3 2 3 2 3   2 3 2 3 2 3 2 3
 EXTRA SYMMETRY OF AOS IN SYMMETRY 4:   1 1 1 1 1 1 1 1 1 1   1 1 1 1 1 1 1 1 1 1   1 1 1 1 1 1 2 3 2 3   2 3
 EXTRA SYMMETRY OF AOS IN SYMMETRY 5:   1 1 1 1 1 1 1 1 1 1   1 1 1 1 1 1 1 1 1 1   1 1 1 1 1 1 1 1 1 1   1 1 1 1 1 1 2 3 2 3
                                        2 3 2 3 2 3 2 3 2 3   2 3 2 3 2 3 2 3 2 3   2 3 2 3 2 3 2 3
 EXTRA SYMMETRY OF AOS IN SYMMETRY 6:   1 1 1 1 1 1 1 1 1 1   1 1 1 1 1 1 1 1 1 1   1 1 1 1 1 1 2 3 2 3   2 3
 EXTRA SYMMETRY OF AOS IN SYMMETRY 7:   1 1 1 1 1 1 1 1 1 1   1 1 1 1 1 1 1 1 1 1   1 1 1 1 1 1 2 3 2 3   2 3

 Eigenvalues of metric

         1 0.781E-08 0.710E-07 0.710E-07 0.111E-06 0.743E-06 0.743E-06 0.780E-06 0.174E-05
         2 0.846E-08 0.356E-06 0.185E-05 0.432E-05 0.279E-04 0.556E-04 0.556E-04 0.109E-03
         3 0.846E-08 0.356E-06 0.185E-05 0.432E-05 0.279E-04 0.556E-04 0.556E-04 0.109E-03
         4 0.710E-07 0.743E-06 0.614E-05 0.177E-04 0.148E-03 0.607E-03 0.207E-02 0.583E-02
         5 0.846E-08 0.356E-06 0.185E-05 0.432E-05 0.279E-04 0.556E-04 0.556E-04 0.109E-03
         6 0.710E-07 0.743E-06 0.614E-05 0.177E-04 0.148E-03 0.607E-03 0.207E-02 0.583E-02
         7 0.710E-07 0.743E-06 0.614E-05 0.177E-04 0.148E-03 0.607E-03 0.207E-02 0.583E-02
         8 0.556E-04 0.102E-02 0.570E-02 0.138E-01 0.356E-01 0.808E-01 0.141E+00 0.237E+00


 **********************************************************************************************************************************
 DATASETS  * FILE   NREC   LENGTH (MB)   RECORD NAMES
              1      22       21.88       500      610      700      900      950      970     1001      129      960     1700
                                          VAR    BASINP    GEOM    SYMINP    ZMAT    AOBASIS   BASIS     P2S    ABASIS    OPER
                                         1101     1401     1411     1412     1650     1100     1400     1410     1200     1210
                                          SR      EKINR    POTR     PVPR    MOLCAS      S      EKIN      POT      H0       H01
                                         1080     1600
                                         AOSYM     SMH

              2       6        5.55       200      700     1000      520     4202     1001
                                        OPTIONS   GEOM     BASIS   MCVARS     RHF     BASIS

 PROGRAMS   *        TOTAL       INT       POP       RHF       INT
 CPU TIMES  *       516.57    502.26      0.01      0.34     13.44
 REAL TIME  *       524.11 SEC
 DISK USED  *         7.77 GB
 SF USED    *         0.01 MB
 GA USED    *         0.00 MB       (max)       0.00 MB       (current)
 **********************************************************************************************************************************


 PROGRAM * MULTI (Direct Multiconfiguration SCF)       Authors: P.J. Knowles, H.-J. Werner (1984)     S.T. Elbert (1988)


 Number of closed-shell orbitals:  35 (  10   6   6   2   6   2   2   1 )
 Number of active  orbitals:        5 (   2   0   0   1   0   1   1   0 )
 Number of external orbitals:     376 (  88  62  62  29  62  29  29  15 )

 State symmetry 1

 Number of electrons:     7    Spin symmetry=Quartet   Space symmetry=1
 Number of states:        1
 Number of CSFs:          1   (1 determinants, 10 intermediate states)

 State symmetry 2

 Number of electrons:     7    Spin symmetry=Quartet   Space symmetry=4
 Number of states:        3
 Number of CSFs:          3   (3 determinants, 10 intermediate states)

 State symmetry 3

 Number of electrons:     7    Spin symmetry=Quartet   Space symmetry=6
 Number of states:        3
 Number of CSFs:          3   (3 determinants, 10 intermediate states)

 State symmetry 4

 Number of electrons:     7    Spin symmetry=Quartet   Space symmetry=7
 Number of states:        3
 Number of CSFs:          3   (3 determinants, 10 intermediate states)

 Molecular orbitals read from record     4202.2  Type=RHF/CANONICAL (state 1.1)

 Present basis size:     100  68  68  32  68  32  32  16
 Previous basis size:     33  18  18  12  18  12  12   4
 Previous occupation:     12   6   6   3   6   3   3   1
 Previous closed-shells:  12   6   6   2   6   2   2   1
 Previous core-orbitals:   9   6   6   2   6   2   2   1
 Present occupation:      12   6   6   3   6   3   3   1
 Present closed-shells:   12   6   6   2   6   2   2   1
 Present core-orbitals:    9   6   6   2   6   2   2   1
 Wavefunction symmetry:    1   Quartet

 Orbital overlap <old|new>:  < 1.1| 1.1> = 1.000000   < 2.1| 2.1> = 1.000000   < 3.1| 3.1> = 1.000000   < 4.1| 4.1> = 1.000000
                             < 5.1| 5.1> = 1.000000   < 6.1| 6.1> = 1.000000   < 7.1| 7.1> = 1.000000   < 8.1| 8.1> = 1.000000
                             < 9.1| 9.1> = 1.000000   < 1.2| 1.2> = 1.000000   < 2.2| 2.2> = 1.000000   < 3.2| 3.2> = 1.000000
                             < 4.2| 4.2> = 1.000000   < 5.2| 5.2> = 1.000000   < 6.2| 6.2> = 1.000000   < 1.3| 1.3> = 1.000000
                             < 2.3| 2.3> = 1.000000   < 3.3| 3.3> = 1.000000   < 4.3| 4.3> = 1.000000   < 5.3| 5.3> = 1.000000
                             < 6.3| 6.3> = 1.000000   < 1.4| 1.4> = 1.000000   < 2.4| 2.4> = 1.000000   < 1.5| 1.5> = 1.000000
                             < 2.5| 2.5> = 1.000000   < 3.5| 3.5> = 1.000000   < 4.5| 4.5> = 1.000000   < 5.5| 5.5> = 1.000000
                             < 6.5| 6.5> = 1.000000   < 1.6| 1.6> = 1.000000   < 2.6| 2.6> = 1.000000   < 1.7| 1.7> = 1.000000
                             < 2.7| 2.7> = 1.000000   < 1.8| 1.8> = 1.000000   <10.1|10.1> = 1.000000   <11.1|11.1> = 1.000000
                             <12.1|12.1> = 1.000000   < 3.4| 3.4> = 1.000000   < 3.6| 3.6> = 1.000000   < 3.7| 3.7> = 1.000000
 *** IN SYMMETRY 1 ORBITAL  6 SYMMETRY CONTAMINATION OF 0.579D-04 HAS BEEN REMOVED
 *** IN SYMMETRY 1 ORBITAL  7 SYMMETRY CONTAMINATION OF 0.190D-03 HAS BEEN REMOVED
 *** IN SYMMETRY 1 ORBITAL  8 SYMMETRY CONTAMINATION OF 0.267D-03 HAS BEEN REMOVED
 *** IN SYMMETRY 1 ORBITAL  9 SYMMETRY CONTAMINATION OF 0.633D-03 HAS BEEN REMOVED
 *** IN SYMMETRY 1 ORBITAL 10 SYMMETRY CONTAMINATION OF 0.604D-03 HAS BEEN REMOVED
 *** IN SYMMETRY 1 ORBITAL 11 SYMMETRY CONTAMINATION OF 0.583D-03 HAS BEEN REMOVED
 *** IN SYMMETRY 1 ORBITAL 12 SYMMETRY CONTAMINATION OF 0.821D-03 HAS BEEN REMOVED

 EXTRA SYMMETRY OF MOS IN SYMMETRY 1:   1 1 1 1 1 1 1 1 1 1   1 1 1 1 1 1 1 1 3 4   2 1 1 1 1 1 2 3 4 1   1 1 1 1 1 2 3 4 1 1
                                        1 1 1 1 1 1 1 1 1 1   1 1 1 1 1 1 1 1 1 1   1 1 1 1 1 1 1 1 1 1   1 1 1 1 1 1 1 1 1 1
                                        1 1 1 1 1 1 1 1 1 1   1 1 1 1 1 1 1 1 1 1
 *** IN SYMMETRY 2 ORBITAL  2 SYMMETRY CONTAMINATION OF 0.187D-04 HAS BEEN REMOVED
 *** IN SYMMETRY 2 ORBITAL  3 SYMMETRY CONTAMINATION OF 0.303D-03 HAS BEEN REMOVED
 *** IN SYMMETRY 2 ORBITAL  4 SYMMETRY CONTAMINATION OF 0.437D+00 HAS BEEN REMOVED
 *** IN SYMMETRY 2 ORBITAL  5 SYMMETRY CONTAMINATION OF 0.442D+00 HAS BEEN REMOVED
 *** IN SYMMETRY 2 ORBITAL  6 SYMMETRY CONTAMINATION OF 0.146D-01 HAS BEEN REMOVED
 EXTRA SYMMETRY OF MOS IN SYMMETRY 2:   1 1 1 2 3 1 3 2 1 3   2 1 3 2 1 3 2 1 3 2   1 3 2 1 3 2 1 3 2 1   3 2 1 3 2 1 3 2 1 1
                                        1 1 1 1 1 2 3 1 2 3   1 2 3 1 3 2 1 1 1 1   1 1 1 1 1 1 1 1
 *** IN SYMMETRY 3 ORBITAL  2 SYMMETRY CONTAMINATION OF 0.187D-04 HAS BEEN REMOVED
 *** IN SYMMETRY 3 ORBITAL  3 SYMMETRY CONTAMINATION OF 0.303D-03 HAS BEEN REMOVED
 *** IN SYMMETRY 3 ORBITAL  4 SYMMETRY CONTAMINATION OF 0.437D+00 HAS BEEN REMOVED
 *** IN SYMMETRY 3 ORBITAL  5 SYMMETRY CONTAMINATION OF 0.442D+00 HAS BEEN REMOVED
 *** IN SYMMETRY 3 ORBITAL  6 SYMMETRY CONTAMINATION OF 0.146D-01 HAS BEEN REMOVED
 EXTRA SYMMETRY OF MOS IN SYMMETRY 3:   1 1 1 2 3 1 3 2 1 3   2 1 3 2 1 3 2 1 3 2   1 3 2 1 3 2 1 3 2 1   3 2 1 3 2 1 2 3 1 1
                                        1 1 1 1 1 2 3 1 2 3   1 2 3 1 2 3 1 1 1 1   1 1 1 1 1 1 1 1
 *** IN SYMMETRY 4 ORBITAL  2 SYMMETRY CONTAMINATION OF 0.940D-04 HAS BEEN REMOVED
 *** IN SYMMETRY 4 ORBITAL  3 SYMMETRY CONTAMINATION OF 0.164D-02 HAS BEEN REMOVED
 EXTRA SYMMETRY OF MOS IN SYMMETRY 4:   1 1 1 1 1 2 3 1 1 3   2 1 1 3 1 1 1 1 1 1   1 1 1 1 1 1 1 1 1 1   1 2
 *** IN SYMMETRY 5 ORBITAL  2 SYMMETRY CONTAMINATION OF 0.133D-04 HAS BEEN REMOVED
 *** IN SYMMETRY 5 ORBITAL  3 SYMMETRY CONTAMINATION OF 0.216D-03 HAS BEEN REMOVED
 *** IN SYMMETRY 5 ORBITAL  5 SYMMETRY CONTAMINATION OF 0.129D-01 HAS BEEN REMOVED
 *** IN SYMMETRY 5 ORBITAL  6 SYMMETRY CONTAMINATION OF 0.104D-01 HAS BEEN REMOVED
 EXTRA SYMMETRY OF MOS IN SYMMETRY 5:   1 1 1 3 2 1 2 3 1 2   3 1 2 3 1 2 3 1 2 3   1 2 3 1 2 3 1 2 3 1   2 3 1 2 3 1 3 2 1 1
                                        1 1 1 1 1 3 2 1 3 2   1 3 2 1 3 2 1 1 1 1   1 1 1 1 1 1 1 1
 *** IN SYMMETRY 6 ORBITAL  2 SYMMETRY CONTAMINATION OF 0.121D-03 HAS BEEN REMOVED
 *** IN SYMMETRY 6 ORBITAL  3 SYMMETRY CONTAMINATION OF 0.211D-02 HAS BEEN REMOVED
 EXTRA SYMMETRY OF MOS IN SYMMETRY 6:   1 1 1 1 1 3 2 1 1 2   3 1 1 2 1 1 1 1 1 1   1 1 1 1 1 1 1 1 1 1   1 3
 *** IN SYMMETRY 7 ORBITAL  2 SYMMETRY CONTAMINATION OF 0.121D-03 HAS BEEN REMOVED
 *** IN SYMMETRY 7 ORBITAL  3 SYMMETRY CONTAMINATION OF 0.211D-02 HAS BEEN REMOVED
 EXTRA SYMMETRY OF MOS IN SYMMETRY 7:   1 1 1 1 1 3 2 1 1 2   3 1 1 2 1 1 1 1 1 1   1 1 1 1 1 1 1 1 1 1   1 3

 Wavefunction dump at record             5202.2

 Convergence thresholds  0.10E-01 (gradient)  0.15E-05 (energy)  0.10E-02 (step length)

 Weight factors for state symmetry  1:    0.10000
 Weight factors for state symmetry  2:    0.10000   0.10000   0.10000
 Weight factors for state symmetry  3:    0.10000   0.10000   0.10000
 Weight factors for state symmetry  4:    0.10000   0.10000   0.10000

 Number of orbital rotations:     2474   (    26 Core/Active   2185 Core/Virtual   0 Active/Active    263 Active/Virtual)
 Total number of variables:       2502


 ITER. MIC  NCI  NEG     ENERGY(VAR)     ENERGY(PROJ)   ENERGY CHANGE     GRAD(0)  GRAD(ORB)   GRAD(CI)     STEP       TIME

   1   50   32    0  -17826.87805554  -17826.91872099   -0.04066545   47.46258387 0.00146200 0.00000000  0.32D-01     13.95
   2  130   48    0  -17826.91872248  -17826.91872256   -0.00000008    0.00782096 0.00001392 0.00000000  0.28D-03     38.75
   3  130   48    0  -17826.91872256  -17826.91872256   -0.00000000    0.00001392 0.00000016 0.00000000  0.33D-05     61.16

 ** WVFN ****  CONVERGENCE REACHED, FINAL GRADIENT:  0.16D-06



 Results for state 1.1
 =====================

 !MCSCF STATE 1.1 Energy             -17826.9349605833
   --><property name="Energy" method="MCSCF" principal="true" stateSymmetry="1" stateNumber="1"
     value="-17826.9349605833"/><!--
 Nuclear energy                         0.00000000
 Kinetic energy                     26252.02922421
 One electron energy               -24451.02913455
 Two electron energy                 6624.09417397
 Virial ratio                           1.67906884

 !MCSCF STATE 1.1 Dipole moment         0.00000000     0.00000000     0.00000000
 Dipole moment /Debye                   0.00000000     0.00000000     0.00000000
   --><property name="Dipole moment" method="MCSCF" principal="true" stateSymmetry="1"
     stateNumber="1" value="0.0 0.0 0.0"/><!--



 Results for state 1.4
 =====================

 !MCSCF STATE 1.4 Energy             -17826.9349605831
   --><property name="Energy" method="MCSCF" principal="true" stateSymmetry="4" stateNumber="1"
     value="-17826.9349605831"/><!--
 Nuclear energy                         0.00000000
 Kinetic energy                     26252.02922423
 One electron energy               -24451.02913462
 Two electron energy                 6624.09417404
 Virial ratio                           1.67906884

 !MCSCF STATE 1.4 Dipole moment         0.00000000     0.00000000     0.00000000
 Dipole moment /Debye                   0.00000000     0.00000000     0.00000000
   --><property name="Dipole moment" method="MCSCF" principal="true" stateSymmetry="4"
     stateNumber="1" value="0.0 0.0 0.0"/><!--

 Results for state 2.4
 =====================

 !MCSCF STATE 2.4 Energy             -17826.9349605831
   --><property name="Energy" method="MCSCF" principal="true" stateSymmetry="4" stateNumber="2"
     value="-17826.9349605831"/><!--
 Nuclear energy                         0.00000000
 Kinetic energy                     26252.02922424
 One electron energy               -24451.02913468
 Two electron energy                 6624.09417409
 Virial ratio                           1.67906884

 !MCSCF STATE 2.4 Dipole moment         0.00000000     0.00000000     0.00000000
 Dipole moment /Debye                   0.00000000     0.00000000     0.00000000
   --><property name="Dipole moment" method="MCSCF" principal="true" stateSymmetry="4"
     stateNumber="2" value="0.0 0.0 0.0"/><!--

 Results for state 3.4
 =====================

 !MCSCF STATE 3.4 Energy             -17826.8808338399
   --><property name="Energy" method="MCSCF" principal="true" stateSymmetry="4" stateNumber="3"
     value="-17826.8808338399"/><!--
 Nuclear energy                         0.00000000
 Kinetic energy                     26252.02922423
 One electron energy               -24451.02913464
 Two electron energy                 6624.14830080
 Virial ratio                           1.67906678

 !MCSCF STATE 3.4 Dipole moment         0.00000000     0.00000000     0.00000000
 Dipole moment /Debye                   0.00000000     0.00000000     0.00000000
   --><property name="Dipole moment" method="MCSCF" principal="true" stateSymmetry="4"
     stateNumber="3" value="0.0 0.0 0.0"/><!--



 Results for state 1.6
 =====================

 !MCSCF STATE 1.6 Energy             -17826.9349605832
   --><property name="Energy" method="MCSCF" principal="true" stateSymmetry="6" stateNumber="1"
     value="-17826.9349605832"/><!--
 Nuclear energy                         0.00000000
 Kinetic energy                     26252.02922423
 One electron energy               -24451.02913462
 Two electron energy                 6624.09417404
 Virial ratio                           1.67906884

 !MCSCF STATE 1.6 Dipole moment         0.00000000     0.00000000     0.00000000
 Dipole moment /Debye                   0.00000000     0.00000000     0.00000000
   --><property name="Dipole moment" method="MCSCF" principal="true" stateSymmetry="6"
     stateNumber="1" value="0.0 0.0 0.0"/><!--

 Results for state 2.6
 =====================

 !MCSCF STATE 2.6 Energy             -17826.9349605831
   --><property name="Energy" method="MCSCF" principal="true" stateSymmetry="6" stateNumber="2"
     value="-17826.9349605831"/><!--
 Nuclear energy                         0.00000000
 Kinetic energy                     26252.02922424
 One electron energy               -24451.02913468
 Two electron energy                 6624.09417409
 Virial ratio                           1.67906884

 !MCSCF STATE 2.6 Dipole moment         0.00000000     0.00000000     0.00000000
 Dipole moment /Debye                   0.00000000     0.00000000     0.00000000
   --><property name="Dipole moment" method="MCSCF" principal="true" stateSymmetry="6"
     stateNumber="2" value="0.0 0.0 0.0"/><!--

 Results for state 3.6
 =====================

 !MCSCF STATE 3.6 Energy             -17826.8808338399
   --><property name="Energy" method="MCSCF" principal="true" stateSymmetry="6" stateNumber="3"
     value="-17826.8808338399"/><!--
 Nuclear energy                         0.00000000
 Kinetic energy                     26252.02922423
 One electron energy               -24451.02913463
 Two electron energy                 6624.14830080
 Virial ratio                           1.67906678

 !MCSCF STATE 3.6 Dipole moment         0.00000000     0.00000000     0.00000000
 Dipole moment /Debye                   0.00000000     0.00000000     0.00000000
   --><property name="Dipole moment" method="MCSCF" principal="true" stateSymmetry="6"
     stateNumber="3" value="0.0 0.0 0.0"/><!--



 Results for state 1.7
 =====================

 !MCSCF STATE 1.7 Energy             -17826.9349605832
   --><property name="Energy" method="MCSCF" principal="true" stateSymmetry="7" stateNumber="1"
     value="-17826.9349605832"/><!--
 Nuclear energy                         0.00000000
 Kinetic energy                     26252.02922423
 One electron energy               -24451.02913462
 Two electron energy                 6624.09417404
 Virial ratio                           1.67906884

 !MCSCF STATE 1.7 Dipole moment         0.00000000     0.00000000     0.00000000
 Dipole moment /Debye                   0.00000000     0.00000000     0.00000000
   --><property name="Dipole moment" method="MCSCF" principal="true" stateSymmetry="7"
     stateNumber="1" value="0.0 0.0 0.0"/><!--

 Results for state 2.7
 =====================

 !MCSCF STATE 2.7 Energy             -17826.9349605831
   --><property name="Energy" method="MCSCF" principal="true" stateSymmetry="7" stateNumber="2"
     value="-17826.9349605831"/><!--
 Nuclear energy                         0.00000000
 Kinetic energy                     26252.02922424
 One electron energy               -24451.02913468
 Two electron energy                 6624.09417409
 Virial ratio                           1.67906884

 !MCSCF STATE 2.7 Dipole moment         0.00000000     0.00000000     0.00000000
 Dipole moment /Debye                   0.00000000     0.00000000     0.00000000
   --><property name="Dipole moment" method="MCSCF" principal="true" stateSymmetry="7"
     stateNumber="2" value="0.0 0.0 0.0"/><!--

 Results for state 3.7
 =====================

 !MCSCF STATE 3.7 Energy             -17826.8808338399
   --><property name="Energy" method="MCSCF" principal="true" stateSymmetry="7" stateNumber="3"
     value="-17826.8808338399"/><!--
 Nuclear energy                         0.00000000
 Kinetic energy                     26252.02922423
 One electron energy               -24451.02913463
 Two electron energy                 6624.14830079
 Virial ratio                           1.67906678

 !MCSCF STATE 3.7 Dipole moment         0.00000000     0.00000000     0.00000000
 Dipole moment /Debye                   0.00000000     0.00000000     0.00000000
   --><property name="Dipole moment" method="MCSCF" principal="true" stateSymmetry="7"
     stateNumber="3" value="0.0 0.0 0.0"/><!--

 State-averaged charge density matrix saved on record  5202.2 (density set 1)


 NATURAL ORBITALS (state averaged)
 =================================

   Orb     Occ        Energy       Coefficients

                                   1 1s      1 1s      1 1s      1 1s      1 1s      1 1s      1 1s      1 1s      1 1s      1 1s
                                   1 1s      1 1s      1 1s      1 1s      1 1s      1 1s      1 1s      1 1s      1 1s      1 1s
                                   1 1s      1 1s      1 1s      1 1s      1 1s      1 1s      1 1s      1 1s      1 1s      1 1s
                                   1 1s      1 1s      1 1s      1 1s      1 1s      1 1s      1 1s      1 1s      1 1s      1 3d0
                                   1 3d2+    1 3d0     1 3d2+    1 3d0     1 3d2+    1 3d0     1 3d2+    1 3d0     1 3d2+    1 3d0
                                   1 3d2+    1 3d0     1 3d2+    1 3d0     1 3d2+    1 3d0     1 3d2+    1 3d0     1 3d2+    1 3d0
                                   1 3d2+    1 3d0     1 3d2+    1 3d0     1 3d2+    1 3d0     1 3d2+    1 3d0     1 3d2+    1 3d0
                                   1 3d2+    1 3d0     1 3d2+    1 3d0     1 3d2+    1 3d0     1 3d2+    1 3d0     1 3d2+    1 3d0
                                   1 3d2+    1 3d0     1 3d2+    1 3d0     1 3d2+    1 3d0     1 3d2+    1 3d0     1 3d2+    1 3d0
                                   1 3d2+    1 5g0     1 5g4+    1 5g2+    1 5g0     1 5g4+    1 5g2+    1 5g0     1 5g4+    1 5g2+


   1.1  2.00000 -2813.207889     0.000014  0.000038  0.000104  0.000238  0.000499  0.000967  0.001786  0.003190  0.005597  0.009730
                                 0.016892  0.029388  0.051252  0.088871  0.149648  0.231047  0.290682  0.239580  0.090852  0.008461
                                 0.000609 -0.000365  0.000217 -0.000204  0.000183 -0.000250 -0.000490  0.000172  0.000134 -0.000802
                                -0.000712 -0.000263  0.000563 -0.000202  0.000821  0.000692  0.000252 -0.000001  0.000000  0.000000
                                -0.000000 -0.000000  0.000000  0.000000 -0.000000  0.000000  0.000000  0.000000  0.000000 -0.000000
                                 0.000000  0.000000 -0.000000 -0.000000  0.000000  0.000000 -0.000000 -0.000000  0.000000  0.000000
                                -0.000000 -0.000000  0.000000  0.000000 -0.000000  0.000000 -0.000000 -0.000000  0.000000 -0.000000
                                 0.000000 -0.000000 -0.000000 -0.000000 -0.000000 -0.000000  0.000000 -0.000000  0.000000  0.000000
                                -0.000000  0.000000  0.000000  0.000000  0.000000  0.000000 -0.000000  0.000000 -0.000000 -0.000000
                                 0.000000  0.000000  0.000000  0.000000  0.000000  0.000000  0.000000  0.000000  0.000000  0.000000

   2.1  2.00000  -497.503882    -0.000005 -0.000015 -0.000040 -0.000091 -0.000192 -0.000372 -0.000688 -0.001231 -0.002168 -0.003790
                                -0.006638 -0.011706 -0.020849 -0.037386 -0.066463 -0.112343 -0.162973 -0.152000  0.044794  0.409295
                                 0.493227  0.186166  0.015399  0.000350  0.000046 -0.000596 -0.001271  0.000497  0.000405 -0.002493
                                -0.002233 -0.000828  0.001394 -0.000599  0.002551  0.002170  0.000794 -0.000002  0.000000 -0.000000
                                 0.000000  0.000000 -0.000000 -0.000000  0.000000  0.000000 -0.000000 -0.000000  0.000000  0.000000
                                -0.000000 -0.000000  0.000000  0.000000 -0.000000 -0.000000  0.000000  0.000000 -0.000000 -0.000000
                                 0.000000  0.000000 -0.000000 -0.000000  0.000000 -0.000000  0.000000  0.000000 -0.000000  0.000000
                                -0.000000  0.000000 -0.000000  0.000000  0.000000  0.000000  0.000000  0.000000 -0.000000 -0.000000
                                 0.000000 -0.000000  0.000000 -0.000000 -0.000000 -0.000000 -0.000000 -0.000000 -0.000000  0.000000
                                 0.000000  0.000000  0.000000  0.000000  0.000000  0.000000  0.000000  0.000000  0.000000  0.000000

   3.1  2.00000  -118.792555     0.000003  0.000007  0.000019  0.000044  0.000092  0.000177  0.000328  0.000588  0.001036  0.001813
                                 0.003180  0.005620  0.010044  0.018114  0.032502  0.055834  0.083213  0.079810 -0.039472 -0.342264
                                -0.547079 -0.087293  0.728416  0.552418  0.073946  0.017068  0.029028 -0.010668 -0.008484  0.051893
                                 0.046513  0.017257 -0.032530  0.012633 -0.053093 -0.045189 -0.016552  0.000044 -0.000001 -0.000000
                                -0.000000 -0.000000  0.000000  0.000000 -0.000000 -0.000000  0.000000  0.000000 -0.000000 -0.000000
                                 0.000000  0.000000 -0.000000 -0.000000  0.000000  0.000000 -0.000000 -0.000000  0.000000  0.000000
                                -0.000000 -0.000000  0.000000  0.000000 -0.000000  0.000000 -0.000000 -0.000000  0.000000 -0.000000
                                -0.000000 -0.000000 -0.000000 -0.000000 -0.000000 -0.000000 -0.000000 -0.000000  0.000000  0.000000
                                 0.000000  0.000000  0.000000  0.000000  0.000000  0.000000  0.000000 -0.000000  0.000000  0.000000
                                -0.000000  0.000000  0.000000  0.000000  0.000000  0.000000  0.000000  0.000000  0.000000  0.000000

   4.1  2.00000   -77.883974     0.000000 -0.000000  0.000000 -0.000000  0.000000 -0.000000  0.000000 -0.000000  0.000000 -0.000000
                                 0.000000 -0.000000  0.000000 -0.000000  0.000000 -0.000000  0.000000 -0.000000  0.000000 -0.000000
                                 0.000000 -0.000000  0.000000  0.000000 -0.000000  0.000000  0.000000 -0.000000 -0.000000  0.000000
                                 0.000000  0.000000 -0.000000  0.000000 -0.000000 -0.000000 -0.000000  0.000000 -0.000000 -0.000000
                                 0.000023 -0.000002  0.000139 -0.000013  0.000775 -0.000059  0.003569 -0.000226  0.013712 -0.000699
                                 0.042417 -0.001770  0.107385 -0.003507  0.212836 -0.005224  0.316986 -0.005177  0.314132 -0.002728
                                 0.165562 -0.000644  0.039065 -0.000041  0.002483  0.000009 -0.000544 -0.000007  0.000395 -0.000009
                                 0.000555 -0.000044  0.002679 -0.000026  0.001555 -0.000009  0.000544 -0.000022  0.001313  0.000011
                                -0.000637  0.000045 -0.002733  0.000026 -0.001604  0.000009 -0.000561  0.000000 -0.000003 -0.000000
                                 0.000001  0.000000  0.000000  0.000000  0.000000  0.000000  0.000000  0.000000  0.000000  0.000000

   5.1  2.00000   -77.883974     0.000000 -0.000000  0.000000 -0.000000  0.000000 -0.000000  0.000000 -0.000000 -0.000000 -0.000000
                                -0.000000 -0.000000 -0.000000 -0.000000 -0.000000 -0.000000 -0.000000  0.000000  0.000000  0.000000
                                -0.000000  0.000000  0.000000 -0.000000  0.000000 -0.000000 -0.000000  0.000000  0.000000  0.000000
                                 0.000000  0.000000  0.000000 -0.000000 -0.000000 -0.000000 -0.000000  0.000000 -0.000000  0.000023
                                 0.000000  0.000139  0.000002  0.000775  0.000013  0.003569  0.000059  0.013712  0.000226  0.042417
                                 0.000699  0.107385  0.001770  0.212836  0.003507  0.316986  0.005224  0.314132  0.005177  0.165562
                                 0.002728  0.039065  0.000644  0.002483  0.000041 -0.000544 -0.000009  0.000395  0.000007  0.000555
                                 0.000009  0.002679  0.000044  0.001555  0.000026  0.000544  0.000009  0.001313  0.000022 -0.000637
                                -0.000011 -0.002733 -0.000045 -0.001604 -0.000026 -0.000561 -0.000009 -0.000003 -0.000000  0.000001
                                 0.000000  0.000000  0.000000  0.000000  0.000000  0.000000  0.000000  0.000000  0.000000  0.000000

   6.1  2.00000   -26.636245    -0.000001 -0.000003 -0.000009 -0.000022 -0.000045 -0.000088 -0.000163 -0.000292 -0.000514 -0.000900
                                -0.001579 -0.002793 -0.004996 -0.009019 -0.016231 -0.027962 -0.042028 -0.040429  0.021943  0.196191
                                 0.334239  0.053242 -0.774844 -0.752861  0.504099  0.934906  0.276961 -0.052105 -0.044835  0.279932
                                 0.252611  0.094473 -0.084920  0.068302 -0.286422 -0.245484 -0.090621  0.000243 -0.000004 -0.000000
                                -0.000000 -0.000000  0.000000  0.000000 -0.000000 -0.000000  0.000000  0.000000 -0.000000 -0.000000
                                 0.000000  0.000000 -0.000000 -0.000000  0.000000  0.000000 -0.000000 -0.000000  0.000000  0.000000
                                -0.000000 -0.000000  0.000000  0.000000 -0.000000  0.000000  0.000000  0.000000 -0.000000  0.000000
                                -0.000000  0.000000 -0.000000  0.000000 -0.000000  0.000000 -0.000000 -0.000000  0.000000 -0.000000
                                 0.000000 -0.000000  0.000000 -0.000000  0.000000 -0.000000  0.000000 -0.000000  0.000000  0.000000
                                -0.000000  0.000000  0.000000  0.000000  0.000000  0.000000  0.000000  0.000000  0.000000  0.000000

   7.1  2.00000   -12.094900    -0.000000  0.000000 -0.000000 -0.000000 -0.000000 -0.000000 -0.000000 -0.000000 -0.000000 -0.000000
                                -0.000000 -0.000000 -0.000000 -0.000000 -0.000000 -0.000000 -0.000000  0.000000 -0.000000  0.000000
                                -0.000000  0.000000 -0.000000  0.000000 -0.000000  0.000000  0.000000 -0.000000 -0.000000  0.000000
                                 0.000000  0.000000 -0.000000  0.000000 -0.000000 -0.000000 -0.000000  0.000000 -0.000000 -0.000002
                                -0.000011 -0.000014 -0.000069 -0.000078 -0.000389 -0.000360 -0.001793 -0.001396 -0.006949 -0.004352
                                -0.021661 -0.011235 -0.055927 -0.022359 -0.111295 -0.032507 -0.161812 -0.024255 -0.120733  0.021160
                                 0.105331  0.073027  0.363506  0.082843  0.412368  0.042594  0.212019  0.007663  0.038145 -0.000610
                                -0.003038 -0.008896 -0.044283 -0.006346 -0.031590 -0.002453 -0.012213 -0.000415 -0.002067  0.000854
                                 0.004250  0.009010  0.044849  0.006532  0.032513  0.002527  0.012577  0.000012  0.000061 -0.000003
                                -0.000013  0.000000  0.000000  0.000000  0.000000  0.000000  0.000000  0.000000  0.000000  0.000000

   8.1  2.00000   -12.094900    -0.000000 -0.000000 -0.000000 -0.000000 -0.000000 -0.000000 -0.000000 -0.000000 -0.000000 -0.000000
                                -0.000000 -0.000000 -0.000000 -0.000000 -0.000000 -0.000000 -0.000000  0.000000 -0.000000  0.000000
                                 0.000000 -0.000000  0.000000 -0.000000  0.000000 -0.000000 -0.000000  0.000000  0.000000 -0.000000
                                 0.000000  0.000000  0.000000 -0.000000  0.000000 -0.000000 -0.000000  0.000000 -0.000000 -0.000011
                                 0.000002 -0.000069  0.000014 -0.000389  0.000078 -0.001793  0.000360 -0.006949  0.001396 -0.021661
                                 0.004352 -0.055927  0.011235 -0.111295  0.022359 -0.161812  0.032507 -0.120733  0.024255  0.105331
                                -0.021160  0.363506 -0.073027  0.412368 -0.082843  0.212019 -0.042594  0.038145 -0.007663 -0.003038
                                 0.000610 -0.044283  0.008896 -0.031591  0.006346 -0.012213  0.002453 -0.002067  0.000415  0.004250
                                -0.000854  0.044849 -0.009010  0.032513 -0.006531  0.012577 -0.002527  0.000061 -0.000012 -0.000013
                                 0.000003  0.000000  0.000000  0.000000  0.000000  0.000000  0.000000  0.000000  0.000000  0.000000

   9.1  2.00000    -4.247061     0.000001  0.000001  0.000004  0.000009  0.000019  0.000037  0.000069  0.000124  0.000218  0.000382
                                 0.000670  0.001184  0.002119  0.003826  0.006889  0.011879  0.017884  0.017228 -0.009572 -0.086009
                                -0.149078 -0.024426  0.397653  0.403847 -0.365014 -0.897554  0.026974  0.791590  0.384430  1.154093
                                 0.622575  0.194919 -0.152145  0.189951 -1.140913 -0.599524 -0.186632  0.000472 -0.000008 -0.000000
                                 0.000000 -0.000000 -0.000000 -0.000000  0.000000 -0.000000 -0.000000 -0.000000  0.000000 -0.000000
                                -0.000000 -0.000000  0.000000 -0.000000 -0.000000 -0.000000  0.000000  0.000000 -0.000000 -0.000000
                                 0.000000 -0.000000 -0.000000  0.000000  0.000000  0.000000  0.000000 -0.000000 -0.000000 -0.000000
                                 0.000000 -0.000000  0.000000 -0.000000  0.000000 -0.000000  0.000000 -0.000000 -0.000000  0.000000
                                -0.000000  0.000000 -0.000000  0.000000 -0.000000  0.000000 -0.000000  0.000000 -0.000000 -0.000000
                                 0.000000  0.000000  0.000000  0.000000  0.000000  0.000000  0.000000  0.000000  0.000000  0.000000

  10.1  2.00000    -0.296843    -0.000000 -0.000000 -0.000001 -0.000003 -0.000006 -0.000011 -0.000020 -0.000036 -0.000063 -0.000110
                                -0.000193 -0.000341 -0.000610 -0.001101 -0.001982 -0.003419 -0.005148 -0.004962  0.002770  0.024873
                                 0.043268  0.007072 -0.117938 -0.120922  0.113699  0.301834 -0.033703 -0.359976 -0.246387 -1.700959
                                -1.150812  0.995565  0.067067 -0.143971  2.047590  1.721593 -0.716504  0.011676 -0.000097  0.000000
                                -0.000000  0.000000 -0.000000  0.000000 -0.000000  0.000000 -0.000000  0.000000 -0.000000  0.000000
                                -0.000000  0.000000 -0.000000  0.000000 -0.000000  0.000000  0.000000 -0.000000 -0.000000  0.000000
                                 0.000000  0.000000 -0.000000 -0.000000  0.000000 -0.000000  0.000000  0.000000 -0.000000  0.000000
                                 0.000000  0.000000  0.000000  0.000000  0.000000  0.000000  0.000000  0.000000 -0.000000 -0.000000
                                -0.000000 -0.000000 -0.000000 -0.000000 -0.000000 -0.000000 -0.000000 -0.000000 -0.000000  0.000000
                                 0.000000  0.000000  0.000000  0.000000  0.000000  0.000000  0.000000  0.000000  0.000000  0.000000

  11.1  1.40000    -0.306009     0.000000  0.000000  0.000000  0.000000  0.000000  0.000000  0.000000  0.000000  0.000000  0.000000
                                 0.000000  0.000000  0.000000  0.000000  0.000000  0.000000  0.000000  0.000000 -0.000000 -0.000000
                                -0.000000  0.000000  0.000000 -0.000000  0.000000 -0.000000 -0.000000  0.000000  0.000000 -0.000001
                                -0.000001 -0.000001  0.000000 -0.000000  0.000001  0.000001  0.000001 -0.000000  0.000000  0.000003
                                 0.000000  0.000020  0.000000  0.000113  0.000000  0.000521  0.000000  0.002026  0.000000  0.006316
                                 0.000000  0.016386  0.000000  0.032569  0.000000  0.047306  0.000000  0.032356  0.000000 -0.043668
                                -0.000000 -0.130821 -0.000000 -0.140241 -0.000000  0.016504  0.000000  0.243159  0.000001  0.349155
                                 0.000001 -0.346496 -0.000001 -0.855216 -0.000002 -0.699678 -0.000002 -0.013719 -0.000000  0.048090
                                 0.000000  0.686498  0.000002  1.036884  0.000003  0.742709  0.000002  0.003861  0.000000 -0.000787
                                -0.000000  0.000000  0.000000  0.000000  0.000000  0.000000  0.000000  0.000000  0.000000  0.000000

  12.1  1.40000    -0.306009    -0.000000 -0.000000 -0.000000 -0.000000 -0.000000 -0.000000 -0.000000 -0.000000 -0.000000 -0.000000
                                -0.000000 -0.000000 -0.000000 -0.000000 -0.000000 -0.000000 -0.000000  0.000000 -0.000000  0.000000
                                -0.000000  0.000000 -0.000000  0.000000 -0.000000  0.000000  0.000000 -0.000000 -0.000000 -0.000000
                                -0.000000 -0.000000 -0.000000  0.000000  0.000000  0.000000  0.000000 -0.000000  0.000000 -0.000000
                                 0.000003 -0.000000  0.000020 -0.000000  0.000113 -0.000000  0.000521 -0.000000  0.002026 -0.000000
                                 0.006316 -0.000000  0.016386 -0.000000  0.032569 -0.000000  0.047306 -0.000000  0.032356  0.000000
                                -0.043668  0.000000 -0.130821  0.000000 -0.140241 -0.000000  0.016504 -0.000001  0.243158 -0.000001
                                 0.349155  0.000001 -0.346498  0.000003 -0.855219  0.000002 -0.699680  0.000000 -0.013719 -0.000000
                                 0.048090 -0.000002  0.686500 -0.000003  1.036887 -0.000002  0.742711 -0.000000  0.003861  0.000000
                                -0.000787  0.000000  0.000000  0.000000  0.000000  0.000000  0.000000  0.000000  0.000000  0.000000

                                   1 2px     1 2px     1 2px     1 2px     1 2px     1 2px     1 2px     1 2px     1 2px     1 2px
                                   1 2px     1 2px     1 2px     1 2px     1 2px     1 2px     1 2px     1 2px     1 2px     1 2px
                                   1 2px     1 2px     1 2px     1 2px     1 2px     1 2px     1 2px     1 2px     1 2px     1 2px
                                   1 2px     1 2px     1 2px     1 2px     1 2px     1 2px     1 4f1+    1 4f3+    1 4f1+    1 4f3+
                                   1 4f1+    1 4f3+    1 4f1+    1 4f3+    1 4f1+    1 4f3+    1 4f1+    1 4f3+    1 4f1+    1 4f3+
                                   1 4f1+    1 4f3+    1 4f1+    1 4f3+    1 4f1+    1 4f3+    1 4f1+    1 4f3+    1 4f1+    1 4f3+
                                   1 4f1+    1 4f3+    1 4f1+    1 4f3+    1 4f1+    1 4f3+    1 4f1+    1 4f3+

   1.2  2.00000  -433.544815     0.000003  0.000008  0.000024  0.000062  0.000153  0.000367  0.000873  0.002086  0.005048  0.012351
                                 0.030026  0.070135  0.147566  0.257175  0.327095  0.249331  0.089110  0.009799  0.000504 -0.000290
                                 0.000171 -0.000920 -0.000339 -0.004208  0.000276  0.000245  0.000135  0.000052  0.000988  0.004258
                                -0.000234 -0.000222 -0.000121 -0.000046  0.000001 -0.000000 -0.000000  0.000000 -0.000000  0.000000
                                -0.000000  0.000000 -0.000000  0.000000 -0.000000  0.000000 -0.000000  0.000000 -0.000000  0.000000
                                -0.000000  0.000000 -0.000000  0.000000 -0.000000  0.000000 -0.000000  0.000000 -0.000000  0.000000
                                -0.000000  0.000000 -0.000000  0.000000 -0.000000  0.000000  0.000000 -0.000000

   2.2  2.00000   -99.702290    -0.000001 -0.000004 -0.000012 -0.000032 -0.000079 -0.000189 -0.000449 -0.001078 -0.002623 -0.006477
                                -0.015945 -0.038105 -0.082810 -0.151214 -0.196652 -0.091593  0.226863  0.497788  0.336760  0.077108
                                 0.007288 -0.006492 -0.002993 -0.039361  0.002680  0.002452  0.001369  0.000535  0.007832  0.039719
                                -0.002303 -0.002227 -0.001229 -0.000471  0.000013 -0.000004  0.000000 -0.000000  0.000000 -0.000000
                                 0.000000 -0.000000  0.000000 -0.000000  0.000000 -0.000000  0.000000 -0.000000  0.000000 -0.000000
                                 0.000000 -0.000000  0.000000 -0.000000  0.000000 -0.000000  0.000000 -0.000000  0.000000 -0.000000
                                 0.000000 -0.000000  0.000000 -0.000000  0.000000 -0.000000 -0.000000  0.000000

   3.2  2.00000   -20.241828     0.000001  0.000002  0.000006  0.000016  0.000039  0.000093  0.000221  0.000532  0.001295  0.003205
                                 0.007915  0.019016  0.041661  0.076979  0.100750  0.035731 -0.175787 -0.409396 -0.201756  0.354820
                                 0.577473  0.301491  0.040759 -0.000023  0.002669  0.003379  0.002109  0.000867 -0.024869  0.000194
                                -0.002514 -0.003151 -0.001912 -0.000765  0.000021 -0.000007 -0.000000  0.000000 -0.000000  0.000000
                                -0.000000  0.000000 -0.000000  0.000000 -0.000000  0.000000 -0.000000  0.000000 -0.000000  0.000000
                                -0.000000  0.000000 -0.000000  0.000000 -0.000000  0.000000 -0.000000  0.000000 -0.000000  0.000000
                                -0.000000  0.000000 -0.000000  0.000000 -0.000000  0.000000  0.000000 -0.000000

   4.2  2.00000    -3.034203     0.000000  0.000000  0.000000  0.000000  0.000000  0.000000  0.000000  0.000000  0.000000  0.000000
                                 0.000000  0.000000  0.000000  0.000000  0.000000  0.000000 -0.000000 -0.000000 -0.000000  0.000000
                                 0.000000  0.000000  0.000000 -0.000000  0.000000  0.000000  0.000000  0.000000 -0.000000  0.000000
                                -0.000000 -0.000000 -0.000000 -0.000000  0.000000 -0.000000 -0.000000  0.000217 -0.000000  0.002021
                                -0.000000  0.011518 -0.000000  0.041980 -0.000000  0.112578 -0.000000  0.222640 -0.000000  0.305290
                                -0.000000  0.311413 -0.000000  0.222264 -0.000000  0.095280 -0.000000  0.018118 -0.000000  0.006643
                                -0.000000  0.005065 -0.000000  0.000065 -0.000000  0.000743  0.000000 -0.000210

   5.2  2.00000    -3.034203     0.000000  0.000000  0.000000  0.000000  0.000000  0.000000  0.000000  0.000000  0.000000  0.000000
                                 0.000000  0.000000  0.000000  0.000000  0.000000  0.000000 -0.000000 -0.000000 -0.000000 -0.000000
                                -0.000000 -0.000000 -0.000000  0.000000 -0.000000 -0.000000 -0.000000 -0.000000  0.000000 -0.000000
                                 0.000000  0.000000  0.000000  0.000000 -0.000000  0.000000  0.000217  0.000000  0.002021  0.000000
                                 0.011518  0.000000  0.041980  0.000000  0.112578  0.000000  0.222640  0.000000  0.305290  0.000000
                                 0.311413  0.000000  0.222264  0.000000  0.095280  0.000000  0.018118  0.000000  0.006643  0.000000
                                 0.005065  0.000000  0.000065  0.000000  0.000743  0.000000 -0.000210  0.000000

   6.2  2.00000    -2.479130    -0.000000 -0.000001 -0.000002 -0.000006 -0.000015 -0.000036 -0.000086 -0.000207 -0.000504 -0.001248
                                -0.003083 -0.007415 -0.016279 -0.030146 -0.039532 -0.012939  0.074837  0.178484  0.074515 -0.209582
                                -0.377068 -0.191588  0.351688 -0.450199  0.391093  0.245134  0.126537  0.050937  0.062011  1.000202
                                -0.130622 -0.202939 -0.112689 -0.044936  0.001273 -0.000412 -0.000000  0.000000 -0.000000  0.000000
                                -0.000000  0.000000 -0.000000  0.000000 -0.000000  0.000000 -0.000000  0.000000 -0.000000  0.000000
                                -0.000000  0.000000 -0.000000  0.000000 -0.000000  0.000000 -0.000000  0.000000 -0.000000  0.000000
                                -0.000000  0.000000 -0.000000  0.000000 -0.000000  0.000000  0.000000 -0.000000

                                   1 2py     1 2py     1 2py     1 2py     1 2py     1 2py     1 2py     1 2py     1 2py     1 2py
                                   1 2py     1 2py     1 2py     1 2py     1 2py     1 2py     1 2py     1 2py     1 2py     1 2py
                                   1 2py     1 2py     1 2py     1 2py     1 2py     1 2py     1 2py     1 2py     1 2py     1 2py
                                   1 2py     1 2py     1 2py     1 2py     1 2py     1 2py     1 4f1-    1 4f3-    1 4f1-    1 4f3-
                                   1 4f1-    1 4f3-    1 4f1-    1 4f3-    1 4f1-    1 4f3-    1 4f1-    1 4f3-    1 4f1-    1 4f3-
                                   1 4f1-    1 4f3-    1 4f1-    1 4f3-    1 4f1-    1 4f3-    1 4f1-    1 4f3-    1 4f1-    1 4f3-
                                   1 4f1-    1 4f3-    1 4f1-    1 4f3-    1 4f1-    1 4f3-    1 4f1-    1 4f3-

   1.3  2.00000  -433.544815     0.000003  0.000008  0.000024  0.000062  0.000153  0.000367  0.000873  0.002086  0.005048  0.012351
                                 0.030026  0.070135  0.147566  0.257175  0.327095  0.249331  0.089110  0.009799  0.000504 -0.000290
                                 0.000171 -0.000920 -0.000339 -0.004209  0.000276  0.000245  0.000135  0.000052  0.000989  0.004259
                                -0.000234 -0.000222 -0.000121 -0.000046  0.000001 -0.000000 -0.000000 -0.000000 -0.000000 -0.000000
[...]
                                -0.000234 -0.000222 -0.000121 -0.000046  0.000001 -0.000000  0.000000 -0.000000  0.000000 -0.000000
                                 0.000000 -0.000000  0.000000 -0.000000  0.000000 -0.000000  0.000000 -0.000000  0.000000 -0.000000
                                 0.000000 -0.000000  0.000000 -0.000000  0.000000 -0.000000  0.000000 -0.000000  0.000000 -0.000000
                                 0.000000 -0.000000  0.000000 -0.000000  0.000000 -0.000000 -0.000000  0.000000

   2.5  2.00000   -99.702290    -0.000001 -0.000004 -0.000012 -0.000032 -0.000079 -0.000189 -0.000449 -0.001078 -0.002623 -0.006477
                                -0.015945 -0.038105 -0.082810 -0.151214 -0.196652 -0.091593  0.226863  0.497788  0.336760  0.077108
                                 0.007288 -0.006492 -0.002993 -0.039359  0.002680  0.002452  0.001369  0.000535  0.007832  0.039716
                                -0.002303 -0.002227 -0.001229 -0.000471  0.000013 -0.000004 -0.000000  0.000000 -0.000000  0.000000
                                -0.000000  0.000000 -0.000000  0.000000 -0.000000  0.000000 -0.000000  0.000000 -0.000000  0.000000
                                -0.000000  0.000000 -0.000000  0.000000 -0.000000  0.000000 -0.000000  0.000000 -0.000000  0.000000
                                -0.000000  0.000000 -0.000000  0.000000 -0.000000  0.000000  0.000000 -0.000000

   3.5  2.00000   -20.241828     0.000001  0.000002  0.000006  0.000016  0.000039  0.000093  0.000221  0.000532  0.001295  0.003205
                                 0.007915  0.019016  0.041661  0.076979  0.100750  0.035731 -0.175787 -0.409396 -0.201756  0.354820
                                 0.577473  0.301495  0.040762  0.000050  0.002661  0.003370  0.002103  0.000865 -0.024875  0.000121
                                -0.002507 -0.003143 -0.001907 -0.000763  0.000021 -0.000007  0.000000 -0.000000  0.000000 -0.000000
                                 0.000000 -0.000000  0.000000 -0.000000  0.000000 -0.000000  0.000000 -0.000000  0.000000 -0.000000
                                 0.000000 -0.000000  0.000000 -0.000000  0.000000 -0.000000  0.000000 -0.000000  0.000000 -0.000000
                                 0.000000 -0.000000  0.000000 -0.000000  0.000000 -0.000000 -0.000000  0.000000

   4.5  2.00000    -3.034203    -0.000000 -0.000000 -0.000000 -0.000000 -0.000000 -0.000000 -0.000000 -0.000000 -0.000000 -0.000000
                                -0.000000 -0.000000 -0.000000 -0.000000 -0.000000 -0.000000  0.000000  0.000000  0.000000  0.000000
                                 0.000000  0.000000  0.000000 -0.000000  0.000000  0.000000  0.000000  0.000000 -0.000000  0.000000
                                -0.000000 -0.000000 -0.000000 -0.000000  0.000000 -0.000000  0.000217  0.000000  0.002021  0.000000
                                 0.011518  0.000000  0.041980  0.000000  0.112578  0.000000  0.222640  0.000000  0.305290  0.000000
                                 0.311413  0.000000  0.222264  0.000000  0.095280  0.000000  0.018118  0.000000  0.006643  0.000000
                                 0.005065  0.000000  0.000065  0.000000  0.000743  0.000000 -0.000210 -0.000000

   5.5  2.00000    -3.034203     0.000000  0.000000  0.000000  0.000000  0.000000  0.000000  0.000000  0.000000  0.000000  0.000000
                                 0.000000  0.000000  0.000000  0.000000  0.000000  0.000000 -0.000000 -0.000000 -0.000000  0.000000
                                 0.000000  0.000000 -0.000000  0.000000 -0.000000 -0.000000 -0.000000 -0.000000 -0.000000 -0.000000
                                 0.000000  0.000000  0.000000  0.000000 -0.000000  0.000000 -0.000000  0.000217 -0.000000  0.002021
                                -0.000000  0.011518 -0.000000  0.041980 -0.000000  0.112578 -0.000000  0.222640 -0.000000  0.305290
                                -0.000000  0.311413 -0.000000  0.222264 -0.000000  0.095280 -0.000000  0.018118 -0.000000  0.006643
                                -0.000000  0.005065 -0.000000  0.000065 -0.000000  0.000743  0.000000 -0.000210

   6.5  2.00000    -2.479130    -0.000000 -0.000001 -0.000002 -0.000006 -0.000015 -0.000036 -0.000086 -0.000207 -0.000504 -0.001248
                                -0.003083 -0.007415 -0.016279 -0.030146 -0.039532 -0.012939  0.074837  0.178483  0.074515 -0.209582
                                -0.377067 -0.191594  0.351682 -0.450337  0.391109  0.245157  0.126554  0.050945  0.062019  1.000339
                                -0.130637 -0.202961 -0.112705 -0.044943  0.001273 -0.000412  0.000000  0.000000  0.000000  0.000000
                                 0.000000  0.000000  0.000000  0.000000  0.000000  0.000000  0.000000  0.000000  0.000000  0.000000
                                 0.000000  0.000000  0.000000  0.000000  0.000000  0.000000  0.000000  0.000000  0.000000  0.000000
                                 0.000000  0.000000  0.000000  0.000000  0.000000  0.000000 -0.000000 -0.000000

                                   1 3d1+    1 3d1+    1 3d1+    1 3d1+    1 3d1+    1 3d1+    1 3d1+    1 3d1+    1 3d1+    1 3d1+
                                   1 3d1+    1 3d1+    1 3d1+    1 3d1+    1 3d1+    1 3d1+    1 3d1+    1 3d1+    1 3d1+    1 3d1+
                                   1 3d1+    1 3d1+    1 3d1+    1 3d1+    1 3d1+    1 3d1+    1 5g1+    1 5g3+    1 5g1+    1 5g3+
                                   1 5g1+    1 5g3+

   1.6  2.00000   -77.883974     0.000023  0.000139  0.000775  0.003570  0.013714  0.042423  0.107399  0.212865  0.317029  0.314175
                                 0.165585  0.039070  0.002483 -0.000544  0.000395  0.000555  0.002679  0.001555  0.000544  0.001313
                                -0.000638 -0.002733 -0.001604 -0.000561 -0.000003  0.000001  0.000000  0.000000  0.000000  0.000000
                                 0.000000  0.000000

   2.6  2.00000   -12.094900    -0.000012 -0.000071 -0.000396 -0.001829 -0.007088 -0.022094 -0.057044 -0.113518 -0.165045 -0.123145
                                 0.107435  0.370769  0.420607  0.216255  0.038907 -0.003099 -0.045168 -0.032222 -0.012457 -0.002108
                                 0.004334  0.045746  0.033163  0.012829  0.000062 -0.000013  0.000000  0.000000  0.000000  0.000000
                                 0.000000  0.000000

   3.6  1.40000    -0.306009     0.000003  0.000020  0.000113  0.000521  0.002026  0.006316  0.016386  0.032569  0.047306  0.032356
                                -0.043668 -0.130821 -0.140241  0.016504  0.243158  0.349155 -0.346499 -0.855222 -0.699684 -0.013719
                                 0.048090  0.686501  1.036890  0.742715  0.003861 -0.000787  0.000000  0.000000  0.000000  0.000000
                                 0.000000  0.000000

                                   1 3d1-    1 3d1-    1 3d1-    1 3d1-    1 3d1-    1 3d1-    1 3d1-    1 3d1-    1 3d1-    1 3d1-
                                   1 3d1-    1 3d1-    1 3d1-    1 3d1-    1 3d1-    1 3d1-    1 3d1-    1 3d1-    1 3d1-    1 3d1-
                                   1 3d1-    1 3d1-    1 3d1-    1 3d1-    1 3d1-    1 3d1-    1 5g1-    1 5g3-    1 5g1-    1 5g3-
                                   1 5g1-    1 5g3-

   1.7  2.00000   -77.883974     0.000023  0.000139  0.000775  0.003570  0.013714  0.042423  0.107399  0.212865  0.317029  0.314175
                                 0.165585  0.039070  0.002483 -0.000544  0.000395  0.000555  0.002679  0.001555  0.000544  0.001313
                                -0.000638 -0.002733 -0.001604 -0.000561 -0.000003  0.000001  0.000000  0.000000  0.000000  0.000000
                                 0.000000  0.000000

   2.7  2.00000   -12.094900    -0.000012 -0.000071 -0.000396 -0.001829 -0.007088 -0.022094 -0.057044 -0.113518 -0.165045 -0.123145
                                 0.107435  0.370769  0.420607  0.216255  0.038907 -0.003099 -0.045168 -0.032222 -0.012457 -0.002108
                                 0.004334  0.045745  0.033162  0.012829  0.000062 -0.000013  0.000000  0.000000  0.000000  0.000000
                                 0.000000  0.000000

   3.7  1.40000    -0.306009     0.000003  0.000020  0.000113  0.000521  0.002026  0.006316  0.016386  0.032569  0.047306  0.032356
                                -0.043668 -0.130821 -0.140241  0.016504  0.243159  0.349156 -0.346493 -0.855214 -0.699679 -0.013719
                                 0.048090  0.686495  1.036882  0.742710  0.003861 -0.000787  0.000000  0.000000  0.000000  0.000000
                                 0.000000  0.000000

                                   1 4f2-    1 4f2-    1 4f2-    1 4f2-    1 4f2-    1 4f2-    1 4f2-    1 4f2-    1 4f2-    1 4f2-
                                   1 4f2-    1 4f2-    1 4f2-    1 4f2-    1 4f2-    1 4f2-

   1.8  2.00000    -3.034203     0.000217  0.002021  0.011518  0.041980  0.112578  0.222640  0.305290  0.311413  0.222264  0.095280
                                 0.018118  0.006643  0.005065  0.000065  0.000743 -0.000210


 EXTRA SYMMETRY OF MOS IN SYMMETRY 1:   1 1 1 1 1 1 1 1 1 1   1 1 1 1 1 1 1 1 1 1   1 1 1 1 1 1 1 1 1 1   2 4 3 1 1 1 1 1 1 4
                                        2 3 1 1 1 2 4 3 1 1   1 1 1 1 1 1 1 1 1 1   1 1 1 1 1 1 1 1 1 1   1 1 1 1 1 1 1 1 1 1
                                        1 1 1 1 1 1 1 1 1 1   1 1 1 1 1 1 1 1 1 1
 EXTRA SYMMETRY OF MOS IN SYMMETRY 2:   1 1 1 3 2 1 1 1 1 1   3 2 1 1 3 2 1 3 2 1   1 3 2 1 3 2 1 3 2 1   3 2 1 3 2 1 3 2 1 3
                                        2 1 3 2 1 2 3 1 3 2   1 3 2 1 3 2 1 1 1 1   1 1 1 1 1 1 1 1
 EXTRA SYMMETRY OF MOS IN SYMMETRY 3:   1 1 1 3 2 1 1 1 1 1   3 2 1 1 3 2 1 3 2 1   1 3 2 1 2 3 1 3 2 1   2 3 1 3 2 1 2 3 1 2
                                        3 1 2 3 1 2 3 1 2 3   1 2 3 1 2 3 1 1 1 1   1 1 1 1 1 1 1 1
 EXTRA SYMMETRY OF MOS IN SYMMETRY 4:   1 1 1 1 1 1 1 1 1 3   2 1 1 3 2 1 3 2 1 1   1 1 1 1 1 1 1 1 1 1   1 1
 EXTRA SYMMETRY OF MOS IN SYMMETRY 5:   1 1 1 2 3 1 1 1 1 1   2 3 1 1 3 2 1 2 3 1   1 2 3 1 2 3 1 2 3 1   2 3 1 2 3 1 2 3 1 2
                                        3 1 2 3 1 2 3 1 2 3   1 2 3 1 2 3 1 1 1 1   1 1 1 1 1 1 1 1
 EXTRA SYMMETRY OF MOS IN SYMMETRY 6:   1 1 1 1 1 1 1 1 1 2   3 1 1 2 3 1 2 3 1 1   1 1 1 1 1 1 1 1 1 1   1 1
 EXTRA SYMMETRY OF MOS IN SYMMETRY 7:   1 1 1 1 1 1 1 1 1 2   3 1 1 3 2 1 2 3 1 1   1 1 1 1 1 1 1 1 1 1   1 1

 Natural orbital dump (state averaged) at molpro section  5202.2    (Orbital set 2)


 CI vector for state symmetry 1
 ==============================

 22 a a a          1.0000000

 TOTAL ENERGIES                    -17826.93496058

 CI vector for state symmetry 2
 ==============================

 2a 2 a a          0.9999790   0.0064752  -0.0000027
 a2 2 a a          0.0028982  -0.4472042   0.8944272
 aa a 2 2         -0.0057904   0.8944084   0.4472136

 TOTAL ENERGIES                    -17826.93496058-17826.93496058-17826.88083384

 CI vector for state symmetry 3
 ==============================

 aa 2 a 2         -0.0303420   0.8939124   0.4472136
 a2 a 2 a          0.8731110  -0.1941008   0.4472159
 2a a 2 a         -0.4865764  -0.4040365   0.7745953

 TOTAL ENERGIES                    -17826.93496058-17826.93496058-17826.88083384

 CI vector for state symmetry 4
 ==============================

 aa 2 2 a          0.0306814   0.8939008   0.4472136
 a2 a a 2          0.8731875   0.1937669  -0.4472113
 2a a a 2          0.4864177  -0.4042224   0.7745980

 TOTAL ENERGIES                    -17826.93496058-17826.93496058-17826.88083384



 **********************************************************************************************************************************
 DATASETS  * FILE   NREC   LENGTH (MB)   RECORD NAMES
              1      23      243.15       500      610      700      900      950      970     1001      129      960     1700
                                          VAR    BASINP    GEOM    SYMINP    ZMAT    AOBASIS   BASIS     P2S    ABASIS    OPER
                                         1101     1401     1411     1412     1650     1100     1400     1410     1200     1210
                                          SR      EKINR    POTR     PVPR    MOLCAS      S      EKIN      POT      H0       H01
                                         1080     1600     1380
                                         AOSYM     SMH     JKOP

              2       7        8.70       200      700     1000      520     4202     1001     5202
                                        OPTIONS   GEOM     BASIS   MCVARS     RHF     BASIS    MCSCF

 PROGRAMS   *        TOTAL     MULTI       INT       POP       RHF       INT
 CPU TIMES  *       612.95     96.38    502.26      0.01      0.34     13.44
 REAL TIME  *       635.91 SEC
 DISK USED  *         7.77 GB
 SF USED    *       858.04 MB
 GA USED    *         0.00 MB       (max)       0.00 MB       (current)
 **********************************************************************************************************************************
   -->
   <time start="11:10:54" end="11:21:15" cpu="598.83" system="8.9" real="620.75"/>
   <storage units="megabyte" memory="8193.84" sf="858.04" df="290.01" eaf="7480.81"
     ga="0.0"/>
  </jobstep><!--
  --><jobstep command="RHF-SCF" commandset="SCFPRO">
   <!--


 PROGRAM * RHF-SCF (OPEN SHELL)       Authors: W. Meyer, H.-J. Werner


 NUMBER OF ELECTRONS:      40+   37-    SPACE SYMMETRY=1    SPIN SYMMETRY: Quartet
 CONVERGENCE THRESHOLDS:    1.00E-05 (Density)    1.54E-07 (Energy)
 MAX. NUMBER OF ITERATIONS:        0
 INTERPOLATION TYPE:            DIIS
 INTERPOLATION STEPS:              2 (START)      1 (STEP)
 LEVEL SHIFTS:                 -0.60 (CLOSED) -0.30 (OPEN)

 Number of closed-shell orbitals:   37 (  12   6   6   2   6   2   2   1 )
 Number of open-shell orbitals:      3 (   0   0   0   1   0   1   1   0 )


 Molecular orbitals read from record     5202.2  Type=MCSCF/NATURAL (state averaged)

 Molecular orbital dump at record        2101.2

 ITERATION    DDIFF          GRAD             ENERGY        2-EL.EN.            DIPOLE MOMENTS         DIIS   ORB.
    1      0.000D+00      0.000D+00    -17826.93496058  13248.188348    0.00000    0.00000    0.00000    0    start

 Final alpha occupancy:  12   6   6   3   6   3   3   1
 Final beta  occupancy:  12   6   6   2   6   2   2   1

 !RHF STATE 1.1 Energy               -17826.9349605845
   --><property name="Energy" method="RHF" principal="true" stateSymmetry="1" stateNumber="1"
     value="-17826.9349605845"/><!--
 Nuclear energy                         0.00000000
 One-electron energy               -24451.02913455
 Two-electron energy                 6624.09417397
 Virial quotient                       -0.67906884
 !RHF STATE 1.1 Dipole moment           0.00000000     0.00000000     0.00000000
 Dipole moment /Debye                   0.00000000     0.00000000     0.00000000
   --><property name="Dipole moment" method="RHF" principal="true" stateSymmetry="1"
     stateNumber="1" value="0.0 0.0 0.0"/><!--

 Orbital energies:

         1.1          2.1          3.1          4.1          5.1          6.1          7.1          8.1          9.1         10.1
  -2813.207889  -497.503882  -118.792555   -77.883974   -77.883974   -26.636245   -12.094900   -12.094900    -4.247061    -0.296843

        11.1         12.1         13.1         14.1
     -0.306009    -0.306009     0.001877     0.027219

         1.2          2.2          3.2          4.2          5.2          6.2          7.2          8.2
   -433.544815   -99.702290   -20.241828    -3.034203    -3.034203    -2.479130     0.012027     0.032799

         1.3          2.3          3.3          4.3          5.3          6.3          7.3          8.3
   -433.544815   -99.702290   -20.241828    -3.034203    -3.034203    -2.479130     0.012027     0.032799

         1.4          2.4          3.4          4.4          5.4
    -77.883974   -12.094900    -0.306009     0.035866     0.103616

         1.5          2.5          3.5          4.5          5.5          6.5          7.5          8.5
   -433.544815   -99.702290   -20.241828    -3.034203    -3.034203    -2.479130     0.012027     0.032799

         1.6          2.6          3.6          4.6          5.6
    -77.883974   -12.094900    -0.306009     0.035866     0.103616

         1.7          2.7          3.7          4.7          5.7
    -77.883974   -12.094900    -0.306009     0.035866     0.103616

         1.8          2.8          3.8
     -3.034203     0.269471     0.670586

 HOMO     12.1    -0.306009 =      -8.3269eV
 LUMO     13.1     0.001877 =       0.0511eV
 LUMO-HOMO         0.307886 =       8.3780eV


 **********************************************************************************************************************************
 DATASETS  * FILE   NREC   LENGTH (MB)   RECORD NAMES
              1      23      243.15       500      610      700      900      950      970     1001      129      960     1700
                                          VAR    BASINP    GEOM    SYMINP    ZMAT    AOBASIS   BASIS     P2S    ABASIS    OPER
                                         1101     1401     1411     1412     1650     1100     1400     1410     1200     1210
                                          SR      EKINR    POTR     PVPR    MOLCAS      S      EKIN      POT      H0       H01
                                         1080     1600     1380
                                         AOSYM     SMH     JKOP

              2       8       13.20       200      700     1000      520     4202     1001     5202     2101
                                        OPTIONS   GEOM     BASIS   MCVARS     RHF     BASIS    MCSCF     RHF

 PROGRAMS   *        TOTAL       RHF     MULTI       INT       POP       RHF       INT
 CPU TIMES  *       613.55      0.59     96.38    502.26      0.01      0.34     13.44
 REAL TIME  *       636.99 SEC
 DISK USED  *         7.77 GB
 SF USED    *       858.04 MB
 GA USED    *         0.00 MB       (max)       0.00 MB       (current)
 **********************************************************************************************************************************
   -->
   <time start="11:21:15" end="11:21:16" cpu="0.6" system="0.12" real="1.08"/>
   <storage units="megabyte" memory="8193.84" sf="858.04" df="290.01" eaf="7480.81"
     ga="0.0"/>
  </jobstep><!--
 SETTING SCF(1)         =    -17826.93496058  AU
 SETTING _CC_NORM_MAX   =         2.00000000
  --><jobstep command="RCCSD(T)" commandset="CCSD">
   <!--


 PROGRAM * CCSD (Restricted open-shell coupled cluster)     Authors: C. Hampel, H.-J. Werner, 1991, M. Deegan, P.J. Knowles, 1992


 Convergence thresholds:  THRVAR = 1.00D-08  THRDEN = 1.54D-06

 CCSD(T)     terms to be evaluated (factor= 1.000)


 Number of closed-shell orbitals:  37 (  12   6   6   2   6   2   2   1 )
 Number of active  orbitals:        3 (   0   0   0   1   0   1   1   0 )
 Number of external orbitals:     376 (  88  62  62  29  62  29  29  15 )

 Memory could be reduced to 480.59 Mwords without degradation in triples

 Number of N-1 electron functions:              77
 Number of N-2 electron functions:            2926
 Number of singly external CSFs:              4824
 Number of doubly external CSFs:          40733749
 Total number of CSFs:                    40738573

 Molecular orbitals read from record     2101.2  Type=RHF/CANONICAL (state 1.1)
 WARNING: ORBITALS 34.1  34.1 NOT ORTHONORMAL:  0.1050D-07
 WARNING: ORBITALS 28.1  28.1 NOT ORTHONORMAL:  0.1485D-07
 WARNING: ORBITALS 37.1  34.1 NOT ORTHONORMAL: -0.1048D-07

 REORTHONORMALIZATION NOT SUCCESSFUL

 The current threshold for the largest tolerated overlap of different orbitals is   1.0D-08

 This threshold can be changed with  GTHRESH,THRORTH=value, but values larger than 1.d-8
 are normally not recommended and can cause numerical problems.
   --><error/><!--
  --></jobstep><!--
  -->
  <input>
  <!--
 --></job><!--
--></molpro>
