
 Primary working directories    : /global/cscratch1/sd/bkincaid
 Secondary working directories  : /global/cscratch1/sd/bkincaid
 Wavefunction directory         : /global/homes/b/bkincaid/wfu/
 Main file repository           : /global/cscratch1/sd/bkincaid/

 SHA1      : 19cd028119e0e09f93f0674bd8af7968d9b3eff6
 NAME      : 2015.1.36
 ARCHNAME  : linux/x86_64
 FC        : /opt/cray/pe/craype/2.5.14/bin/ftn
 BLASLIB   : -L/opt/intel/compilers_and_libraries_2018.1.163/linux/mkl/lib/intel64 -Wl,-_start-group -lmkl_intel_ilp64 -lmkl_intel_thread -lmkl_core -Wl,-_end-group -liomp5
 id        : lbl

 Nodes     nprocs
 nid01713    11
 Number of processes for MPI-2 version of Molpro:   nprocs(total)=   12   nprocs(compute)=   11   nprocs(helper)=    1

 Using customized tuning parameters: mindgm=7; mindgv=16; mindgc=1; mindgr=1; noblas=0; minvec=7
 default implementation of scratch files=sf  

 ***,Calculation for IrO groundstate
 memory,1024,m
 gthresh,twoint=1.0E-15
 gthresh,throvl=1.0E-15
 
 set,dkroll=1,dkho=10,dkhp=4
 
 basis={
 Including file /global/u1/b/bkincaid/molpro/Ir/molecules/tz/IrO/ae/1.987/tz.basis
 Including file /global/u1/b/bkincaid/molpro/Ir/molecules/tz/IrO/ae/1.987/O-aug-cc-CVTZ.basis
 }
 
 ne = 85
 
 A1=21
 B1=10
 B2=10
 A2=4
 
 do i=1,1
 z(i) = 1.987 - 0.1*(i-1)
 geometry={
 2
 IrO
 Ir 0.0 0.0 0.0
 O 0.0 0.0 z(i)
 }
 {rks,pbe0
 wf,nele=ne,spin=5,sym=4
         occ,A1,B1,B2,A2
         closed,A1-3,B1-1,B2-1,A2
 }
 pbe(i)=energy
 {rhf
 wf,nelec=ne,spin=5,sym=4
         occ,A1,B1,B2,A2
         closed,A1-3,B1-1,B2-1,A2
 }
 scf(i)=energy
 _CC_NORM_MAX=2.0
 {rccsd(t);maxit,100;core}
 ccsd(i)=energy
 enddo
 
 table,z,pbe,scf,ccsd
 save
 type,csv
 

 Variables initialized (889), CPU time= 0.01 sec
 Commands  initialized (702), CPU time= 0.01 sec, 572 directives.
 Default parameters read. Elapsed time= 0.14 sec

 Checking input...
 Passed
1


                                         ***  PROGRAM SYSTEM MOLPRO  ***
                                       Copyright, TTI GmbH Stuttgart, 2015
                                    Version 2015.1 linked Dec 29 2018 15:55:43


 **********************************************************************************************************************************
 LABEL *   Calculation for IrO groundstate                                               
  64 bit mpp version                                                                     DATE: 20-Feb-21          TIME: 20:00:50  
 **********************************************************************************************************************************

 SHA1:             19cd028119e0e09f93f0674bd8af7968d9b3eff6
 **********************************************************************************************************************************

 THRESHOLDS:

 ZERO    =  1.00D-12  ONEINT  =  1.00D-12  TWOINT  =  1.00D-15  PREFAC  =  1.00D-14  LOCALI  =  1.00D-09  EORDER  =  1.00D-04
 ENERGY  =  0.00D+00  ETEST   =  0.00D+00  EDENS   =  0.00D+00  THRDEDEF=  1.00D-06  GRADIENT=  1.00D-02  STEP    =  1.00D-03
 ORBITAL =  1.00D-05  CIVEC   =  1.00D-05  COEFF   =  1.00D-04  PRINTCI =  5.00D-02  PUNCHCI =  9.90D+01  OPTGRAD =  3.00D-04
 OPTENERG=  1.00D-06  OPTSTEP =  3.00D-04  THRGRAD =  1.00D-10  COMPRESS=  1.00D-11  VARMIN  =  1.00D-07  VARMAX  =  1.00D-03
 THRDOUB =  0.00D+00  THRDIV  =  1.00D-05  THRRED  =  1.00D-07  THRPSP  =  1.00D+00  THRDC   =  1.00D-10  THRCS   =  1.00D-10
 THRNRM  =  1.00D-08  THREQ   =  0.00D+00  THRDE   =  1.00D+00  THRREF  =  1.00D-05  SPARFAC =  1.00D+00  THRDLP  =  1.00D-07
 THRDIA  =  1.00D-10  THRDLS  =  1.00D-07  THRGPS  =  0.00D+00  THRKEX  =  0.00D+00  THRDIS  =  2.00D-01  THRVAR  =  1.00D-10
 THRLOC  =  1.00D-06  THRGAP  =  1.00D-06  THRLOCT = -1.00D+00  THRGAPT = -1.00D+00  THRORB  =  1.00D-06  THRMLTP =  0.00D+00
 THRCPQCI=  1.00D-10  KEXTA   =  0.00D+00  THRCOARS=  0.00D+00  SYMTOL  =  1.00D-06  GRADTOL =  1.00D-06  THROVL  =  1.00D-08
 THRORTH =  1.00D-08  GRID    =  1.00D-06  GRIDMAX =  1.00D-03  DTMAX   =  0.00D+00  THROCCDE=  1.00D-01  THROCCDE=  1.00D-01



 THRESHOLDS:

 ZERO    =  1.00D-12  ONEINT  =  1.00D-12  TWOINT  =  1.00D-15  PREFAC  =  1.00D-14  LOCALI  =  1.00D-09  EORDER  =  1.00D-04
 ENERGY  =  0.00D+00  ETEST   =  0.00D+00  EDENS   =  0.00D+00  THRDEDEF=  1.00D-06  GRADIENT=  1.00D-02  STEP    =  1.00D-03
 ORBITAL =  1.00D-05  CIVEC   =  1.00D-05  COEFF   =  1.00D-04  PRINTCI =  5.00D-02  PUNCHCI =  9.90D+01  OPTGRAD =  3.00D-04
 OPTENERG=  1.00D-06  OPTSTEP =  3.00D-04  THRGRAD =  1.00D-10  COMPRESS=  1.00D-11  VARMIN  =  1.00D-07  VARMAX  =  1.00D-03
 THRDOUB =  0.00D+00  THRDIV  =  1.00D-05  THRRED  =  1.00D-07  THRPSP  =  1.00D+00  THRDC   =  1.00D-10  THRCS   =  1.00D-10
 THRNRM  =  1.00D-08  THREQ   =  0.00D+00  THRDE   =  1.00D+00  THRREF  =  1.00D-05  SPARFAC =  1.00D+00  THRDLP  =  1.00D-07
 THRDIA  =  1.00D-10  THRDLS  =  1.00D-07  THRGPS  =  0.00D+00  THRKEX  =  0.00D+00  THRDIS  =  2.00D-01  THRVAR  =  1.00D-10
 THRLOC  =  1.00D-06  THRGAP  =  1.00D-06  THRLOCT = -1.00D+00  THRGAPT = -1.00D+00  THRORB  =  1.00D-06  THRMLTP =  0.00D+00
 THRCPQCI=  1.00D-10  KEXTA   =  0.00D+00  THRCOARS=  0.00D+00  SYMTOL  =  1.00D-06  GRADTOL =  1.00D-06  THROVL  =  1.00D-15
 THRORTH =  1.00D-08  GRID    =  1.00D-06  GRIDMAX =  1.00D-03  DTMAX   =  0.00D+00  THROCCDE=  1.00D-01  THROCCDE=  1.00D-01


 SETTING DKROLL         =         1.00000000                                  
 SETTING DKHO           =        10.00000000                                  
 SETTING DKHP           =         4.00000000                                  

 Variable memory set to 1024000000 words,  buffer space   230000 words

 SETTING BASIS          =    USERDEF
 SETTING NE             =        85.00000000                                  
 SETTING A1             =        21.00000000                                  
 SETTING B1             =        10.00000000                                  
 SETTING B2             =        10.00000000                                  
 SETTING A2             =         4.00000000                                  

 DO I                   =         1.00000000   
 SETTING Z(1)           =         1.98700000                                  

Geometry recognized as XYZ



 Recomputing integrals since basis changed


 Using spherical harmonics



 PROGRAM * SEWARD (Integral evaluation for generally contracted gaussian basis sets)     Author: Roland Lindh, 1990

 Geometry written to block  1 of record 700


 Point group  C2v 



 ATOMIC COORDINATES

 NR  ATOM    CHARGE       X              Y              Z

   1  IR     77.00    0.000000000    0.000000000    0.000000000
   2  O       8.00    0.000000000    0.000000000    3.754885810

 Bond lengths in Bohr (Angstrom)

 1-2  3.754885810
     ( 1.987000000)

 NUCLEAR CHARGE:                   85
 NUMBER OF PRIMITIVE AOS:         541
 NUMBER OF SYMMETRY AOS:          446
 NUMBER OF CONTRACTIONS:          446   ( 185A1  + 106B1  + 106B2  +  49A2  )
 NUMBER OF CORE ORBITALS:          35   (  16A1  +   8B1  +   8B2  +   3A2  )
 NUMBER OF VALENCE ORBITALS:       10   (   5A1  +   2B1  +   2B2  +   1A2  )


 NUCLEAR REPULSION ENERGY  164.05292498

 One-electron integrals computed with SEWARD

 10nd-order Douglas-Kroll-Hess method activated. McWeeny DKH parametrization is used.

 Computing Douglas-Kroll / X2C integrals

 AO integral compression algorithm  1   Integral accuracy      1.0D-15

     4328.522 MB (compressed) written to integral file ( 36.9%)

     Node minimum: 213.385 MB, node maximum: 838.337 MB


 NUMBER OF SORTED TWO-ELECTRON INTEGRALS:  115711532.     BUFFER LENGTH:  32768
 NUMBER OF SEGMENTS:   4  SEGMENT LENGTH:   31989761      RECORD LENGTH: 524288

 Memory used in sort:      32.55 MW

 SORT1 READ  1465035727. AND WROTE    42776100. INTEGRALS IN    124 RECORDS. CPU TIME:    22.08 SEC, REAL TIME:    30.06 SEC
 SORT2 READ   467101640. AND WROTE  1273302750. INTEGRALS IN  20801 RECORDS. CPU TIME:     2.05 SEC, REAL TIME:     5.93 SEC

 Node minimum:   115641882.  Node maximum:   115920125. integrals

 OPERATOR DM      FOR CENTER  0  COORDINATES:    0.000000    0.000000    0.000000

 EXTRA SYMMETRY OF AOS IN SYMMETRY 1:   1 1 1 1 1 1 1 1 1 1   1 1 1 1 1 1 1 1 1 1   1 1 1 1 1 1 1 1 1 1   1 1 1 1 1 1 1 1 1 1
                                        1 1 1 1 1 1 1 1 1 1   1 1 1 1 1 1 1 1 1 1   1 1 1 1 1 1 1 1 1 1   1 1 1 1 1 1 1 1 1 1
                                        1 1 1 1 1 1 1 1 1 1   1 1 1 1 1 1 1 1 1 1   1 1 1 1 1 1 1 1 1 1   1 1 1 1 1 1 1 1 1 1
                                        1 1 1 1 1 1 1 1 1 1   1 1 1 1 1 1 1 1 1 1   1 1 1 1 2 1 1 2 1 1   2 1 1 1 1 1 1 1 1 1
                                        1 1 1 1 1 1 1 1 1 1   1 1 1 1 1 1 1 1 1 1   1 1 1 1 1
 EXTRA SYMMETRY OF AOS IN SYMMETRY 2:   1 1 1 1 1 1 1 1 1 1   1 1 1 1 1 1 1 1 1 1   1 1 1 1 1 1 1 1 1 1   1 1 1 1 1 1 1 1 1 1
                                        1 1 1 1 1 1 1 1 1 1   1 1 1 1 1 2 1 2 1 2   1 2 1 2 1 2 1 2 1 2   1 2 1 2 1 2 1 2 1 2
                                        1 2 1 2 1 2 1 2 1 2   1 1 1 1 1 1 1 1 1 1   1 1 1 2 1 2
 EXTRA SYMMETRY OF AOS IN SYMMETRY 3:   1 1 1 1 1 1 1 1 1 1   1 1 1 1 1 1 1 1 1 1   1 1 1 1 1 1 1 1 1 1   1 1 1 1 1 1 1 1 1 1
                                        1 1 1 1 1 1 1 1 1 1   1 1 1 1 1 2 1 2 1 2   1 2 1 2 1 2 1 2 1 2   1 2 1 2 1 2 1 2 1 2
                                        1 2 1 2 1 2 1 2 1 2   1 1 1 1 1 1 1 1 1 1   1 1 1 2 1 2
 EXTRA SYMMETRY OF AOS IN SYMMETRY 4:   1 1 1 1 1 1 1 1 1 1   1 1 1 1 1 1 1 1 1 1   1 1 1 1 1 1 1 1 1 1   1 1 1 1 1 1 1 1 2 1
                                        2 1 2 1 1 1 1 1 1

 Eigenvalues of metric

         1 0.167E-06 0.357E-06 0.782E-06 0.805E-06 0.145E-05 0.491E-05 0.509E-05 0.116E-04
         2 0.172E-06 0.801E-06 0.512E-05 0.116E-04 0.264E-04 0.527E-04 0.547E-04 0.559E-04
         3 0.172E-06 0.801E-06 0.512E-05 0.116E-04 0.264E-04 0.527E-04 0.547E-04 0.559E-04
         4 0.805E-06 0.267E-04 0.542E-04 0.166E-03 0.628E-03 0.979E-03 0.214E-02 0.554E-02


 **********************************************************************************************************************************
 DATASETS  * FILE   NREC   LENGTH (MB)   RECORD NAMES
              1      22       23.93       500      610      700      900      950      970     1000      129      960     1700   
                                          VAR    BASINP    GEOM    SYMINP    ZMAT    AOBASIS   BASIS     P2S    ABASIS    OPER   
                                         1101     1401     1411     1412     1650     1100     1400     1410     1200     1210   
                                          SR      EKINR    POTR     PVPR    MOLCAS      S      EKIN      POT      H0       H01  
                                         1080     1600   
                                         AOSYM     SMH  

 PROGRAMS   *        TOTAL       INT
 CPU TIMES  *       173.41    173.17
 REAL TIME  *       187.21 SEC
 DISK USED  *        10.03 GB      
 GA USED    *         0.00 MB       (max)       0.00 MB       (current)
 **********************************************************************************************************************************

 Density functional group PBE0=PBEX+PBEC
 Functional: PBEX(Automatically generated (new) PBEX)                          Gradient terms: 1
 Functional: PBEC(Automatically generated (new) PBEC)                          Gradient terms: 1
 Use grid at  1800.2
 

 Exact exchange will be calculated, factor:  0.2500

 Functional: PBEX                      Factor:  0.7500
 Functional: PBEC                      Factor:  1.0000
 
 Generated new metagrid on record  1800.2 with target accuracy 1.0D-06 and 5301 points in CPU time    0.1
 Computed new grid on record 1800.1 in CPU time    0.1
  355296 words reserved for DFT integration

 PROGRAM * RKS-SCF (Restricted open shell Kohn-Sham)     Authors: W. Meyer, H.-J. Werner, P.J. Knowles, 1993

 NUMBER OF ELECTRONS:      45+   40-    SPACE SYMMETRY=4    SPIN SYMMETRY: Sextet  
 CONVERGENCE THRESHOLDS:    1.00E-05 (Density)    1.70E-06 (Energy)
 MAX. NUMBER OF ITERATIONS:       60
 INTERPOLATION TYPE:            DIIS
 INTERPOLATION STEPS:              2 (START)      1 (STEP)
 LEVEL SHIFTS:                 -0.60 (CLOSED) -0.30 (OPEN) 

 Number of closed-shell orbitals:   40 (  18   9   9   4 )
 Number of open-shell orbitals:      5 (   3   1   1   0 )


 Use fine grid record 1800.2 for energy threshold  1.0D-06
 Orbital guess generated from atomic densities. Full valence occupancy:   21  10  10   4

 Molecular orbital dump at record        2100.2

 ITERATION    DDIFF          GRAD             ENERGY        2-EL.EN.            DIPOLE MOMENTS         DIIS   ORB.
    1      0.000D+00      0.000D+00    -17893.17278458  13431.434982    0.00000    0.00000   -5.60662    0    start
    2      0.000D+00      0.339D-01    -17887.94424341  14973.243394    0.00000    0.00000   15.69318    1    diag,B
    3      0.151D+01      0.864D-01    -17903.58565011  14538.493439    0.00000    0.00000    4.55878    2    diag,B
    4      0.167D+00      0.337D-01    -17905.95928200  14379.805466    0.00000    0.00000    4.02677    3    diag,B
    5      0.983D-01      0.177D-01    -17906.84982519  14158.374399    0.00000    0.00000   -4.87976    4    diag,B
    6      0.143D-01      0.117D-01    -17907.49355556  14185.687592    0.00000    0.00000   -1.29302    5    diag,B
    7      0.369D-02      0.229D-02    -17907.52482583  14172.518635    0.00000    0.00000   -0.41883    6    fixocc
    8      0.291D-02      0.108D-02    -17907.53450372  14162.373907    0.00000    0.00000   -0.70164    7    diag,B
    9      0.117D-02      0.328D-03    -17907.53533769  14160.524269    0.00000    0.00000   -0.78487    8    diag,B
   10      0.657D-03      0.313D-03    -17907.53581522  14161.106677    0.00000    0.00000   -0.73935    9    orth
   11      0.221D-03      0.200D-03    -17907.53616232  14161.674112    0.00000    0.00000   -0.70166    9    diag,B
   12      0.287D-03      0.927D-04    -17907.53625462  14162.425224    0.00000    0.00000   -0.66879    9    diag,B
   13      0.914D-04      0.190D-04    -17907.53627462  14162.269057    0.00000    0.00000   -0.67792    9    diag,B
   14      0.368D-04      0.121D-04    -17907.53629061  14162.204222    0.00000    0.00000   -0.68492    9    diag,B
   15      0.351D-04      0.818D-05    -17907.53629690  14162.181865    0.00000    0.00000   -0.68949    9    diag,B
   16      0.242D-04      0.277D-05    -17907.53629779  14162.168787    0.00000    0.00000   -0.69174    9    diag,B
   17      0.124D-04      0.105D-05    -17907.53629787  14162.163241    0.00000    0.00000   -0.69248    9    diag,B
   18      0.558D-05      0.481D-06    -17907.53629788  14162.163452    0.00000    0.00000   -0.69242    0    orth

 Final alpha occupancy:  21  10  10   4
 Final beta  occupancy:  18   9   9   4

 !RKS STATE 1.4 Energy               -17907.5362978818    
 Nuclear energy                       164.05292498
 One-electron energy               -24879.93847928
 Two-electron energy                 7081.08172624
 Density functional                  -272.73246982     PBEX=-357.12232257 PBEC=  -4.89072789
 Virial quotient                       -0.67958541
 !RKS STATE 1.4 Dipole moment           0.00000000     0.00000000    -0.69242196
 Dipole moment /Debye                   0.00000000     0.00000000    -1.75984582

 Orbital energies:

         1.1          2.1          3.1          4.1          5.1          6.1          7.1          8.1          9.1         10.1
  -2794.643674  -490.192132  -427.367193  -115.292831   -96.756196   -75.586360   -75.584776   -24.934658   -19.265469   -18.798733

        11.1         12.1         13.1         14.1         15.1         16.1         17.1         18.1         19.1         20.1
    -11.041607   -11.039911    -3.771541    -2.490142    -2.489277    -2.152573    -0.934544    -0.405376    -0.387848    -0.337537

        21.1         22.1         23.1
     -0.225087     0.009033     0.017429

         1.2          2.2          3.2          4.2          5.2          6.2          7.2          8.2          9.2         10.2
   -427.366384   -96.753910   -75.585804   -18.795224   -11.040026    -2.489911    -2.485831    -2.152961    -0.364985    -0.321171

        11.2         12.2
     -0.036869     0.090394

         1.3          2.3          3.3          4.3          5.3          6.3          7.3          8.3          9.3         10.3
   -427.366384   -96.753910   -75.585804   -18.795224   -11.040026    -2.489911    -2.485831    -2.152961    -0.364985    -0.321171

        11.3         12.3
     -0.036869     0.090394

         1.4          2.4          3.4          4.4          5.4          6.4
    -75.584386   -11.036677    -2.485310    -0.331511     0.123493     0.420162

 HOMO     21.1    -0.225087 =      -6.1249eV
 LUMO     11.3    -0.036869 =      -1.0033eV
 LUMO-HOMO         0.188218 =       5.1217eV


 **********************************************************************************************************************************
 DATASETS  * FILE   NREC   LENGTH (MB)   RECORD NAMES
              1      23       23.93       500      610      700      900      950      970     1000      129      960     1700   
                                          VAR    BASINP    GEOM    SYMINP    ZMAT    AOBASIS   BASIS     P2S    ABASIS    OPER   
                                         1101     1401     1411     1412     1650     1100     1400     1410     1200     1210   
                                          SR      EKINR    POTR     PVPR    MOLCAS      S      EKIN      POT      H0       H01  
                                         1080     1600     1800   
                                         AOSYM     SMH     GRID   

              2       5        4.50       700     1000      520     1800     2100   
                                         GEOM     BASIS   MCVARS    GRID      RKS  

 PROGRAMS   *        TOTAL       RKS       INT
 CPU TIMES  *       187.17     13.76    173.17
 REAL TIME  *       204.36 SEC
 DISK USED  *        10.44 GB      
 SF USED    *         0.24 MB      
 GA USED    *         0.24 MB       (max)       0.24 MB       (current)
 **********************************************************************************************************************************
 SETTING PBE(1)         =    -17907.53629788  AU                              


 PROGRAM * RHF-SCF (OPEN SHELL)       Authors: W. Meyer, H.-J. Werner


 NUMBER OF ELECTRONS:      45+   40-    SPACE SYMMETRY=4    SPIN SYMMETRY: Sextet  
 CONVERGENCE THRESHOLDS:    1.00E-05 (Density)    1.70E-07 (Energy)
 MAX. NUMBER OF ITERATIONS:       60
 INTERPOLATION TYPE:            DIIS
 INTERPOLATION STEPS:              2 (START)      1 (STEP)
 LEVEL SHIFTS:                 -0.60 (CLOSED) -0.30 (OPEN) 

 Number of closed-shell orbitals:   40 (  18   9   9   4 )
 Number of open-shell orbitals:      5 (   3   1   1   0 )


 Molecular orbitals read from record     2100.2  Type=RKS/CANONICAL (state 1.4)

 Molecular orbital dump at record        2101.2

 ITERATION    DDIFF          GRAD             ENERGY        2-EL.EN.            DIPOLE MOMENTS         DIIS   ORB.
    1      0.000D+00      0.000D+00    -17901.72360940  13628.323890    0.00000    0.00000   -0.69242    0    start
    2      0.000D+00      0.115D+00    -17901.76990743  13633.750124    0.00000    0.00000   -0.83627    1    diag,B
    3      0.263D-02      0.124D-02    -17901.77419232  13627.486577    0.00000    0.00000   -0.85507    2    diag,B
    4      0.626D-03      0.739D-03    -17901.77595568  13631.872712    0.00000    0.00000   -0.81693    3    diag,B
    5      0.196D-03      0.323D-03    -17901.77777965  13631.394064    0.00000    0.00000   -0.78997    4    diag,B
    6      0.213D-03      0.188D-03    -17901.78017470  13632.375854    0.00000    0.00000   -0.68705    5    diag,B
    7      0.272D-03      0.170D-03    -17901.78087466  13632.614346    0.00000    0.00000   -0.65262    6    diag,B
    8      0.724D-04      0.158D-03    -17901.78327320  13634.335418    0.00000    0.00000   -0.48678    7    orth
    9      0.249D-03      0.172D-03    -17901.78505424  13635.373845    0.00000    0.00000   -0.36403    8    diag,B
   10      0.204D-03      0.160D-03    -17901.79139700  13639.302036    0.00000    0.00000    0.23599    9    diag,B
   11      0.123D-02      0.188D-03    -17901.79000537  13639.184935    0.00000    0.00000    0.04065    9    diag,B
   12      0.525D-03      0.123D-03    -17901.79134374  13640.686304    0.00000    0.00000    0.39354    9    diag,B
   13      0.843D-03      0.179D-03    -17901.79170095  13641.155053    0.00000    0.00000    0.31149    9    diag,B
   14      0.319D-03      0.389D-04    -17901.79173525  13641.335422    0.00000    0.00000    0.38101    9    diag,B
   15      0.187D-03      0.404D-04    -17901.79176944  13641.379479    0.00000    0.00000    0.36412    9    diag,B
   16      0.633D-04      0.586D-05    -17901.79176635  13641.414155    0.00000    0.00000    0.35766    9    diag,B
   17      0.288D-04      0.155D-04    -17901.79177023  13641.387421    0.00000    0.00000    0.36216    9    diag,B
   18      0.175D-04      0.442D-05    -17901.79177076  13641.388631    0.00000    0.00000    0.36540    9    orth
   19      0.921D-05      0.769D-06    -17901.79177076  13641.392645    0.00000    0.00000    0.36661    9    diag,B
   20      0.331D-05      0.100D-05    -17901.79177077  13641.402239    0.00000    0.00000    0.36675    0    orth

 Final alpha occupancy:  21  10  10   4
 Final beta  occupancy:  18   9   9   4

 !RHF STATE 1.4 Energy               -17901.7917707665    
 Nuclear energy                       164.05292498
 One-electron energy               -24886.54581518
 Two-electron energy                 6820.70111944
 Virial quotient                       -0.67998636
 !RHF STATE 1.4 Dipole moment           0.00000000     0.00000000     0.36675154
 Dipole moment /Debye                   0.00000000     0.00000000     0.93212838

 Orbital energies:

         1.1          2.1          3.1          4.1          5.1          6.1          7.1          8.1          9.1         10.1
  -2813.150264  -497.443976  -433.485666  -118.732642   -99.643672   -77.823166   -77.822952   -26.575770   -20.703496   -20.183492

        11.1         12.1         13.1         14.1         15.1         16.1         17.1         18.1         19.1         20.1
    -12.032601   -12.032323    -4.188390    -2.976438    -2.975040    -2.432465    -1.288630    -0.627615    -0.475773    -0.425911

        21.1         22.1         23.1
     -0.282392     0.033515     0.065659

         1.2          2.2          3.2          4.2          5.2          6.2          7.2          8.2          9.2         10.2
   -433.485502   -99.642875   -77.825945   -20.182207   -12.037897    -2.976382    -2.974481    -2.431328    -0.446257    -0.605695

        11.2         12.2
      0.035758     0.162776

         1.3          2.3          3.3          4.3          5.3          6.3          7.3          8.3          9.3         10.3
   -433.485502   -99.642875   -77.825945   -20.182207   -12.037897    -2.976382    -2.974481    -2.431328    -0.446258    -0.605694

        11.3         12.3
      0.035758     0.162776

         1.4          2.4          3.4          4.4          5.4          6.4
    -77.826745   -12.039330    -2.972662    -0.413366     0.194156     0.541516

 HOMO     21.1    -0.282392 =      -7.6843eV
 LUMO     22.1     0.033515 =       0.9120eV
 LUMO-HOMO         0.315908 =       8.5963eV


 **********************************************************************************************************************************
 DATASETS  * FILE   NREC   LENGTH (MB)   RECORD NAMES
              1      23       23.93       500      610      700      900      950      970     1000      129      960     1700   
                                          VAR    BASINP    GEOM    SYMINP    ZMAT    AOBASIS   BASIS     P2S    ABASIS    OPER   
                                         1101     1401     1411     1412     1650     1100     1400     1410     1200     1210   
                                          SR      EKINR    POTR     PVPR    MOLCAS      S      EKIN      POT      H0       H01  
                                         1080     1600     1800   
                                         AOSYM     SMH     GRID   

              2       6        9.38       700     1000      520     1800     2100     2101   
                                         GEOM     BASIS   MCVARS    GRID      RKS      RHF  

 PROGRAMS   *        TOTAL       RHF       RKS       INT
 CPU TIMES  *       198.45     11.27     13.76    173.17
 REAL TIME  *       216.60 SEC
 DISK USED  *        10.50 GB      
 SF USED    *         0.24 MB      
 GA USED    *         0.24 MB       (max)       0.24 MB       (current)
 **********************************************************************************************************************************
 SETTING SCF(1)         =    -17901.79177077  AU                              
 SETTING _CC_NORM_MAX   =         2.00000000                                  


 PROGRAM * CCSD (Restricted open-shell coupled cluster)     Authors: C. Hampel, H.-J. Werner, 1991, M. Deegan, P.J. Knowles, 1992


 Convergence thresholds:  THRVAR = 1.00D-08  THRDEN = 1.70D-06

 CCSD(T)     terms to be evaluated (factor= 1.000)


 Number of closed-shell orbitals:  40 (  18   9   9   4 )
 Number of active  orbitals:        5 (   3   1   1   0 )
 Number of external orbitals:     401 ( 164  96  96  45 )

 For full I/O caching in triples, increase memory by 281.71 Mwords to 1305.99 Mwords.

 Number of N-1 electron functions:              85
 Number of N-2 electron functions:            3570
 Number of singly external CSFs:             10559
 Number of doubly external CSFs:         113053279
 Total number of CSFs:                   113063838

 Molecular orbitals read from record     2101.2  Type=RHF/CANONICAL (state 1.4)

 Integral transformation finished. Total CPU:  53.97 sec, npass=  1  Memory used: 144.58 MW

 Starting RMP2 calculation

 Wavefunction is spin-projected

 ITER.      SQ.NORM     CORR.ENERGY   TOTAL ENERGY   ENERGY CHANGE        DEN1      VAR(S)    VAR(P)  DIIS     TIME
   1      1.25271499    -3.63238615-17905.42415692    -3.63238615    -0.00335479  0.31D-03  0.15D-02  1  1    73.72
   2      1.25767200    -3.63606614-17905.42783691    -0.00367999    -0.00006919  0.17D-04  0.38D-04  2  2    93.43
   3      1.25852773    -3.63642824-17905.42819900    -0.00036210    -0.00000147  0.74D-06  0.60D-06  3  3   115.20
   4      1.25860025    -3.63644528-17905.42821605    -0.00001705    -0.00000003  0.20D-07  0.11D-07  4  4   133.97
   5      1.25860360    -3.63644447-17905.42821524     0.00000081    -0.00000000  0.10D-08  0.16D-09  5  5   152.18

 Norm of t1 vector:      0.10034554      S-energy:    -0.01559980      T1 diagnostic:  0.00181319
 Norm of t2 vector:      0.49853221      P-energy:    -3.62084467
                                         Alpha-Beta:  -2.33397070
                                         Alpha-Alpha: -0.68214267
                                         Beta-Beta:   -0.60473130

 Spin contamination <S**2-Sz**2-Sz>     0.00000000
  Reference energy                   -17901.7917707666    
  RHF-RMP2 correlation energy          -3.636444470899
 !RHF-RMP2 energy                    -17905.4282152375    
 (NB above energy spin projected)

 Starting RCCSD calculation

 ITER.      SQ.NORM     CORR.ENERGY   TOTAL ENERGY   ENERGY CHANGE        DEN1      VAR(S)    VAR(P)  DIIS     TIME
   1      1.21403865    -3.25059384-17905.04236460    -3.25059384    -0.14166818  0.27D-01  0.10D-01  0  0   487.85
   2      1.26035977    -3.37993982-17905.17171059    -0.12934598    -0.02162394  0.24D-02  0.44D-02  0  0   818.31
   3      1.29399794    -3.34439154-17905.13616231     0.03554828    -0.00703994  0.71D-02  0.42D-03  1  1  1203.01
   4      1.31343841    -3.35778891-17905.14955968    -0.01339737    -0.00230974  0.23D-02  0.34D-03  2  2  1532.32
   5      1.37592378    -3.36430947-17905.15608024    -0.00652056    -0.00127250  0.17D-02  0.80D-04  3  3  1881.84
   6      1.51147824    -3.37563017-17905.16740094    -0.01132070    -0.00011842  0.70D-04  0.31D-04  4  4  2245.32
   7      1.51657682    -3.37507700-17905.16684777     0.00055317    -0.00004760  0.27D-04  0.13D-04  5  5  2621.11
   8      1.52154664    -3.37539821-17905.16716898    -0.00032121    -0.00000961  0.51D-05  0.29D-05  6  6  2984.43
   9      1.52289311    -3.37543105-17905.16720182    -0.00003284    -0.00000344  0.26D-05  0.79D-06  6  5  3336.14
  10      1.52711757    -3.37568122-17905.16745199    -0.00025017    -0.00000108  0.70D-06  0.28D-06  6  1  3677.36
  11      1.52711090    -3.37568724-17905.16745801    -0.00000602    -0.00000038  0.27D-06  0.90D-07  6  2  4029.42
  12      1.52676643    -3.37565147-17905.16742224     0.00003577    -0.00000013  0.10D-06  0.31D-07  6  3  4365.10
  13      1.52708588    -3.37567942-17905.16745018    -0.00002795    -0.00000005  0.38D-07  0.12D-07  6  4  4707.25
  14      1.52726251    -3.37568163-17905.16745240    -0.00000222    -0.00000001  0.14D-07  0.31D-08  6  2  5041.38
  15      1.52756948    -3.37570454-17905.16747531    -0.00002291    -0.00000000  0.14D-08  0.56D-09  6  1  5399.43
  16      1.52750475    -3.37570009-17905.16747085     0.00000445    -0.00000000  0.43D-09  0.16D-09  6  5  5735.81
  17      1.52750968    -3.37570033-17905.16747110    -0.00000025    -0.00000000  0.65D-10  0.21D-10  6  6  6098.42

 Norm of t1 vector:      0.49564413      S-energy:    -0.01811130      T1 diagnostic:  0.03661286
                                                                       D1 diagnostic:  0.20935968
 Norm of t2 vector:      0.53089225      P-energy:    -3.35758903
                                         Alpha-Beta:  -2.22024858
                                         Alpha-Alpha: -0.59497499
                                         Beta-Beta:   -0.54236547

 Singles amplitudes (print threshold =  0.500E-01):

         I         SYM. A    A   T(IA) [Alpha-Alpha]

        31         2         2     -0.05541148
        41         3         2     -0.05541160
 
         I         SYM. A    A   T(IA) [Beta-Beta]

        18         1         2      0.11598180
        18         1         3      0.10071458
        30         2         1     -0.29607385
        40         3         1     -0.29607275

 Doubles amplitudes (print threshold =  0.500E-01):

         I         J         SYM. A    SYM. B    A         B      T(IJ, AB) [Beta-Beta]

        30        18         1         2         2         1      0.06363424
        30        18         1         2         3         1      0.05267245
        30        18         2         1         1         2     -0.06363424
        30        18         2         1         1         3     -0.05267245
        40        18         1         3         2         1      0.06363410
        40        18         1         3         3         1      0.05267242
        40        18         3         1         1         2     -0.06363410
        40        18         3         1         1         3     -0.05267242
        40        30         2         3         1         1      0.13228447
        40        30         3         2         1         1     -0.13228447

 Spin contamination <S**2-Sz**2-Sz>     0.00000000

 For full I/O caching in triples, increase memory by 468.77 Mwords to 1493.05 Mwords.
 

  Correlated core orbitals:             1.1       2.1       3.1       4.1       5.1       6.1       7.1       8.1       9.1      10.1
                                       11.1      12.1      13.1      14.1      15.1      16.1       1.2       2.2       3.2       4.2
                                        5.2       6.2       7.2       8.2       1.3       2.3       3.3       4.3       5.3       6.3
                                        7.3       8.3       1.4       2.4       3.4
  Orbital energies:                 -2813.1512 -497.4494 -433.4912 -118.7359  -99.6473  -77.8318  -77.8319  -26.5853  -20.7360  -20.1934
                                      -12.0513  -12.0518   -4.2475   -2.9883   -2.9845   -2.5140 -433.4907  -99.6457  -77.8295  -20.1904
                                      -12.0455   -2.9881   -2.9824   -2.5099 -433.4907  -99.6457  -77.8295  -20.1904  -12.0455   -2.9881
                                       -2.9824   -2.5099  -77.8285  -12.0432   -2.9771
 
  RCCSD core-core energy               -2.551437067905
  RCCSD core-valence energy            -0.341620805765
  RCCSD valence correlation energy     -0.482642460432
 

 RESULTS
 =======

  Reference energy                   -17901.7917707666    
  RCCSD singles energy                 -0.018111300959
  RCCSD pair energy                    -3.357589033143
  RCCSD correlation energy             -3.375700334102
  Triples (T) contribution             -0.062852108055
  Total correlation energy             -3.438552442157
 
  RHF-RCCSD energy                   -17905.1674711007    
  RHF-RCCSD[T] energy                -17905.2425437545    
  RHF-RCCSD-T energy                 -17905.2285038958    
 !RHF-RCCSD(T) energy                -17905.2303232087    

 Program statistics:

 Available memory in ccsd:              1023983250
 Min. memory needed in ccsd:             309767037
 Max. memory used in ccsd:               457748249
 Max. memory used in cckext:             375266105 (17 integral passes)
 Max. memory used in cckint:             144583568 ( 1 integral passes)



 **********************************************************************************************************************************
 DATASETS  * FILE   NREC   LENGTH (MB)   RECORD NAMES
              1      23       23.93       500      610      700      900      950      970     1000      129      960     1700   
                                          VAR    BASINP    GEOM    SYMINP    ZMAT    AOBASIS   BASIS     P2S    ABASIS    OPER   
                                         1101     1401     1411     1412     1650     1100     1400     1410     1200     1210   
                                          SR      EKINR    POTR     PVPR    MOLCAS      S      EKIN      POT      H0       H01  
                                         1080     1600     1800   
                                         AOSYM     SMH     GRID   

              2       6        9.38       700     1000      520     1800     2100     2101   
                                         GEOM     BASIS   MCVARS    GRID      RKS      RHF  

 PROGRAMS   *        TOTAL  RCCSD(T)       RHF       RKS       INT
 CPU TIMES  *     15498.93  15300.41     11.27     13.76    173.17
 REAL TIME  *     17798.47 SEC
 DISK USED  *       169.21 GB      
 SF USED    *        30.87 GB      
 GA USED    *         0.24 MB       (max)       0.24 MB       (current)
 **********************************************************************************************************************************
 SETTING CCSD(1)        =    -17905.23032321  AU                              
 Output type csv         
                                                                                                                                                                                                                                                                

     Z,PBE  ,SCF  ,CCSD
   1.987,   -17907.53630,   -17901.79177,   -17905.23032
                                                  

 RCCSD(T)/USERDEF energy= -17905.230323208736

        RCCSD(T)        RHF-SCF         RKS-SCF 
 -17905.23032321 -17901.79177077 -17907.53629788
 **********************************************************************************************************************************
 Molpro calculation terminated
 Variable memory released
