
 Primary working directories    : /global/cscratch1/sd/bkincaid
 Secondary working directories  : /global/cscratch1/sd/bkincaid
 Wavefunction directory         : /global/homes/b/bkincaid/wfu/
 Main file repository           : /global/cscratch1/sd/bkincaid/

 SHA1      : 19cd028119e0e09f93f0674bd8af7968d9b3eff6
 NAME      : 2015.1.36
 ARCHNAME  : linux/x86_64
 FC        : /opt/cray/pe/craype/2.5.14/bin/ftn
 BLASLIB   : -L/opt/intel/compilers_and_libraries_2018.1.163/linux/mkl/lib/intel64 -Wl,-_start-group -lmkl_intel_ilp64 -lmkl_intel_thread -lmkl_core -Wl,-_end-group -liomp5
 id        : lbl

 Nodes     nprocs
 nid00782    11
 Number of processes for MPI-2 version of Molpro:   nprocs(total)=   12   nprocs(compute)=   11   nprocs(helper)=    1

 Using customized tuning parameters: mindgm=7; mindgv=16; mindgc=1; mindgr=1; noblas=0; minvec=7
 default implementation of scratch files=sf  

 ***,Calculation for IrO groundstate
 memory,1024,m
 gthresh,twoint=1.0E-15
 gthresh,throvl=1.0E-15
                                                                                 !symmetry,nosym
 
 basis={
 Including file /global/u1/b/bkincaid/molpro/Ir/molecules/tz/IrO/ecps/bk1.6/bk1.6
 
 Including file /global/u1/b/bkincaid/molpro/Ir/molecules/tz/IrO/ecps/bk1.6/tz.basis
 
 ecp,O,2,1,0
 3
 1,  12.30997,  6.000000
 3,  14.76962,  73.85984
 2,  13.71419, -47.87600
 1
 2,  13.65512,  85.86406
 
 Including file /global/u1/b/bkincaid/molpro/Ir/molecules/tz/IrO/ecps/bk1.6/O-aug-cc-CVTZ.basis
 }
 
 ne = 23
 
 A1=6
 B1=2
 B2=3
 A2=1
 
 
 do i=1,2
         if(i.eq.1) then
                 z(i) = 1.500
         else if(i.eq.2) then
                 z(i) = 1.600
         else if(i.eq.3) then
                 z(i) = 1.700
         else if(i.eq.4) then
                 z(i) = 1.800
         else if(i.eq.5) then
                 z(i) = 1.900
         endif
 
 geometry={
 2
 IrO
 Ir 0.0 0.0 0.0
 O 0.0 0.0 z(i)
 }
 
 
 {rhf,maxdis=35,iptyp='DIIS',nitord=30,maxit=60; shift,-1.0,-0.5
 wf,nelec=ne,spin=1,sym=4
 occ,A1,B1,B2,A2
 closed,A1,B1,B2,A2-1
 print,orbitals=2
         }
 {rccsd(t),shifts=0.2,shiftp=0.2,thrdis=1.0;diis,1,1,15,1;maxit,100;core}
 
 enddo
 
 table,z,scf,ccsd
 save
 type,csv
 

 Variables initialized (889), CPU time= 0.01 sec
 Commands  initialized (702), CPU time= 0.01 sec, 572 directives.
 Default parameters read. Elapsed time= 0.14 sec

 Checking input...
 Passed
1


                                         ***  PROGRAM SYSTEM MOLPRO  ***
                                       Copyright, TTI GmbH Stuttgart, 2015
                                    Version 2015.1 linked Dec 29 2018 15:55:43


 **********************************************************************************************************************************
 LABEL *   Calculation for IrO groundstate                                               
  64 bit mpp version                                                                     DATE: 09-Mar-21          TIME: 14:34:49  
 **********************************************************************************************************************************

 SHA1:             19cd028119e0e09f93f0674bd8af7968d9b3eff6
 **********************************************************************************************************************************

 THRESHOLDS:

 ZERO    =  1.00D-12  ONEINT  =  1.00D-12  TWOINT  =  1.00D-15  PREFAC  =  1.00D-14  LOCALI  =  1.00D-09  EORDER  =  1.00D-04
 ENERGY  =  0.00D+00  ETEST   =  0.00D+00  EDENS   =  0.00D+00  THRDEDEF=  1.00D-06  GRADIENT=  1.00D-02  STEP    =  1.00D-03
 ORBITAL =  1.00D-05  CIVEC   =  1.00D-05  COEFF   =  1.00D-04  PRINTCI =  5.00D-02  PUNCHCI =  9.90D+01  OPTGRAD =  3.00D-04
 OPTENERG=  1.00D-06  OPTSTEP =  3.00D-04  THRGRAD =  1.00D-10  COMPRESS=  1.00D-11  VARMIN  =  1.00D-07  VARMAX  =  1.00D-03
 THRDOUB =  0.00D+00  THRDIV  =  1.00D-05  THRRED  =  1.00D-07  THRPSP  =  1.00D+00  THRDC   =  1.00D-10  THRCS   =  1.00D-10
 THRNRM  =  1.00D-08  THREQ   =  0.00D+00  THRDE   =  1.00D+00  THRREF  =  1.00D-05  SPARFAC =  1.00D+00  THRDLP  =  1.00D-07
 THRDIA  =  1.00D-10  THRDLS  =  1.00D-07  THRGPS  =  0.00D+00  THRKEX  =  0.00D+00  THRDIS  =  2.00D-01  THRVAR  =  1.00D-10
 THRLOC  =  1.00D-06  THRGAP  =  1.00D-06  THRLOCT = -1.00D+00  THRGAPT = -1.00D+00  THRORB  =  1.00D-06  THRMLTP =  0.00D+00
 THRCPQCI=  1.00D-10  KEXTA   =  0.00D+00  THRCOARS=  0.00D+00  SYMTOL  =  1.00D-06  GRADTOL =  1.00D-06  THROVL  =  1.00D-08
 THRORTH =  1.00D-08  GRID    =  1.00D-06  GRIDMAX =  1.00D-03  DTMAX   =  0.00D+00  THROCCDE=  1.00D-01  THROCCDE=  1.00D-01



 THRESHOLDS:

 ZERO    =  1.00D-12  ONEINT  =  1.00D-12  TWOINT  =  1.00D-15  PREFAC  =  1.00D-14  LOCALI  =  1.00D-09  EORDER  =  1.00D-04
 ENERGY  =  0.00D+00  ETEST   =  0.00D+00  EDENS   =  0.00D+00  THRDEDEF=  1.00D-06  GRADIENT=  1.00D-02  STEP    =  1.00D-03
 ORBITAL =  1.00D-05  CIVEC   =  1.00D-05  COEFF   =  1.00D-04  PRINTCI =  5.00D-02  PUNCHCI =  9.90D+01  OPTGRAD =  3.00D-04
 OPTENERG=  1.00D-06  OPTSTEP =  3.00D-04  THRGRAD =  1.00D-10  COMPRESS=  1.00D-11  VARMIN  =  1.00D-07  VARMAX  =  1.00D-03
 THRDOUB =  0.00D+00  THRDIV  =  1.00D-05  THRRED  =  1.00D-07  THRPSP  =  1.00D+00  THRDC   =  1.00D-10  THRCS   =  1.00D-10
 THRNRM  =  1.00D-08  THREQ   =  0.00D+00  THRDE   =  1.00D+00  THRREF  =  1.00D-05  SPARFAC =  1.00D+00  THRDLP  =  1.00D-07
 THRDIA  =  1.00D-10  THRDLS  =  1.00D-07  THRGPS  =  0.00D+00  THRKEX  =  0.00D+00  THRDIS  =  2.00D-01  THRVAR  =  1.00D-10
 THRLOC  =  1.00D-06  THRGAP  =  1.00D-06  THRLOCT = -1.00D+00  THRGAPT = -1.00D+00  THRORB  =  1.00D-06  THRMLTP =  0.00D+00
 THRCPQCI=  1.00D-10  KEXTA   =  0.00D+00  THRCOARS=  0.00D+00  SYMTOL  =  1.00D-06  GRADTOL =  1.00D-06  THROVL  =  1.00D-15
 THRORTH =  1.00D-08  GRID    =  1.00D-06  GRIDMAX =  1.00D-03  DTMAX   =  0.00D+00  THROCCDE=  1.00D-01  THROCCDE=  1.00D-01



 Variable memory set to 1024000000 words,  buffer space   230000 words

 SETTING BASIS          =    USERDEF
 SETTING NE             =        23.00000000                                  
 SETTING A1             =         6.00000000                                  
 SETTING B1             =         2.00000000                                  
 SETTING B2             =         3.00000000                                  
 SETTING A2             =         1.00000000                                  

 DO I                   =         1.00000000   
 SETTING Z(1)           =         1.50000000                                  

Geometry recognized as XYZ



 Recomputing integrals since basis changed


 Using spherical harmonics



 PROGRAM * SEWARD (Integral evaluation for generally contracted gaussian basis sets)     Author: Roland Lindh, 1990

 Geometry written to block  1 of record 700


 Point group  C2v 



 ATOMIC COORDINATES

 NR  ATOM    CHARGE       X              Y              Z

   1  IR     17.00    0.000000000    0.000000000    0.000000000
   2  O       6.00    0.000000000    0.000000000    2.834589187

 Bond lengths in Bohr (Angstrom)

 1-2  2.834589187
     ( 1.500000000)

 NUCLEAR CHARGE:                   23
 NUMBER OF PRIMITIVE AOS:         556
 NUMBER OF SYMMETRY AOS:          455
 NUMBER OF CONTRACTIONS:          455   ( 186A1  + 109B1  + 109B2  +  51A2  )
 NUMBER OF CORE ORBITALS:           4   (   2A1  +   1B1  +   1B2  +   0A2  )
 NUMBER OF VALENCE ORBITALS:       10   (   5A1  +   2B1  +   2B2  +   1A2  )


 NUCLEAR REPULSION ENERGY   35.98405034

 EXTRA SYMMETRY OF AOS IN SYMMETRY 1:   1 1 1 1 1 1 1 1 1 1   1 1 1 1 1 1 1 1 1 1   1 1 1 1 1 1 1 1 1 1   1 1 1 1 1 1 1 1 1 1
                                        1 1 1 1 1 1 1 1 1 1   1 1 1 1 1 1 1 1 1 1   1 1 1 1 1 1 1 2 1 2   1 2 1 2 1 2 1 2 1 2
                                        1 2 1 2 1 2 1 2 1 2   1 2 1 2 1 2 1 2 1 2   1 2 1 2 1 2 1 2 1 2   1 2 1 2 1 2 1 2 1 2
                                        1 2 1 2 1 2 1 2 1 2   1 2 1 2 1 2 1 2 1 2   1 2 1 2 1 3 2 1 3 2   1 3 2 1 1 1 1 1 1 1
                                        1 1 1 1 1 1 1 1 1 1   1 1 1 1 1 2 1 2 1 2   1 2 1 2 1 2
 EXTRA SYMMETRY OF AOS IN SYMMETRY 2:   1 1 1 1 1 1 1 1 1 1   1 1 1 1 1 1 1 1 1 1   1 1 1 1 1 1 1 1 1 1   1 1 1 1 1 1 1 1 1 1
                                        1 1 1 1 1 1 1 1 1 1   1 1 1 1 2 1 2 1 2 1   2 1 2 1 2 1 2 1 2 1   2 1 2 1 2 1 2 1 2 1
                                        2 1 2 1 2 1 2 1 2 1   2 1 2 1 1 1 1 1 1 1   1 1 1 1 1 1 2 1 2
 EXTRA SYMMETRY OF AOS IN SYMMETRY 3:   1 1 1 1 1 1 1 1 1 1   1 1 1 1 1 1 1 1 1 1   1 1 1 1 1 1 1 1 1 1   1 1 1 1 1 1 1 1 1 1
                                        1 1 1 1 1 1 1 1 1 1   1 1 1 1 2 1 2 1 2 1   2 1 2 1 2 1 2 1 2 1   2 1 2 1 2 1 2 1 2 1
                                        2 1 2 1 2 1 2 1 2 1   2 1 2 1 1 1 1 1 1 1   1 1 1 1 1 1 2 1 2
 EXTRA SYMMETRY OF AOS IN SYMMETRY 4:   1 1 1 1 1 1 1 1 1 1   1 1 1 1 1 1 1 1 1 1   1 1 1 1 1 1 1 1 1 1   1 1 1 1 1 1 1 1 1 1
                                        2 1 2 1 2 1 1 1 1 1   1

 Eigenvalues of metric

         1 0.666E-07 0.913E-06 0.334E-05 0.942E-05 0.155E-04 0.157E-04 0.247E-04 0.409E-04
         2 0.898E-07 0.370E-05 0.152E-04 0.517E-04 0.539E-04 0.125E-03 0.139E-03 0.432E-03
         3 0.898E-07 0.370E-05 0.152E-04 0.517E-04 0.539E-04 0.125E-03 0.139E-03 0.432E-03
         4 0.155E-04 0.538E-04 0.146E-03 0.607E-03 0.970E-03 0.207E-02 0.546E-02 0.578E-02


 Contracted 2-electron integrals neglected if value below      1.0D-15

 Warning: maximum contribution to expansion of local PP integrals   0.5D+07
 AO integral compression algorithm  1   Integral accuracy      1.0D-15

     4915.986 MB (compressed) written to integral file ( 38.4%)

     Node minimum: 258.998 MB, node maximum: 913.834 MB


 NUMBER OF SORTED TWO-ELECTRON INTEGRALS:  125132898.     BUFFER LENGTH:  32768
 NUMBER OF SEGMENTS:   4  SEGMENT LENGTH:   31982049      RECORD LENGTH: 524288

 Memory used in sort:      32.54 MW

 SORT1 READ  1600176772. AND WROTE    49745475. INTEGRALS IN    144 RECORDS. CPU TIME:    37.54 SEC, REAL TIME:    46.37 SEC
 SORT2 READ   545769643. AND WROTE  1376419418. INTEGRALS IN  15213 RECORDS. CPU TIME:    11.04 SEC, REAL TIME:    12.24 SEC

 Node minimum:   125060912.  Node maximum:   125200036. integrals

 OPERATOR DM      FOR CENTER  0  COORDINATES:    0.000000    0.000000    0.000000


 **********************************************************************************************************************************
 DATASETS  * FILE   NREC   LENGTH (MB)   RECORD NAMES
              1      19       22.49       500      610      700      900      950      970     1000      129      960     1100   
                                          VAR    BASINP    GEOM    SYMINP    ZMAT    AOBASIS   BASIS     P2S    ABASIS      S 
                                         1400     1410     1420     1200     1210     1080     1600     1650     1700   
                                           T        V       ECP      H0       H01     AOSYM     SMH    MOLCAS    OPER   

 PROGRAMS   *        TOTAL       INT
 CPU TIMES  *       250.68    250.39
 REAL TIME  *       263.07 SEC
 DISK USED  *        11.47 GB      
 GA USED    *         0.00 MB       (max)       0.00 MB       (current)
 **********************************************************************************************************************************


 PROGRAM * RHF-SCF (OPEN SHELL)       Authors: W. Meyer, H.-J. Werner


 NUMBER OF ELECTRONS:      12+   11-    SPACE SYMMETRY=4    SPIN SYMMETRY: Doublet 
 CONVERGENCE THRESHOLDS:    1.00E-05 (Density)    1.00E-07 (Energy)
 MAX. NUMBER OF ITERATIONS:       60
 INTERPOLATION TYPE:            DIIS
 INTERPOLATION STEPS:              2 (START)      1 (STEP)
 LEVEL SHIFTS:                 -1.00 (CLOSED) -0.50 (OPEN) 

 Number of closed-shell orbitals:   11 (   6   2   3   0 )
 Number of open-shell orbitals:      1 (   0   0   0   1 )


 Orbital guess generated from atomic densities. Full valence occupancy:    7   3   3   1

 Molecular orbital dump at record        2100.2

 ITERATION    DDIFF          GRAD             ENERGY        2-EL.EN.            DIPOLE MOMENTS         DIIS   ORB.
    1      0.000D+00      0.000D+00      -119.32674332    245.324926    0.00000    0.00000   -1.66582    0    start
    2      0.000D+00      0.460D-02      -119.35063160    244.654918    0.00000    0.00000   -1.16923    1    diag,B
    3      0.331D-02      0.157D-02      -119.35538346    244.584673    0.00000    0.00000   -1.14761    2    diag,B
    4      0.270D-02      0.824D-03      -119.35790497    244.478744    0.00000    0.00000   -1.06669    3    diag,B
    5      0.308D-02      0.503D-03      -119.35958972    244.331834    0.00000    0.00000   -1.01202    4    diag,B
    6      0.331D-02      0.303D-03      -119.36048202    244.191042    0.00000    0.00000   -0.95904    5    diag,B
    7      0.197D-02      0.167D-03      -119.36079462    244.091804    0.00000    0.00000   -0.91937    6    diag,B
    8      0.957D-03      0.897D-04      -119.36088035    244.049043    0.00000    0.00000   -0.89646    7    diag,B
    9      0.692D-03      0.508D-04      -119.36090921    244.025404    0.00000    0.00000   -0.88298    8    diag,B
   10      0.272D-03      0.271D-04      -119.36091723    244.015086    0.00000    0.00000   -0.87714    9    orth
   11      0.260D-03      0.168D-04      -119.36092064    244.009294    0.00000    0.00000   -0.87444   10    diag,B
   12      0.149D-03      0.102D-04      -119.36092202    244.006347    0.00000    0.00000   -0.87287   11    diag,B
   13      0.808D-04      0.562D-05      -119.36092242    244.005173    0.00000    0.00000   -0.87196   12    diag,B
   14      0.533D-04      0.318D-05      -119.36092253    244.004761    0.00000    0.00000   -0.87139   13    diag,B
   15      0.371D-04      0.205D-05      -119.36092255    244.004652    0.00000    0.00000   -0.87121   14    diag,B
   16      0.848D-05      0.139D-05      -119.36092256    244.004606    0.00000    0.00000   -0.87113    0    orth

 Final alpha occupancy:   6   2   3   1
 Final beta  occupancy:   6   2   3   0

 !RHF STATE 1.4 Energy               -119.360922559578
 Nuclear energy                        35.98405034
 One-electron energy                 -277.34727614
 Two-electron energy                  122.00230323
 Virial quotient                       -2.51127768
 !RHF STATE 1.4 Dipole moment           0.00000000     0.00000000    -0.87113380
 Dipole moment /Debye                   0.00000000     0.00000000    -2.21405624

 ELECTRON ORBITALS
 =================


   Orb  Occ    Energy  Couls-En    Coefficients

                                   1 1s      1 1s      1 1s      1 1s      1 1s      1 1s      1 1s      1 1s      1 1s      1 1s   
                                   1 1s      1 1s      1 1s      1 1s      1 1s      1 1s      1 1s      1 1s      1 1s      1 1s   
                                   1 1s      1 1s      1 1s      1 1s      1 1s      1 1s      1 1s      1 1s      1 1s      1 1s   
                                   1 1s      1 1s      1 1s      1 1s      1 1s      1 2pz     1 2pz     1 2pz     1 2pz     1 2pz  
                                   1 2pz     1 2pz     1 2pz     1 2pz     1 2pz     1 2pz     1 2pz     1 2pz     1 2pz     1 2pz  
                                   1 2pz     1 2pz     1 2pz     1 2pz     1 2pz     1 2pz     1 2pz     1 2pz     1 2pz     1 2pz  
                                   1 2pz     1 2pz     1 2pz     1 2pz     1 2pz     1 2pz     1 3d0     1 3d2+    1 3d0     1 3d2+ 
                                   1 3d0     1 3d2+    1 3d0     1 3d2+    1 3d0     1 3d2+    1 3d0     1 3d2+    1 3d0     1 3d2+ 
                                   1 3d0     1 3d2+    1 3d0     1 3d2+    1 3d0     1 3d2+    1 3d0     1 3d2+    1 3d0     1 3d2+ 
                                   1 3d0     1 3d2+    1 3d0     1 3d2+    1 3d0     1 3d2+    1 3d0     1 3d2+    1 3d0     1 3d2+ 
                                   1 3d0     1 3d2+    1 3d0     1 3d2+    1 3d0     1 3d2+    1 3d0     1 3d2+    1 3d0     1 3d2+ 
                                   1 4f0     1 4f2+    1 4f0     1 4f2+    1 4f0     1 4f2+    1 4f0     1 4f2+    1 4f0     1 4f2+ 
                                   1 4f0     1 4f2+    1 4f0     1 4f2+    1 4f0     1 4f2+    1 4f0     1 4f2+    1 4f0     1 4f2+ 
                                   1 4f0     1 4f2+    1 4f0     1 4f2+    1 4f0     1 4f2+    1 4f0     1 4f2+    1 4f0     1 4f2+ 
                                   1 4f0     1 4f2+    1 4f0     1 4f2+    1 5g0     1 5g4+    1 5g2+    1 5g0     1 5g4+    1 5g2+ 
                                   1 5g0     1 5g4+    1 5g2+    2 1s      2 1s      2 1s      2 1s      2 1s      2 1s      2 1s   
                                   2 1s      2 1s      2 1s      2 1s      2 1s      2 1s      2 2pz     2 2pz     2 2pz     2 2pz  
                                   2 2pz     2 2pz     2 2pz     2 2pz     2 3d0     2 3d2+    2 3d0     2 3d2+    2 3d0     2 3d2+ 
                                   2 3d0     2 3d2+    2 4f0     2 4f2+    2 4f0     2 4f2+ 

   1.1   2    -4.3037  -21.0777 -0.000000  0.000000 -0.000000  0.000000 -0.000000  0.000000 -0.000000  0.000000 -0.000000  0.000000
                                -0.000001  0.000003 -0.000007  0.000017 -0.000043  0.000107 -0.000266  0.000653 -0.001588  0.003815
                                -0.009101  0.021756 -0.047956  0.033204  0.334352 -0.966301  0.335655 -0.403374  0.961513 -0.050345
                                 0.550728  0.019262 -0.018509 -0.002855  0.000372 -0.000000  0.000000 -0.000000  0.000000 -0.000000
                                 0.000000 -0.000000  0.000000 -0.000000  0.000000 -0.000000  0.000000 -0.000000  0.000000 -0.000000
                                 0.000001 -0.000003  0.000015 -0.000124  0.000761 -0.001865  0.003028 -0.006012  0.010724 -0.272095
                                 0.276113 -0.010830 -0.007179 -0.007283 -0.000547  0.000213  0.000000 -0.000000 -0.000000  0.000000
                                 0.000000 -0.000000 -0.000000  0.000000  0.000000 -0.000000 -0.000002  0.000000  0.000005 -0.000000
                                -0.000011  0.000000  0.000026 -0.000001 -0.000054  0.000004  0.000102 -0.000023 -0.000111  0.000185
                                 0.000742 -0.000641 -0.005116 -0.000615  0.005290  0.000756 -0.000999  0.003211  0.009031  0.000240
                                -0.001297  0.001509 -0.004513 -0.000220 -0.003336 -0.000114 -0.001563  0.000001  0.000202 -0.000002
                                 0.000000 -0.000000 -0.000000  0.000000  0.000000 -0.000000 -0.000001  0.000000  0.000003 -0.000000
                                -0.000012 -0.000004  0.000020 -0.000007 -0.000102 -0.000046  0.000336  0.000133 -0.000068 -0.000175
                                -0.002364 -0.000538  0.003347 -0.000684 -0.002357  0.000247 -0.001018  0.000049 -0.000898  0.000091
                                -0.000015 -0.000038  0.000017  0.000015  0.000073  0.000049 -0.000115  0.000532  0.000765 -0.000707
                                -0.000988  0.000372 -0.000440 -0.000000  0.000000 -0.000001  0.000007 -0.000067 -0.000884 -0.002939
                                 0.011552  0.001649  0.014641 -0.000214  0.000907  0.013795 -0.000132 -0.001405 -0.004192 -0.010744
                                -0.007128 -0.000120  0.000034 -0.002661  0.001434  0.000054  0.004044  0.000479  0.000053  0.000002
                                 0.000713  0.000156 -0.000988 -0.000134 -0.000352 -0.000273

   2.1   2    -2.5830  -17.3479 -0.000000  0.000000 -0.000000  0.000000 -0.000000  0.000000 -0.000000  0.000000 -0.000000  0.000000
                                -0.000000  0.000000 -0.000000  0.000000 -0.000000  0.000000 -0.000000 -0.000000  0.000001 -0.000004
                                 0.000019 -0.000086  0.000230  0.001067 -0.012076  0.039868 -0.087513  0.101996 -0.087434  0.090867
                                -0.062898 -0.040398 -0.032576 -0.013362  0.001937  0.000000 -0.000000  0.000000 -0.000000  0.000000
                                -0.000000  0.000000 -0.000000  0.000000 -0.000000  0.000001 -0.000003  0.000007 -0.000018  0.000036
                                -0.000050 -0.000092  0.001847 -0.019029  0.118013 -0.259509 -0.119290 -0.010502  0.391578 -0.740798
                                 1.294719  0.217272 -0.006482 -0.019225 -0.002145  0.000561  0.000000  0.000000 -0.000000 -0.000000
                                 0.000000  0.000000 -0.000000 -0.000000  0.000002  0.000000 -0.000006 -0.000000  0.000016  0.000000
                                -0.000041 -0.000000  0.000093  0.000000 -0.000198 -0.000001  0.000422  0.000010 -0.000999 -0.000105
                                 0.004976  0.000458 -0.017080  0.000038  0.017558 -0.000191 -0.014511 -0.001608  0.029514 -0.000988
                                -0.015161 -0.001204 -0.010490  0.001255 -0.009467  0.001005 -0.003424  0.000058 -0.000103  0.000012
                                 0.000000  0.000000 -0.000000 -0.000000  0.000002  0.000000 -0.000006 -0.000001  0.000018  0.000002
                                -0.000021 -0.000013  0.000159  0.000002 -0.000144 -0.000097  0.000866 -0.000043  0.000222 -0.000162
                                -0.003731  0.000340  0.014125 -0.001764 -0.006992 -0.000280 -0.002241 -0.001799 -0.003392 -0.000382
                                 0.000872  0.000045 -0.000605 -0.000017  0.000767 -0.000009  0.000094  0.001411 -0.000020  0.000132
                                -0.001796  0.000010  0.000734 -0.000000  0.000001 -0.000007  0.000049 -0.000504 -0.007430 -0.023785
                                 0.076245  0.018453  0.071259  0.000516  0.007131  0.039362 -0.000805 -0.008562 -0.026851 -0.053838
                                -0.037778 -0.000664  0.000208 -0.005921  0.005488  0.000127  0.016855  0.000967  0.000214 -0.000009
                                 0.006194  0.000446 -0.003258 -0.000398 -0.002566 -0.000509

   3.1   2    -1.3380  -12.6110  0.000000 -0.000000  0.000000 -0.000000  0.000000 -0.000000  0.000000 -0.000000  0.000000 -0.000000
                                 0.000000 -0.000000  0.000001 -0.000002  0.000006 -0.000014  0.000035 -0.000087  0.000211 -0.000509
                                 0.001218 -0.002934  0.006581 -0.005053 -0.045417  0.142191 -0.068380  0.077868 -0.169817 -0.063425
                                -0.003959 -0.016537 -0.092310 -0.025634  0.004142  0.000000 -0.000000  0.000000 -0.000000  0.000000
                                -0.000000  0.000000 -0.000000  0.000000 -0.000000  0.000000 -0.000001  0.000002 -0.000005  0.000013
                                -0.000038  0.000138 -0.000761  0.006017 -0.036038  0.082492 -0.002647  0.046615 -0.136572 -0.191786
                                 0.033505 -0.079075 -0.063987 -0.044630 -0.002634  0.001165  0.000000 -0.000000 -0.000000  0.000000
                                 0.000000 -0.000000 -0.000000  0.000000  0.000001 -0.000000 -0.000003  0.000000  0.000009 -0.000000
                                -0.000021  0.000001  0.000043 -0.000002 -0.000054  0.000004 -0.000203 -0.000004  0.003370 -0.000028
                                -0.010568  0.000046 -0.021323  0.000622  0.020878 -0.000611  0.043430 -0.000567  0.026199 -0.001939
                                 0.081031  0.001068  0.049922 -0.000147 -0.018624 -0.000077 -0.006796 -0.000292  0.001108  0.000009
                                 0.000000 -0.000000 -0.000000  0.000000  0.000000 -0.000000 -0.000000  0.000001  0.000005 -0.000002
                                 0.000065  0.000012  0.000160 -0.000000  0.000457  0.000089 -0.000116 -0.000127  0.003401  0.000367
                                -0.006854 -0.000353  0.023214  0.001423 -0.005658  0.001613  0.007535  0.001937 -0.006051  0.001227
                                 0.000489 -0.000416  0.000408  0.000123  0.001902  0.000039  0.000016  0.004084 -0.000089  0.001340
                                -0.000165 -0.000137  0.000450 -0.000001  0.000006 -0.000047  0.000313 -0.003259 -0.048676 -0.159644
                                 0.550999  0.148783  0.433201 -0.003331  0.047092  0.106145 -0.001128 -0.010953 -0.031648 -0.076557
                                -0.090432 -0.000468  0.000305 -0.020834  0.003934 -0.000511  0.022237  0.000100  0.000149 -0.000132
                                 0.016672 -0.001504 -0.002785 -0.000462 -0.004062 -0.001093

   4.1   2    -0.6658  -11.1538 -0.000000  0.000000 -0.000000  0.000000 -0.000000  0.000000 -0.000000  0.000000 -0.000000  0.000000
                                -0.000000  0.000000 -0.000000  0.000001 -0.000002  0.000004 -0.000010  0.000026 -0.000063  0.000157
                                -0.000397  0.001041 -0.002436 -0.000434  0.037401 -0.125336  0.206165 -0.239889  0.251119 -0.177863
                                 0.143994  0.021487  0.100428  0.053372 -0.008878 -0.000000  0.000000 -0.000000  0.000000 -0.000000
                                 0.000000 -0.000000  0.000000 -0.000000  0.000000 -0.000001  0.000003 -0.000007  0.000018 -0.000043
                                 0.000101 -0.000245  0.000738 -0.003644  0.018970 -0.045049  0.040049 -0.063932  0.067697  1.081828
                                -1.030437  0.087387  0.035933  0.058539  0.010004 -0.003392 -0.000000 -0.000000  0.000000  0.000000
                                -0.000000 -0.000000  0.000001  0.000000 -0.000004 -0.000000  0.000012  0.000000 -0.000034 -0.000001
                                 0.000085  0.000003 -0.000184 -0.000009  0.000310  0.000031  0.000064 -0.000167 -0.006916  0.001330
                                 0.020748 -0.004714  0.065373 -0.002614 -0.066967  0.002508 -0.091541  0.018858 -0.102420  0.001332
                                -0.153778  0.028534 -0.166211  0.024325 -0.042647  0.009543  0.013467  0.000538 -0.000704 -0.000014
                                -0.000000  0.000000  0.000001 -0.000000 -0.000004  0.000000  0.000013 -0.000001 -0.000043  0.000002
                                 0.000015 -0.000009 -0.000442  0.000005  0.000097 -0.000067 -0.002260  0.000188 -0.002648 -0.000523
                                 0.015477  0.000853 -0.044822 -0.001714  0.024271  0.000038 -0.016816 -0.001592  0.001459 -0.000775
                                 0.000543 -0.000069  0.001747 -0.000068 -0.002258  0.000200 -0.000375 -0.007073  0.000371 -0.001225
                                 0.001092  0.000672 -0.000564 -0.000000  0.000002 -0.000013  0.000083 -0.000864 -0.013630 -0.043477
                                 0.138932  0.046953  0.138729  0.002006  0.012684 -0.089227  0.007052  0.074312  0.240673  0.393241
                                 0.257426  0.004573 -0.001844  0.029178 -0.012165 -0.000426 -0.039985 -0.001079 -0.000485 -0.000050
                                -0.018437 -0.000999  0.005943  0.001395  0.007374  0.000644

   5.1   2    -0.4863  -11.4693  0.000000 -0.000000  0.000000 -0.000000  0.000000 -0.000000  0.000000 -0.000000  0.000000 -0.000000
                                 0.000000 -0.000000  0.000000 -0.000001  0.000002 -0.000005  0.000013 -0.000032  0.000077 -0.000186
                                 0.000447 -0.001081  0.002438 -0.001876 -0.017196  0.055131 -0.029975  0.033591 -0.074884  0.007598
                                -0.047509  0.057501  0.031685 -0.002497  0.000871  0.000000 -0.000000  0.000000 -0.000000  0.000000
                                -0.000000  0.000000 -0.000000  0.000000 -0.000000  0.000000 -0.000001  0.000002 -0.000004  0.000010
                                -0.000023  0.000056 -0.000168  0.000827 -0.004312  0.010436 -0.014628  0.023386 -0.025965  0.183678
                                -0.201599 -0.003404  0.017337  0.001102 -0.000940  0.000392  0.000000 -0.000000 -0.000000  0.000000
                                 0.000000 -0.000000 -0.000000  0.000000  0.000001 -0.000001 -0.000002  0.000005  0.000005 -0.000015
                                -0.000013  0.000042  0.000032 -0.000117 -0.000076  0.000408  0.000224 -0.002228 -0.001100  0.017865
                                 0.004310 -0.063633 -0.003493 -0.034530  0.003920  0.034041 -0.016619  0.250312  0.013446  0.010191
                                -0.030731  0.392839 -0.009927  0.347093 -0.007702  0.169962 -0.003794  0.026784  0.000251 -0.000804
                                 0.000000  0.000000 -0.000000 -0.000000  0.000000  0.000000 -0.000001 -0.000001  0.000004  0.000002
                                 0.000007 -0.000005  0.000056  0.000018  0.000038 -0.000047  0.000391  0.000408  0.000007 -0.000982
                                -0.000682  0.002281  0.004540 -0.003289 -0.001678  0.003661  0.006621 -0.004756  0.000767 -0.003027
                                -0.000925 -0.000362  0.000019 -0.000073  0.000719  0.001750  0.000318  0.001109  0.002910  0.002806
                                 0.001940  0.004096  0.003040  0.000000 -0.000000  0.000001 -0.000004  0.000046  0.000698  0.002493
                                -0.011186 -0.002958 -0.017439  0.000089 -0.000684  0.002056 -0.000951 -0.010000 -0.032391 -0.051244
                                -0.036637 -0.000594  0.000249 -0.004431  0.000454  0.002424  0.001792  0.008235  0.000014  0.000122
                                 0.000784  0.003574 -0.000201 -0.002092 -0.000336 -0.002165

   6.1   2    -0.3360   -8.7262  0.000000 -0.000000  0.000000 -0.000000  0.000000 -0.000000  0.000000 -0.000000  0.000000 -0.000000
                                 0.000000 -0.000001  0.000002 -0.000006  0.000015 -0.000036  0.000090 -0.000222  0.000539 -0.001298
                                 0.003109 -0.007492  0.016884 -0.013851 -0.111976  0.358110 -0.154824  0.172934 -0.452045  0.014497
                                -0.368459  0.309743  0.592453  0.189585 -0.001719  0.000000 -0.000000  0.000000 -0.000000  0.000000
                                -0.000000  0.000000 -0.000000  0.000000 -0.000000  0.000000 -0.000001  0.000002 -0.000005  0.000013
                                -0.000030  0.000069 -0.000173  0.000608 -0.002607  0.006587 -0.022927  0.032971 -0.027534  0.455893
                                -0.464087  0.013046 -0.024879 -0.042412 -0.007081  0.000607  0.000000  0.000000 -0.000000 -0.000000
                                 0.000000  0.000000 -0.000000 -0.000000  0.000000  0.000000 -0.000001 -0.000001  0.000004  0.000002
                                -0.000011 -0.000005  0.000033  0.000014 -0.000134 -0.000049  0.000817  0.000262 -0.006857 -0.002088
                                 0.024465  0.007498  0.014245  0.003861 -0.013768 -0.003962 -0.097656 -0.029945 -0.001763 -0.001195
                                -0.160133 -0.044116 -0.132035 -0.035245 -0.081136 -0.016360 -0.021983 -0.004466  0.001349 -0.000079
                                 0.000000 -0.000000 -0.000000  0.000000  0.000001 -0.000000 -0.000002  0.000001  0.000008 -0.000002
                                 0.000008  0.000015  0.000100  0.000004  0.000038  0.000120  0.000980 -0.000320 -0.001956  0.000757
                                 0.004048 -0.000594  0.000505  0.002922  0.003654  0.000486  0.009369  0.002532  0.006117  0.002239
                                -0.001355 -0.000075  0.001985  0.000244 -0.000165  0.000379 -0.000905 -0.001301 -0.000029 -0.001135
                                -0.000994 -0.000215 -0.001354  0.000000 -0.000001  0.000005 -0.000033  0.000336  0.005830  0.015947
                                -0.045513 -0.014739 -0.069708 -0.003884 -0.004941 -0.044592 -0.002112 -0.021824 -0.069716 -0.111483
                                -0.099403 -0.001138  0.000559 -0.026155 -0.002637 -0.000272 -0.006667 -0.000093 -0.000129  0.000002
                                 0.000280  0.000365  0.001561 -0.000164  0.000817 -0.001002

   7.1   0     0.0127   -3.6419 -0.000000  0.000000 -0.000000  0.000000 -0.000000  0.000000 -0.000000  0.000000 -0.000000  0.000000
                                -0.000000  0.000000 -0.000000  0.000001 -0.000003  0.000008 -0.000019  0.000046 -0.000112  0.000267
                                -0.000626  0.001460 -0.003232  0.004036  0.009261 -0.026083 -0.079416  0.098179 -0.051684  0.275878
                                -0.195258  0.132144 -0.575093 -1.342155  1.327436 -0.000000  0.000000 -0.000000  0.000000 -0.000000
                                 0.000000 -0.000000  0.000000 -0.000000  0.000001 -0.000002  0.000006 -0.000017  0.000042 -0.000101
                                 0.000234 -0.000536  0.001353 -0.004886  0.021417 -0.053705  0.163974 -0.235884  0.199625 -3.035576
                                 3.118051 -0.076055  0.117101 -0.828362  0.144897 -0.618836  0.000000 -0.000000 -0.000000  0.000000
                                 0.000000 -0.000000 -0.000001  0.000000  0.000004 -0.000000 -0.000014  0.000001  0.000039 -0.000002
                                -0.000099  0.000004  0.000222 -0.000010 -0.000445  0.000025  0.000696 -0.000091  0.000748  0.000571
                                -0.000251 -0.002092 -0.045207 -0.000041  0.046708  0.000023  0.010057  0.007993  0.123365 -0.002006
                                -0.035789  0.012436  0.122002  0.008480  0.021080  0.007298 -0.092265  0.002824  0.240175  0.016021
                                -0.000000 -0.000000  0.000000  0.000000 -0.000002 -0.000000  0.000007  0.000001 -0.000023 -0.000002
                                 0.000038  0.000008 -0.000191 -0.000010  0.000333  0.000049 -0.003181 -0.000341  0.007936  0.000986
                                -0.014593 -0.001128  0.015743  0.001523 -0.022667 -0.001234  0.012713  0.000930 -0.034361 -0.004177
                                -0.026385  0.000936  0.047639 -0.007551 -0.000224  0.000186  0.000286 -0.000710  0.000749 -0.000079
                                 0.000099  0.000815  0.001184 -0.000000  0.000000 -0.000002  0.000011 -0.000097 -0.002627 -0.003257
                                -0.023863  0.000456  0.018766  0.007175  0.001417  1.031190  0.001527  0.015664  0.049838  0.083564
                                 0.118538  0.000759 -0.000406 -0.380996  0.002128  0.000118  0.007768 -0.000641  0.000103  0.000000
                                -0.018732  0.000578 -0.001170  0.000194 -0.001978  0.000833

   8.1   0     0.0312   -2.3444 -0.000000  0.000000 -0.000000  0.000000 -0.000000  0.000000 -0.000000  0.000000 -0.000000  0.000000
                                -0.000000  0.000000 -0.000000  0.000001 -0.000002  0.000005 -0.000012  0.000031 -0.000074  0.000175
                                -0.000409  0.000943 -0.002073  0.002844  0.003602 -0.008789 -0.067534  0.081241 -0.044597  0.125154
                                -0.031854 -0.025315 -1.381280 -3.121051  1.770160 -0.000000  0.000000 -0.000000  0.000000 -0.000000
                                 0.000000 -0.000000  0.000000 -0.000000  0.000001 -0.000003  0.000007 -0.000019  0.000049 -0.000116
                                 0.000264 -0.000580  0.001273 -0.003039  0.008536 -0.024081  0.184200 -0.245284  0.159412 -3.369890
                                 3.385096 -0.114496 -0.151227 -1.356227 -1.073954  1.320557 -0.000000 -0.000000  0.000000  0.000000
                                -0.000000 -0.000000  0.000000  0.000000 -0.000001 -0.000000  0.000004  0.000001 -0.000012 -0.000002
                                 0.000032  0.000006 -0.000074 -0.000013  0.000172  0.000028 -0.000486 -0.000070  0.002241  0.000253
                                -0.008580 -0.001016  0.006776  0.001602 -0.006959 -0.001653  0.029227  0.003441 -0.022343 -0.004900
                                 0.061512  0.006849 -0.024826  0.000189 -0.130746  0.003565 -0.510632 -0.002771 -0.000035  0.019979
                                 0.000000  0.000000 -0.000002 -0.000000  0.000008  0.000000 -0.000029 -0.000001  0.000085  0.000002
                                -0.000232 -0.000005  0.000564  0.000015 -0.001792 -0.000042  0.011158  0.000249 -0.029245 -0.000604
                                 0.047605  0.001030 -0.051044 -0.001119  0.040059  0.000891 -0.055636 -0.000492 -0.025055  0.000466
                                -0.134987 -0.002336  0.023576  0.004628  0.000248  0.000053  0.000110 -0.001122  0.000322  0.000146
                                -0.008536  0.000300  0.000213  0.000000 -0.000000  0.000000 -0.000002  0.000038 -0.000034  0.003089
                                -0.050096 -0.004278  0.330383  0.004045 -0.000581  3.363330 -0.000022  0.000725  0.006044 -0.006331
                                -0.273792  0.000423  0.000019 -0.637347 -0.000607  0.000030  0.020794 -0.000195  0.000086  0.000005
                                 0.030472  0.000513 -0.001161 -0.000014 -0.002617  0.000171

                                   1 2px     1 2px     1 2px     1 2px     1 2px     1 2px     1 2px     1 2px     1 2px     1 2px  
                                   1 2px     1 2px     1 2px     1 2px     1 2px     1 2px     1 2px     1 2px     1 2px     1 2px  
                                   1 2px     1 2px     1 2px     1 2px     1 2px     1 2px     1 2px     1 2px     1 2px     1 2px  
                                   1 2px     1 3d1+    1 3d1+    1 3d1+    1 3d1+    1 3d1+    1 3d1+    1 3d1+    1 3d1+    1 3d1+ 
                                   1 3d1+    1 3d1+    1 3d1+    1 3d1+    1 3d1+    1 3d1+    1 3d1+    1 3d1+    1 3d1+    1 3d1+ 
                                   1 3d1+    1 3d1+    1 3d1+    1 4f1+    1 4f3+    1 4f1+    1 4f3+    1 4f1+    1 4f3+    1 4f1+ 
                                   1 4f3+    1 4f1+    1 4f3+    1 4f1+    1 4f3+    1 4f1+    1 4f3+    1 4f1+    1 4f3+    1 4f1+ 
                                   1 4f3+    1 4f1+    1 4f3+    1 4f1+    1 4f3+    1 4f1+    1 4f3+    1 4f1+    1 4f3+    1 4f1+ 
                                   1 4f3+    1 4f1+    1 4f3+    1 4f1+    1 4f3+    1 4f1+    1 4f3+    1 5g1+    1 5g3+    1 5g1+ 
                                   1 5g3+    1 5g1+    1 5g3+    2 2px     2 2px     2 2px     2 2px     2 2px     2 2px     2 2px  
                                   2 2px     2 3d1+    2 3d1+    2 3d1+    2 3d1+    2 4f1+    2 4f3+    2 4f1+    2 4f3+ 

   1.2   2    -2.5205  -17.0844  0.000000 -0.000000  0.000000 -0.000000  0.000000 -0.000000  0.000000 -0.000000  0.000000 -0.000000
                                 0.000001 -0.000002  0.000006 -0.000014  0.000027 -0.000028 -0.000147  0.002017 -0.019879  0.122422
                                -0.269601 -0.116566 -0.016081  0.397831 -0.066236  0.623279  0.259191  0.026710 -0.002194  0.000585
                                -0.000226  0.000000 -0.000000  0.000000 -0.000000  0.000000 -0.000001  0.000002 -0.000005  0.000011
                                -0.000025  0.000057 -0.000170  0.000700 -0.001549  0.001501 -0.000768 -0.002974  0.002147 -0.003644
                                -0.002017 -0.000786 -0.000005 -0.000000 -0.000000  0.000000  0.000000 -0.000000 -0.000000  0.000002
                                 0.000001 -0.000005 -0.000000  0.000008  0.000041 -0.000050  0.000077  0.000105  0.000158 -0.001086
                                -0.000019  0.002303  0.002104 -0.004494  0.001592  0.003878  0.004375 -0.001284  0.002519 -0.003040
                                 0.002569 -0.001318  0.000522 -0.000118 -0.000127 -0.000078  0.000051  0.000090  0.000033  0.000997
                                -0.000500 -0.000764  0.000152  0.000220  0.002213  0.006699  0.012623  0.007579  0.000112 -0.000059
                                 0.000926 -0.001568 -0.005451 -0.000070 -0.002185  0.001327  0.000084  0.001221  0.000113

   2.2   2    -0.6144  -11.1533  0.000000 -0.000000  0.000000 -0.000000  0.000000 -0.000000  0.000000 -0.000000  0.000000 -0.000000
                                 0.000000 -0.000000  0.000001 -0.000003  0.000008 -0.000021  0.000066 -0.000312  0.002300 -0.013670
                                 0.031947 -0.008778  0.027496 -0.060547  0.276196 -0.350671 -0.001070 -0.007417  0.003254  0.002839
                                -0.001490  0.000000 -0.000000  0.000000 -0.000000  0.000001 -0.000002  0.000005 -0.000010  0.000010
                                 0.000064 -0.000867  0.008747 -0.030018 -0.029569  0.027872  0.124950  0.005307  0.220023  0.185499
                                 0.038602  0.008211 -0.000695 -0.000000 -0.000000  0.000001  0.000000 -0.000006 -0.000000  0.000021
                                 0.000000 -0.000057 -0.000001  0.000246 -0.000002 -0.000215 -0.000012  0.001810  0.000001 -0.007806
                                -0.000132  0.022980  0.000067 -0.033377 -0.000571  0.046797  0.000130 -0.006478 -0.000493  0.020325
                                 0.000979 -0.013275  0.000942  0.002603 -0.000008 -0.000129  0.000041  0.001151  0.000576  0.009458
                                 0.001363  0.001379  0.001967  0.006346  0.065554  0.209143  0.346611  0.284963  0.003630 -0.001676
                                 0.016359 -0.011209 -0.044102 -0.000529 -0.042855  0.006276  0.001419  0.010055  0.001831

   3.2   0    -0.0020   -6.9391 -0.000000  0.000000 -0.000000  0.000000 -0.000000  0.000000 -0.000000  0.000000 -0.000000  0.000000
                                -0.000000  0.000001 -0.000002  0.000004 -0.000011  0.000029 -0.000095  0.000477 -0.003644  0.021884
                                -0.051458  0.019682 -0.053397  0.106840 -0.664909  0.782994  0.026204 -0.090998 -0.209646 -0.115916
                                -0.342489 -0.000000  0.000000 -0.000000  0.000000 -0.000001  0.000003 -0.000008  0.000023 -0.000063
                                 0.000220 -0.001191  0.009493 -0.033652 -0.018359  0.017534  0.132263  0.004787  0.211174  0.196047
                                 0.148148  0.105045  0.072589  0.000000 -0.000000 -0.000000  0.000000  0.000000 -0.000000 -0.000001
                                 0.000000  0.000000 -0.000001 -0.000034  0.000003 -0.000059 -0.000006 -0.000211  0.000014 -0.000193
                                -0.000087 -0.000395  0.000312 -0.000251 -0.000432 -0.004721  0.000355 -0.001266 -0.000546 -0.014625
                                -0.000253 -0.012853 -0.002776  0.000795 -0.000607 -0.005097 -0.004532 -0.000722  0.000239 -0.000916
                                -0.000358 -0.002278  0.001559 -0.002801 -0.028789 -0.092006 -0.152567 -0.167167 -0.001489  0.000742
                                -0.151114 -0.002500 -0.004879 -0.000121  0.003847  0.001318 -0.000488  0.000786 -0.000952

   4.2   0     0.0325   -3.3047  0.000000 -0.000000  0.000000 -0.000000  0.000000 -0.000000  0.000000 -0.000000  0.000000 -0.000001
                                 0.000003 -0.000009  0.000025 -0.000062  0.000149 -0.000335  0.000720 -0.001428  0.001997  0.000962
                                 0.003005 -0.231450  0.291838 -0.144520  3.449541 -3.377402  0.122339 -0.130389  0.015090 -1.206252
                                 1.527088 -0.000000  0.000000 -0.000000  0.000001 -0.000003  0.000011 -0.000031  0.000079 -0.000187
                                 0.000452 -0.001414  0.007476 -0.028004  0.011977 -0.013309  0.103506 -0.062926  0.189033  0.092560
                                 0.132772 -0.140831 -0.148142  0.000000  0.000000 -0.000001 -0.000000  0.000004  0.000000 -0.000014
                                -0.000001  0.000041  0.000004 -0.000136 -0.000011  0.000223  0.000027 -0.001010 -0.000085  0.005171
                                 0.000520 -0.014234 -0.001313  0.022852  0.002173 -0.030047 -0.002455  0.021112  0.001921 -0.028139
                                -0.001706  0.020083  0.000913 -0.073519 -0.004795 -0.079848  0.007124 -0.000342  0.000128 -0.001438
                                -0.000091  0.000489  0.000771 -0.001808 -0.019743 -0.066445 -0.102868 -0.153329 -0.001442  0.000464
                                 0.423292 -0.001647  0.000352 -0.000058 -0.007365  0.000038 -0.000366  0.001598 -0.000564

                                   1 2py     1 2py     1 2py     1 2py     1 2py     1 2py     1 2py     1 2py     1 2py     1 2py  
                                   1 2py     1 2py     1 2py     1 2py     1 2py     1 2py     1 2py     1 2py     1 2py     1 2py  
                                   1 2py     1 2py     1 2py     1 2py     1 2py     1 2py     1 2py     1 2py     1 2py     1 2py  
                                   1 2py     1 3d1-    1 3d1-    1 3d1-    1 3d1-    1 3d1-    1 3d1-    1 3d1-    1 3d1-    1 3d1- 
                                   1 3d1-    1 3d1-    1 3d1-    1 3d1-    1 3d1-    1 3d1-    1 3d1-    1 3d1-    1 3d1-    1 3d1- 
                                   1 3d1-    1 3d1-    1 3d1-    1 4f1-    1 4f3-    1 4f1-    1 4f3-    1 4f1-    1 4f3-    1 4f1- 
                                   1 4f3-    1 4f1-    1 4f3-    1 4f1-    1 4f3-    1 4f1-    1 4f3-    1 4f1-    1 4f3-    1 4f1- 
                                   1 4f3-    1 4f1-    1 4f3-    1 4f1-    1 4f3-    1 4f1-    1 4f3-    1 4f1-    1 4f3-    1 4f1- 
                                   1 4f3-    1 4f1-    1 4f3-    1 4f1-    1 4f3-    1 4f1-    1 4f3-    1 5g1-    1 5g3-    1 5g1- 
                                   1 5g3-    1 5g1-    1 5g3-    2 2py     2 2py     2 2py     2 2py     2 2py     2 2py     2 2py  
                                   2 2py     2 3d1-    2 3d1-    2 3d1-    2 3d1-    2 4f1-    2 4f3-    2 4f1-    2 4f3- 

   1.3   2    -2.5091  -17.0777  0.000000 -0.000000  0.000000 -0.000000  0.000000 -0.000000  0.000000 -0.000000  0.000000 -0.000000
                                 0.000001 -0.000002  0.000006 -0.000014  0.000028 -0.000031 -0.000139  0.001998 -0.019833  0.122345
                                -0.269654 -0.117519 -0.013712  0.396420 -0.057485  0.612450  0.261258  0.030150 -0.001281  0.000566
                                -0.000205  0.000000 -0.000000  0.000000 -0.000000  0.000000 -0.000000  0.000001 -0.000003  0.000007
                                -0.000013  0.000011  0.000159 -0.000703 -0.001146  0.001442  0.004134 -0.002422  0.007478 -0.005137
                                -0.002487 -0.000712 -0.000022 -0.000000  0.000000  0.000000 -0.000000 -0.000001  0.000000  0.000003
                                -0.000001 -0.000006  0.000002  0.000049 -0.000007  0.000026  0.000021  0.000278 -0.000082 -0.000961
                                 0.000023  0.004022  0.000101 -0.002613  0.000877  0.008256 -0.001011  0.001278 -0.000392 -0.000248
                                -0.001654 -0.000218 -0.000482 -0.000279  0.000100 -0.000000 -0.000043  0.000036  0.000061  0.000004
                                -0.000486 -0.001340  0.000163  0.000135  0.001412  0.004345  0.007815  0.003334  0.000096 -0.000035
                                 0.000647 -0.001347 -0.004066 -0.000060 -0.001171  0.001220  0.000054  0.000904  0.000064

   2.3   2    -0.6949  -11.2977  0.000000 -0.000000  0.000000 -0.000000  0.000000 -0.000000  0.000000 -0.000000  0.000000 -0.000000
                                 0.000000 -0.000000  0.000001 -0.000003  0.000007 -0.000019  0.000054 -0.000233  0.001601 -0.009294
                                 0.021492 -0.005962  0.018330 -0.038512  0.130179 -0.176928 -0.006311 -0.042717 -0.017193  0.003051
                                -0.001611  0.000000 -0.000000  0.000000 -0.000000  0.000000 -0.000001  0.000004 -0.000007  0.000004
                                 0.000083 -0.000953  0.009419 -0.032697 -0.030118  0.029089  0.135627  0.006979  0.230779  0.185636
                                 0.035308  0.004950 -0.000140 -0.000000 -0.000000  0.000001  0.000000 -0.000004 -0.000000  0.000016
                                 0.000000 -0.000043 -0.000000  0.000176 -0.000002 -0.000192 -0.000005  0.001317 -0.000002 -0.006067
                                -0.000038  0.017594 -0.000011 -0.026769 -0.000235  0.034540 -0.000121 -0.005477 -0.000222  0.005866
                                 0.000447 -0.018479  0.000476  0.001461 -0.000021 -0.000027  0.000020  0.001580  0.000386  0.009063
                                 0.001125  0.001277  0.001318  0.006753  0.070206  0.225264  0.360954  0.272476  0.003921 -0.001779
                                 0.015303 -0.009328 -0.033712 -0.000421 -0.031109  0.006275  0.001488  0.008384  0.001613

   3.3   2    -0.3582  -10.5511 -0.000000  0.000000 -0.000000  0.000000 -0.000000  0.000000 -0.000000  0.000000 -0.000000  0.000000
                                -0.000000  0.000000 -0.000001  0.000002 -0.000006  0.000017 -0.000063  0.000355 -0.002879  0.017576
                                -0.041486  0.012540 -0.038161  0.084507 -0.483054  0.578893  0.013739 -0.070711 -0.097150 -0.005950
                                -0.000081 -0.000000  0.000000 -0.000000  0.000000 -0.000002  0.000006 -0.000017  0.000045 -0.000119
                                 0.000387 -0.001958  0.015178 -0.054614 -0.024715  0.024791  0.213821 -0.000676  0.337670  0.290246
                                 0.184909  0.029905  0.004632  0.000000  0.000000 -0.000001 -0.000000  0.000003  0.000000 -0.000011
                                -0.000000  0.000028  0.000001 -0.000145 -0.000001  0.000060  0.000011 -0.001034 -0.000015  0.003456
                                -0.000004 -0.010555  0.000050  0.014935  0.000506 -0.027131 -0.000212  0.008332 -0.000025 -0.033089
                                -0.000810 -0.002380 -0.000838 -0.011900 -0.000098  0.003103 -0.000043  0.000079  0.000693  0.000254
                                 0.001124  0.001343  0.001778 -0.005572 -0.057267 -0.182854 -0.297956 -0.297002 -0.002837  0.001479
                                -0.061071 -0.002729  0.000155 -0.000130  0.015911  0.000454 -0.001044 -0.001636 -0.001336

   4.3   0     0.0252   -2.3821  0.000000 -0.000000  0.000000 -0.000000  0.000000 -0.000000  0.000000 -0.000000  0.000000 -0.000001
                                 0.000002 -0.000007  0.000019 -0.000047  0.000113 -0.000257  0.000567 -0.001263  0.003202 -0.009853
                                 0.026980 -0.176805  0.236624 -0.155797  2.808629 -2.813006  0.074361 -0.047888  0.127296 -0.773196
                                 1.377935 -0.000000  0.000000 -0.000000  0.000000 -0.000002  0.000006 -0.000018  0.000046 -0.000107
                                 0.000243 -0.000637  0.002600 -0.010260  0.012385 -0.012937  0.036118 -0.042380  0.072704  0.011891
                                 0.047636 -0.140408 -0.165576  0.000000  0.000000 -0.000001 -0.000000  0.000003  0.000000 -0.000012
                                -0.000001  0.000035  0.000004 -0.000105 -0.000010  0.000210  0.000024 -0.000796 -0.000075  0.004495
                                 0.000489 -0.012066 -0.001303  0.019526  0.001948 -0.023984 -0.002194  0.018087  0.001855 -0.017863
                                -0.000683  0.023149  0.003463 -0.058339 -0.003525 -0.048054  0.010355  0.000016  0.000107 -0.000589
                                 0.000401  0.001257  0.000029 -0.000623 -0.007364 -0.026338 -0.036826 -0.073994 -0.000712  0.000152
                                 0.354315 -0.000588  0.001857 -0.000011 -0.006028 -0.000522 -0.000148  0.000642 -0.000131

   5.3   0     0.0771   -3.3558 -0.000000  0.000000 -0.000000  0.000000 -0.000000  0.000000 -0.000000  0.000000 -0.000001  0.000002
                                -0.000006  0.000018 -0.000048  0.000122 -0.000291  0.000658 -0.001423  0.002913 -0.004999  0.004930
                                -0.021743  0.454572 -0.582427  0.313647 -6.923650  6.822727 -0.235260  0.207988 -0.237981  1.622843
                                -1.031068  0.000000 -0.000000  0.000001 -0.000003  0.000011 -0.000038  0.000110 -0.000279  0.000634
                                -0.001337  0.002689 -0.004729  0.022963 -0.105536  0.109158 -0.059748  0.282400 -0.194484  0.156180
                                -0.174487  0.368024 -0.747944  0.000000 -0.000000 -0.000001  0.000000  0.000004 -0.000000 -0.000016
                                 0.000000  0.000046 -0.000000 -0.000141  0.000000  0.000269 -0.000007 -0.001055  0.000012  0.005752
                                -0.000031 -0.015392 -0.000031  0.024320 -0.000487 -0.030237  0.000348  0.022785 -0.000324 -0.030560
                                 0.002063 -0.030433  0.005066  0.020730  0.001085  0.071821  0.011460 -0.000705  0.000186  0.002027
                                 0.000975 -0.008892 -0.000289 -0.001198 -0.012155 -0.038532 -0.065090  0.001872 -0.000530  0.000320
                                -0.267521 -0.001587 -0.003870 -0.000072 -0.051141 -0.000166 -0.000198  0.004598 -0.000232

                                   1 3d2-    1 3d2-    1 3d2-    1 3d2-    1 3d2-    1 3d2-    1 3d2-    1 3d2-    1 3d2-    1 3d2- 
                                   1 3d2-    1 3d2-    1 3d2-    1 3d2-    1 3d2-    1 3d2-    1 3d2-    1 3d2-    1 3d2-    1 3d2- 
                                   1 3d2-    1 3d2-    1 4f2-    1 4f2-    1 4f2-    1 4f2-    1 4f2-    1 4f2-    1 4f2-    1 4f2- 
                                   1 4f2-    1 4f2-    1 4f2-    1 4f2-    1 4f2-    1 4f2-    1 4f2-    1 4f2-    1 4f2-    1 5g2- 
                                   1 5g4-    1 5g2-    1 5g4-    1 5g2-    1 5g4-    2 3d2-    2 3d2-    2 3d2-    2 3d2-    2 4f2- 
                                   2 4f2- 

   1.4   +    -0.5231  -11.5894 -0.000000  0.000000 -0.000000  0.000000 -0.000002  0.000006 -0.000017  0.000046 -0.000126  0.000432
                                -0.002304  0.018267 -0.064961 -0.034154  0.032756  0.255977  0.009529  0.405546  0.350454  0.160173
                                 0.021654 -0.000665  0.000000 -0.000000  0.000000 -0.000001  0.000003 -0.000007  0.000020 -0.000068
                                 0.000474 -0.001123  0.002516 -0.003788  0.003695 -0.005299 -0.003026 -0.000236 -0.000104 -0.000430
                                 0.001713  0.000823  0.003021  0.001542  0.003978  0.002275  0.007782  0.000113  0.002814 -0.001899
                                -0.001865

   2.4   0     0.0824   -2.6255 -0.000000  0.000000 -0.000001  0.000005 -0.000019  0.000064 -0.000185  0.000470 -0.001071  0.002295
                                -0.004910  0.011567 -0.051444  0.167454 -0.173345  0.151997 -0.465624  0.407265 -0.190037  0.217042
                                -0.487282  1.264793 -0.000000  0.000001 -0.000004  0.000014 -0.000040  0.000103 -0.000271  0.000797
                                -0.005067  0.013025 -0.021446  0.023442 -0.020673  0.014715 -0.022741  0.052134 -0.099353  0.000000
                                -0.000060  0.000020 -0.000342 -0.000226  0.000207  0.000429 -0.000590  0.000001  0.005613 -0.000088
                                 0.000140

   3.4   0     0.1469   -2.5483 -0.000000  0.000000 -0.000000  0.000001 -0.000002  0.000007 -0.000021  0.000053 -0.000120  0.000258
                                -0.000559  0.001382 -0.006076  0.018578 -0.019255  0.018398 -0.052682  0.048423 -0.020258  0.025299
                                -0.052067  0.092798  0.000002 -0.000015  0.000069 -0.000247  0.000723 -0.001884  0.004886 -0.014473
                                 0.091552 -0.235478  0.385807 -0.421467  0.368012 -0.262987  0.371479 -1.008044  1.633088  0.000003
                                -0.000010  0.000056  0.000018 -0.000475 -0.000060  0.000802  0.002375  0.000027 -0.000864  0.000074
                                -0.001503

 HOMO      6.1    -0.336044 =      -9.1442eV
 LUMO      3.2    -0.002006 =      -0.0546eV
 LUMO-HOMO         0.334038 =       9.0896eV


 **********************************************************************************************************************************
 DATASETS  * FILE   NREC   LENGTH (MB)   RECORD NAMES
              1      19       22.57       500      610      700      900      950      970     1000      129      960     1100   
                                          VAR    BASINP    GEOM    SYMINP    ZMAT    AOBASIS   BASIS     P2S    ABASIS      S 
                                         1400     1410     1420     1200     1210     1080     1600     1650     1700   
                                           T        V       ECP      H0       H01     AOSYM     SMH    MOLCAS    OPER   

              2       4        4.55       700     1000      520     2100   
                                         GEOM     BASIS   MCVARS     RHF  

 PROGRAMS   *        TOTAL       RHF       INT
 CPU TIMES  *       262.80     12.12    250.39
 REAL TIME  *       276.47 SEC
 DISK USED  *        12.02 GB      
 SF USED    *         0.25 MB      
 GA USED    *         0.00 MB       (max)       0.00 MB       (current)
 **********************************************************************************************************************************


 PROGRAM * CCSD (Restricted open-shell coupled cluster)     Authors: C. Hampel, H.-J. Werner, 1991, M. Deegan, P.J. Knowles, 1992


 Convergence thresholds:  THRVAR = 1.00D-08  THRDEN = 1.00D-06

 CCSD(T)     terms to be evaluated (factor= 1.000)


 Number of closed-shell orbitals:  11 (   6   2   3   0 )
 Number of active  orbitals:        1 (   0   0   0   1 )
 Number of external orbitals:     443 ( 180 107 106  50 )

 Memory could be reduced to 445.68 Mwords without degradation in triples

 Number of N-1 electron functions:              23
 Number of N-2 electron functions:             253
 Number of singly external CSFs:              3275
 Number of doubly external CSFs:           9817564
 Total number of CSFs:                     9820839

 Molecular orbitals read from record     2100.2  Type=RHF/CANONICAL (state 1.4)

 Integral transformation finished. Total CPU:  16.35 sec, npass=  1  Memory used:  43.25 MW

 Starting RMP2 calculation

 Wavefunction is spin-projected

 ITER.      SQ.NORM     CORR.ENERGY   TOTAL ENERGY   ENERGY CHANGE        DEN1      VAR(S)    VAR(P)  DIIS     TIME
   1      1.24142553    -0.94530133  -120.30622389    -0.94530133    -0.00280538  0.64D-05  0.14D-02  1  1    19.89
   2      1.24483324    -0.94831514  -120.30923770    -0.00301381    -0.00000977  0.36D-07  0.77D-05  2  2    24.17
   3      1.24504294    -0.94841744  -120.30934000    -0.00010230    -0.00000006  0.14D-09  0.54D-07  3  3    27.84
   4      1.24505028    -0.94841887  -120.30934143    -0.00000143    -0.00000000  0.22D-11  0.25D-09  4  4    30.28
   5      1.24505030    -0.94841886  -120.30934142     0.00000001    -0.00000000  0.91D-13  0.14D-11  5  5    32.56

 Norm of t1 vector:      0.02781485      S-energy:    -0.00260195      T1 diagnostic:  0.00005205
 Norm of t2 vector:      0.49424350      P-energy:    -0.94581691
                                         Alpha-Beta:  -0.66730728
                                         Alpha-Alpha: -0.15115610
                                         Beta-Beta:   -0.12735353

 Spin contamination <S**2-Sz**2-Sz>     0.00000000
  Reference energy                   -119.360922559578
  RHF-RMP2 correlation energy          -0.948418858756
 !RHF-RMP2 energy                    -120.309341418334
 (NB above energy spin projected)

 Starting RCCSD calculation

 ITER.      SQ.NORM     CORR.ENERGY   TOTAL ENERGY   ENERGY CHANGE        DEN1      VAR(S)    VAR(P)  DIIS     TIME
   1      1.19371578    -0.85930807  -120.22023063    -0.85930807    -0.03658162  0.10D-01  0.75D-02  1  1    49.52
   2      1.21486355    -0.88760394  -120.24852650    -0.02829587    -0.00324824  0.40D-03  0.12D-02  2  2    62.17
   3      1.22478300    -0.88973816  -120.25066072    -0.00213422    -0.00063812  0.38D-03  0.17D-03  3  3    75.90
   4      1.23195503    -0.89183093  -120.25275349    -0.00209277    -0.00010926  0.43D-04  0.45D-04  4  4    88.79
   5      1.23642233    -0.89271743  -120.25363999    -0.00088650    -0.00001917  0.68D-05  0.11D-04  5  5   101.87
   6      1.23784500    -0.89284468  -120.25376724    -0.00012725    -0.00000534  0.16D-05  0.33D-05  6  6   114.49
   7      1.23856319    -0.89289415  -120.25381671    -0.00004947    -0.00000134  0.44D-06  0.75D-06  7  7   127.32
   8      1.23884709    -0.89291607  -120.25383863    -0.00002192    -0.00000027  0.94D-07  0.13D-06  8  8   140.26
   9      1.23891253    -0.89291729  -120.25383985    -0.00000122    -0.00000006  0.19D-07  0.31D-07  9  9   153.23
  10      1.23892332    -0.89291739  -120.25383995    -0.00000010    -0.00000001  0.37D-08  0.72D-08 10 10   176.32
  11      1.23892774    -0.89291865  -120.25384121    -0.00000126    -0.00000000  0.78D-09  0.22D-08 11 11   189.60
  12      1.23892820    -0.89291866  -120.25384122    -0.00000001    -0.00000000  0.33D-09  0.11D-08 12 12   203.01

 Norm of t1 vector:      0.14255449      S-energy:    -0.00278293      T1 diagnostic:  0.02022703
                                                                       D1 diagnostic:  0.05402192
 Norm of t2 vector:      0.46755366      P-energy:    -0.89013573
                                         Alpha-Beta:  -0.65699139
                                         Alpha-Alpha: -0.12643032
                                         Beta-Beta:   -0.10671402
