
 Primary working directories    : /global/cscratch1/sd/bkincaid
 Secondary working directories  : /global/cscratch1/sd/bkincaid
 Wavefunction directory         : /global/homes/b/bkincaid/wfu/
 Main file repository           : /global/cscratch1/sd/bkincaid/

 SHA1      : 19cd028119e0e09f93f0674bd8af7968d9b3eff6
 NAME      : 2015.1.36
 ARCHNAME  : linux/x86_64
 FC        : /opt/cray/pe/craype/2.5.14/bin/ftn
 BLASLIB   : -L/opt/intel/compilers_and_libraries_2018.1.163/linux/mkl/lib/intel64 -Wl,-_start-group -lmkl_intel_ilp64 -lmkl_intel_thread -lmkl_core -Wl,-_end-group -liomp5
 id        : lbl

 Nodes     nprocs
 nid00654    11
 Number of processes for MPI-2 version of Molpro:   nprocs(total)=   12   nprocs(compute)=   11   nprocs(helper)=    1

 Using customized tuning parameters: mindgm=7; mindgv=16; mindgc=1; mindgr=1; noblas=0; minvec=7
 default implementation of scratch files=sf  

 ***,Calculation for IrO groundstate
 memory,1024,m
 gthresh,twoint=1.0E-15
 gthresh,throvl=1.0E-15
 
 set,dkroll=1,dkho=10,dkhp=4
 
 basis={
 Including file /global/u1/b/bkincaid/molpro/Ir/molecules/tz/IrO/ae/1.500/Ir-dz.basis
 Including file /global/u1/b/bkincaid/molpro/Ir/molecules/tz/IrO/ae/1.500/O-aug-cc-pVDZ.basis
 }
 
 ne = 85
 
 A1=20
 B1=9
 B2=10
 A2=4
 
 do i=1,1
 z(i) = 1.500 - 0.1*(i-1)
 geometry={
 2
 IrO
 Ir 0.0 0.0 0.0
 O 0.0 0.0 z(i)
 }
 {rks,pbe0
 wf,nele=ne,spin=1,sym=4
         occ,A1,B1,B2,A2
         closed,A1,B1,B2,A2-1
 }
 pbe(i)=energy
 {rhf
 wf,nelec=ne,spin=1,sym=4
         occ,A1,B1,B2,A2
         closed,A1,B1,B2,A2-1
 }
 scf(i)=energy
                                                                                 !,_CC_NORM_MAX=2.0
                                                                                 !,{rccsd(t);maxit,100;core}
                                                                                 !,ccsd(i)=energy
 enddo
 
 table,z,pbe,scf                                                                 !,ccsd
 save
 type,csv
 

 Variables initialized (889), CPU time= 0.00 sec
 Commands  initialized (702), CPU time= 0.01 sec, 572 directives.
 Default parameters read. Elapsed time= 0.25 sec

 Checking input...
 Passed
1


                                         ***  PROGRAM SYSTEM MOLPRO  ***
                                       Copyright, TTI GmbH Stuttgart, 2015
                                    Version 2015.1 linked Dec 29 2018 15:55:43


 **********************************************************************************************************************************
 LABEL *   Calculation for IrO groundstate                                               
  64 bit mpp version                                                                     DATE: 09-Mar-21          TIME: 20:01:08  
 **********************************************************************************************************************************

 SHA1:             19cd028119e0e09f93f0674bd8af7968d9b3eff6
 **********************************************************************************************************************************

 THRESHOLDS:

 ZERO    =  1.00D-12  ONEINT  =  1.00D-12  TWOINT  =  1.00D-15  PREFAC  =  1.00D-14  LOCALI  =  1.00D-09  EORDER  =  1.00D-04
 ENERGY  =  0.00D+00  ETEST   =  0.00D+00  EDENS   =  0.00D+00  THRDEDEF=  1.00D-06  GRADIENT=  1.00D-02  STEP    =  1.00D-03
 ORBITAL =  1.00D-05  CIVEC   =  1.00D-05  COEFF   =  1.00D-04  PRINTCI =  5.00D-02  PUNCHCI =  9.90D+01  OPTGRAD =  3.00D-04
 OPTENERG=  1.00D-06  OPTSTEP =  3.00D-04  THRGRAD =  1.00D-10  COMPRESS=  1.00D-11  VARMIN  =  1.00D-07  VARMAX  =  1.00D-03
 THRDOUB =  0.00D+00  THRDIV  =  1.00D-05  THRRED  =  1.00D-07  THRPSP  =  1.00D+00  THRDC   =  1.00D-10  THRCS   =  1.00D-10
 THRNRM  =  1.00D-08  THREQ   =  0.00D+00  THRDE   =  1.00D+00  THRREF  =  1.00D-05  SPARFAC =  1.00D+00  THRDLP  =  1.00D-07
 THRDIA  =  1.00D-10  THRDLS  =  1.00D-07  THRGPS  =  0.00D+00  THRKEX  =  0.00D+00  THRDIS  =  2.00D-01  THRVAR  =  1.00D-10
 THRLOC  =  1.00D-06  THRGAP  =  1.00D-06  THRLOCT = -1.00D+00  THRGAPT = -1.00D+00  THRORB  =  1.00D-06  THRMLTP =  0.00D+00
 THRCPQCI=  1.00D-10  KEXTA   =  0.00D+00  THRCOARS=  0.00D+00  SYMTOL  =  1.00D-06  GRADTOL =  1.00D-06  THROVL  =  1.00D-08
 THRORTH =  1.00D-08  GRID    =  1.00D-06  GRIDMAX =  1.00D-03  DTMAX   =  0.00D+00  THROCCDE=  1.00D-01  THROCCDE=  1.00D-01



 THRESHOLDS:

 ZERO    =  1.00D-12  ONEINT  =  1.00D-12  TWOINT  =  1.00D-15  PREFAC  =  1.00D-14  LOCALI  =  1.00D-09  EORDER  =  1.00D-04
 ENERGY  =  0.00D+00  ETEST   =  0.00D+00  EDENS   =  0.00D+00  THRDEDEF=  1.00D-06  GRADIENT=  1.00D-02  STEP    =  1.00D-03
 ORBITAL =  1.00D-05  CIVEC   =  1.00D-05  COEFF   =  1.00D-04  PRINTCI =  5.00D-02  PUNCHCI =  9.90D+01  OPTGRAD =  3.00D-04
 OPTENERG=  1.00D-06  OPTSTEP =  3.00D-04  THRGRAD =  1.00D-10  COMPRESS=  1.00D-11  VARMIN  =  1.00D-07  VARMAX  =  1.00D-03
 THRDOUB =  0.00D+00  THRDIV  =  1.00D-05  THRRED  =  1.00D-07  THRPSP  =  1.00D+00  THRDC   =  1.00D-10  THRCS   =  1.00D-10
 THRNRM  =  1.00D-08  THREQ   =  0.00D+00  THRDE   =  1.00D+00  THRREF  =  1.00D-05  SPARFAC =  1.00D+00  THRDLP  =  1.00D-07
 THRDIA  =  1.00D-10  THRDLS  =  1.00D-07  THRGPS  =  0.00D+00  THRKEX  =  0.00D+00  THRDIS  =  2.00D-01  THRVAR  =  1.00D-10
 THRLOC  =  1.00D-06  THRGAP  =  1.00D-06  THRLOCT = -1.00D+00  THRGAPT = -1.00D+00  THRORB  =  1.00D-06  THRMLTP =  0.00D+00
 THRCPQCI=  1.00D-10  KEXTA   =  0.00D+00  THRCOARS=  0.00D+00  SYMTOL  =  1.00D-06  GRADTOL =  1.00D-06  THROVL  =  1.00D-15
 THRORTH =  1.00D-08  GRID    =  1.00D-06  GRIDMAX =  1.00D-03  DTMAX   =  0.00D+00  THROCCDE=  1.00D-01  THROCCDE=  1.00D-01


 SETTING DKROLL         =         1.00000000                                  
 SETTING DKHO           =        10.00000000                                  
 SETTING DKHP           =         4.00000000                                  

 Variable memory set to 1024000000 words,  buffer space   230000 words

 SETTING BASIS          =    USERDEF
 SETTING NE             =        85.00000000                                  
 SETTING A1             =        20.00000000                                  
 SETTING B1             =         9.00000000                                  
 SETTING B2             =        10.00000000                                  
 SETTING A2             =         4.00000000                                  

 DO I                   =         1.00000000   
 SETTING Z(1)           =         1.50000000                                  

Geometry recognized as XYZ



 Recomputing integrals since basis changed


 Using spherical harmonics



 PROGRAM * SEWARD (Integral evaluation for generally contracted gaussian basis sets)     Author: Roland Lindh, 1990

 Geometry written to block  1 of record 700


 Point group  C2v 



 ATOMIC COORDINATES

 NR  ATOM    CHARGE       X              Y              Z

   1  IR     77.00    0.000000000    0.000000000    0.000000000
   2  O       8.00    0.000000000    0.000000000    2.834589187

 Bond lengths in Bohr (Angstrom)

 1-2  2.834589187
     ( 1.500000000)

 NUCLEAR CHARGE:                   85
 NUMBER OF PRIMITIVE AOS:         151
 NUMBER OF SYMMETRY AOS:          136
 NUMBER OF CONTRACTIONS:           76   (  32A1  +  18B1  +  18B2  +   8A2  )
 NUMBER OF CORE ORBITALS:          35   (  16A1  +   8B1  +   8B2  +   3A2  )
 NUMBER OF VALENCE ORBITALS:        9   (   4A1  +   2B1  +   2B2  +   1A2  )


 NUCLEAR REPULSION ENERGY  217.31544128

 One-electron integrals computed with SEWARD

 10nd-order Douglas-Kroll-Hess method activated. McWeeny DKH parametrization is used.

 Computing Douglas-Kroll / X2C integrals

 AO integral compression algorithm  1   Integral accuracy      1.0D-15

     11.796 MB (compressed) written to integral file (100.0%)

     Node minimum: 0.524 MB, node maximum: 1.573 MB


 NUMBER OF SORTED TWO-ELECTRON INTEGRALS:     102879.     BUFFER LENGTH:  32768
 NUMBER OF SEGMENTS:   1  SEGMENT LENGTH:     102879      RECORD LENGTH: 524288

 Memory used in sort:       0.66 MW

 SORT1 READ     1462641. AND WROTE       77401. INTEGRALS IN      1 RECORDS. CPU TIME:     0.05 SEC, REAL TIME:     0.07 SEC
 SORT2 READ      844932. AND WROTE     1141977. INTEGRALS IN     44 RECORDS. CPU TIME:     0.00 SEC, REAL TIME:     0.01 SEC

 Node minimum:      100827.  Node maximum:      107166. integrals

 OPERATOR DM      FOR CENTER  0  COORDINATES:    0.000000    0.000000    0.000000

 EXTRA SYMMETRY OF AOS IN SYMMETRY 1:   1 1 1 1 1 1 1 1 1 1   1 2 1 2 1 2 1 2 1 2   1 2 1 1 1 1 1 1 1 2   1 2
 EXTRA SYMMETRY OF AOS IN SYMMETRY 2:   1 1 1 1 1 1 1 1 1 1   2 1 2 1 1 1 1 1
 EXTRA SYMMETRY OF AOS IN SYMMETRY 3:   1 1 1 1 1 1 1 1 1 1   2 1 2 1 1 1 1 1

 Eigenvalues of metric

         1 0.185E-02 0.445E-02 0.816E-02 0.121E-01 0.451E-01 0.512E-01 0.667E-01 0.117E+00
         2 0.124E-01 0.312E-01 0.562E-01 0.115E+00 0.169E+00 0.290E+00 0.309E+00 0.357E+00
         3 0.124E-01 0.312E-01 0.562E-01 0.115E+00 0.169E+00 0.290E+00 0.309E+00 0.357E+00
         4 0.135E+00 0.217E+00 0.378E+00 0.549E+00 0.127E+01 0.152E+01 0.177E+01 0.216E+01


 **********************************************************************************************************************************
 DATASETS  * FILE   NREC   LENGTH (MB)   RECORD NAMES
              1      22       20.09       500      610      700      900      950      970     1000      129      960     1700   
                                          VAR    BASINP    GEOM    SYMINP    ZMAT    AOBASIS   BASIS     P2S    ABASIS    OPER   
                                         1101     1401     1411     1412     1650     1100     1400     1410     1200     1210   
                                          SR      EKINR    POTR     PVPR    MOLCAS      S      EKIN      POT      H0       H01  
                                         1080     1600   
                                         AOSYM     SMH  

 PROGRAMS   *        TOTAL       INT
 CPU TIMES  *         1.12      0.86
 REAL TIME  *         2.27 SEC
 DISK USED  *        54.16 MB      
 GA USED    *         0.00 MB       (max)       0.00 MB       (current)
 **********************************************************************************************************************************

 Density functional group PBE0=PBEX+PBEC
 Functional: PBEX(Automatically generated (new) PBEX)                          Gradient terms: 1
 Functional: PBEC(Automatically generated (new) PBEC)                          Gradient terms: 1
 Use grid at  1800.2
 

 Exact exchange will be calculated, factor:  0.2500

 Functional: PBEX                      Factor:  0.7500
 Functional: PBEC                      Factor:  1.0000
 
 Generated new metagrid on record  1800.2 with target accuracy 1.0D-06 and 5698 points in CPU time    0.1
 Computed new grid on record 1800.1 in CPU time    0.1
   64630 words reserved for DFT integration

 PROGRAM * RKS-SCF (Restricted open shell Kohn-Sham)     Authors: W. Meyer, H.-J. Werner, P.J. Knowles, 1993

 NUMBER OF ELECTRONS:      43+   42-    SPACE SYMMETRY=4    SPIN SYMMETRY: Doublet 
 CONVERGENCE THRESHOLDS:    1.00E-05 (Density)    1.70E-06 (Energy)
 MAX. NUMBER OF ITERATIONS:       60
 INTERPOLATION TYPE:            DIIS
 INTERPOLATION STEPS:              2 (START)      1 (STEP)
 LEVEL SHIFTS:                 -0.60 (CLOSED) -0.30 (OPEN) 

 Number of closed-shell orbitals:   42 (  20   9  10   3 )
 Number of open-shell orbitals:      1 (   0   0   0   1 )


 Use fine grid record 1800.2 for energy threshold  1.0D-06
 Orbital guess generated from atomic densities. Full valence occupancy:   20  10  10   4

 Molecular orbital dump at record        2100.2

 ITERATION    DDIFF          GRAD             ENERGY        2-EL.EN.            DIPOLE MOMENTS         DIIS   ORB.
    1      0.000D+00      0.000D+00     -2434.59867401   3082.107454    0.00000    0.00000  -14.78742    0    start
    2      0.000D+00      0.176D+00     -2426.48847154   2792.118637    0.00000    0.00000   41.63839    1    diag,B
    3      0.526D+01      0.247D+00     -2450.61040884   2932.667066    0.00000    0.00000    4.41830    2    diag,B
    4      0.414D+01      0.248D-01     -2450.84570707   2938.228756    0.00000    0.00000    1.69909    3    diag,B
    5      0.599D+00      0.470D-02     -2450.86481943   2939.626583    0.00000    0.00000    1.23572    4    diag,B
    6      0.142D+00      0.192D-02     -2450.87152372   2940.130568    0.00000    0.00000    1.20311    5    diag,B
    7      0.466D-01      0.106D-02     -2450.87504585   2940.643938    0.00000    0.00000    1.23551    6    fixocc
    8      0.419D-01      0.408D-03     -2450.87565483   2940.910911    0.00000    0.00000    1.25510    7    diag,B
    9      0.181D-01      0.200D-03     -2450.87580478   2940.954072    0.00000    0.00000    1.27361    8    diag,B
   10      0.706D-02      0.137D-03     -2450.87591527   2940.964327    0.00000    0.00000    1.28761    9    orth
   11      0.605D-02      0.951D-04     -2450.87599384   2940.956197    0.00000    0.00000    1.29651    9    diag,B
   12      0.695D-02      0.508D-04     -2450.87601282   2940.949864    0.00000    0.00000    1.29947    9    diag,B
   13      0.370D-02      0.295D-04     -2450.87601927   2940.938948    0.00000    0.00000    1.30042    9    diag,B
   14      0.242D-02      0.126D-04     -2450.87602010   2940.935658    0.00000    0.00000    1.29965    9    diag,B
   15      0.651D-03      0.591D-05     -2450.87602023   2940.933995    0.00000    0.00000    1.29956    9    diag,B
   16      0.144D-03      0.332D-05     -2450.87602027   2940.933437    0.00000    0.00000    1.29917    9    diag,B
   17      0.136D-03      0.129D-05     -2450.87602028   2940.933268    0.00000    0.00000    1.29907    9    diag,B
   18      0.642D-04      0.586D-06     -2450.87602028   2940.933060    0.00000    0.00000    1.29904    9    diag,B
   19      0.282D-04      0.235D-06     -2450.87602028   2940.933010    0.00000    0.00000    1.29904    9    diag,B
   20      0.575D-05      0.147D-06     -2450.87602028   2940.933017    0.00000    0.00000    1.29904    0    orth

 Final alpha occupancy:  20   9  10   4
 Final beta  occupancy:  20   9  10   3

 !RKS STATE 1.4 Energy              -2450.876020277253
 Nuclear energy                       217.31544128
 One-electron energy                -4093.06456891
 Two-electron energy                 1470.46650842
 Density functional                   -45.59340107     PBEX=-54.74845501 PBEC= -4.53205982
 Virial quotient                      -10.09303329
 !RKS STATE 1.4 Dipole moment           0.00000000     0.00000000     1.29904379
 Dipole moment /Debye                   0.00000000     0.00000000     3.30162373

 Orbital energies:

         1.1          2.1          3.1          4.1          5.1          6.1          7.1          8.1          9.1         10.1
   -161.733251   -45.605019   -37.894997   -26.373727   -25.551754   -13.691901   -10.943518   -10.518320    -8.377724    -5.538713

        11.1         12.1         13.1         14.1         15.1         16.1         17.1         18.1         19.1         20.1
     -4.013675    -3.961682    -2.727831    -2.342075    -1.241704    -1.187687    -0.886458    -0.620824    -0.266929    -0.218520

        21.1         22.1
     -0.113274    -0.037887

         1.2          2.2          3.2          4.2          5.2          6.2          7.2          8.2          9.2         10.2
    -36.615669   -25.829335   -10.723307   -10.486106    -7.449970    -4.255247    -2.687489    -1.155948    -1.149331    -0.908299

        11.2
     -0.409495

         1.3          2.3          3.3          4.3          5.3          6.3          7.3          8.3          9.3         10.3
    -36.605218   -25.818439   -10.706118   -10.486035    -7.418836    -4.223440    -2.673511    -1.160281    -1.113283    -0.924750

        11.3         12.3
     -0.392343    -0.205566

         1.4          2.4          3.4          4.4          5.4          6.4
    -25.555398   -10.526249    -3.990035    -1.231378    -0.229564    -0.010953

 HOMO     20.1    -0.218520 =      -5.9462eV
 LUMO     10.2    -0.908299 =     -24.7161eV
 LUMO-HOMO        -0.689779 =     -18.7698eV


 **********************************************************************************************************************************
 DATASETS  * FILE   NREC   LENGTH (MB)   RECORD NAMES
              1      23       20.09       500      610      700      900      950      970     1000      129      960     1700   
                                          VAR    BASINP    GEOM    SYMINP    ZMAT    AOBASIS   BASIS     P2S    ABASIS    OPER   
                                         1101     1401     1411     1412     1650     1100     1400     1410     1200     1210   
                                          SR      EKINR    POTR     PVPR    MOLCAS      S      EKIN      POT      H0       H01  
                                         1080     1600     1800   
                                         AOSYM     SMH     GRID   

              2       5        2.83       700     1000      520     1800     2100   
                                         GEOM     BASIS   MCVARS    GRID      RKS  

 PROGRAMS   *        TOTAL       RKS       INT
 CPU TIMES  *         1.47      0.35      0.86
 REAL TIME  *         2.89 SEC
 DISK USED  *       309.64 MB      
 SF USED    *         0.01 MB      
 GA USED    *         0.25 MB       (max)       0.25 MB       (current)
 **********************************************************************************************************************************
 SETTING PBE(1)         =     -2450.87602028  AU                              


 PROGRAM * RHF-SCF (OPEN SHELL)       Authors: W. Meyer, H.-J. Werner


 NUMBER OF ELECTRONS:      43+   42-    SPACE SYMMETRY=4    SPIN SYMMETRY: Doublet 
 CONVERGENCE THRESHOLDS:    1.00E-05 (Density)    1.70E-07 (Energy)
 MAX. NUMBER OF ITERATIONS:       60
 INTERPOLATION TYPE:            DIIS
 INTERPOLATION STEPS:              2 (START)      1 (STEP)
 LEVEL SHIFTS:                 -0.60 (CLOSED) -0.30 (OPEN) 

 Number of closed-shell orbitals:   42 (  20   9  10   3 )
 Number of open-shell orbitals:      1 (   0   0   0   1 )


 Molecular orbitals read from record     2100.2  Type=RKS/CANONICAL (state 1.4)

 Molecular orbital dump at record        2101.2

 ITERATION    DDIFF          GRAD             ENERGY        2-EL.EN.            DIPOLE MOMENTS         DIIS   ORB.
    1      0.000D+00      0.000D+00     -2445.02603848   2861.446178    0.00000    0.00000    1.29904    0    start
    2      0.000D+00      0.889D-02     -2445.04564754   2860.428311    0.00000    0.00000    1.58300    1    diag,B
    3      0.194D+00      0.226D-02     -2445.05046186   2860.104309    0.00000    0.00000    1.54824    2    diag,B
    4      0.500D-01      0.118D-02     -2445.05313869   2859.759943    0.00000    0.00000    1.53449    3    diag,B
    5      0.358D-01      0.743D-03     -2445.05494049   2859.463454    0.00000    0.00000    1.49067    4    diag,B
    6      0.432D-01      0.354D-03     -2445.05536109   2859.358786    0.00000    0.00000    1.48045    5    diag,B
    7      0.218D-01      0.172D-03     -2445.05546640   2859.332415    0.00000    0.00000    1.47749    6    diag,B
    8      0.115D-01      0.919D-04     -2445.05549876   2859.320271    0.00000    0.00000    1.48263    7    orth
    9      0.603D-02      0.459D-04     -2445.05550777   2859.313632    0.00000    0.00000    1.48652    8    diag,B
   10      0.343D-02      0.228D-04     -2445.05550998   2859.312591    0.00000    0.00000    1.48787    9    diag,B
   11      0.111D-02      0.153D-04     -2445.05551123   2859.310134    0.00000    0.00000    1.48831    9    diag,B
   12      0.650D-03      0.105D-04     -2445.05551201   2859.306433    0.00000    0.00000    1.48830    9    diag,B
   13      0.600D-03      0.645D-05     -2445.05551232   2859.303352    0.00000    0.00000    1.48787    9    diag,B
   14      0.432D-03      0.375D-05     -2445.05551242   2859.301551    0.00000    0.00000    1.48756    9    diag,B
   15      0.253D-03      0.216D-05     -2445.05551245   2859.301151    0.00000    0.00000    1.48739    9    diag,B
   16      0.139D-03      0.109D-05     -2445.05551245   2859.301189    0.00000    0.00000    1.48737    9    diag,B
   17      0.615D-04      0.503D-06     -2445.05551245   2859.301226    0.00000    0.00000    1.48739    9    diag,B
   18      0.196D-04      0.282D-06     -2445.05551245   2859.301194    0.00000    0.00000    1.48741    9    orth
   19      0.122D-04      0.143D-06     -2445.05551245   2859.301182    0.00000    0.00000    1.48741    9    diag,B
   20      0.637D-05      0.770D-07     -2445.05551245   2859.301187    0.00000    0.00000    1.48741    0    orth

 Final alpha occupancy:  20   9  10   4
 Final beta  occupancy:  20   9  10   3

 !RHF STATE 1.4 Energy              -2445.055512451891
 Nuclear energy                       217.31544128
 One-electron energy                -4092.02154723
 Two-electron energy                 1429.65059349
 Virial quotient                      -10.09100824
 !RHF STATE 1.4 Dipole moment           0.00000000     0.00000000     1.48741271
 Dipole moment /Debye                   0.00000000     0.00000000     3.78037839

 Orbital energies:

         1.1          2.1          3.1          4.1          5.1          6.1          7.1          8.1          9.1         10.1
   -162.173585   -46.203312   -38.448134   -26.759572   -25.930583   -14.056405   -11.117967   -10.680590    -8.718542    -5.976242

        11.1         12.1         13.1         14.1         15.1         16.1         17.1         18.1         19.1         20.1
     -4.242492    -4.177802    -3.010232    -2.610417    -1.312027    -1.253417    -0.983033    -0.692382    -0.290070    -0.250164

        21.1         22.1
     -0.020294     0.028498

         1.2          2.2          3.2          4.2          5.2          6.2          7.2          8.2          9.2         10.2
    -37.173016   -26.212224   -10.889317   -10.637317    -7.774194    -4.468403    -3.005573    -1.202861    -1.186908    -0.818587

        11.2
     -0.229441

         1.3          2.3          3.3          4.3          5.3          6.3          7.3          8.3          9.3         10.3
    -37.164826   -26.204044   -10.874365   -10.637247    -7.749595    -4.451055    -3.003722    -1.197302    -1.172270    -1.024569

        11.3         12.3
     -0.247593    -0.051355

         1.4          2.4          3.4          4.4          5.4          6.4
    -25.932947   -10.687766    -4.186791    -1.273803    -0.105179     0.113098

 HOMO     20.1    -0.250164 =      -6.8073eV
 LUMO     10.2    -0.818587 =     -22.2749eV
 LUMO-HOMO        -0.568423 =     -15.4676eV


 **********************************************************************************************************************************
 DATASETS  * FILE   NREC   LENGTH (MB)   RECORD NAMES
              1      23       20.09       500      610      700      900      950      970     1000      129      960     1700   
                                          VAR    BASINP    GEOM    SYMINP    ZMAT    AOBASIS   BASIS     P2S    ABASIS    OPER   
                                         1101     1401     1411     1412     1650     1100     1400     1410     1200     1210   
                                          SR      EKINR    POTR     PVPR    MOLCAS      S      EKIN      POT      H0       H01  
                                         1080     1600     1800   
                                         AOSYM     SMH     GRID   

              2       6        5.39       700     1000      520     1800     2100     2101   
                                         GEOM     BASIS   MCVARS    GRID      RKS      RHF  

 PROGRAMS   *        TOTAL       RHF       RKS       INT
 CPU TIMES  *         1.69      0.22      0.35      0.86
 REAL TIME  *         3.29 SEC
 DISK USED  *       337.84 MB      
 SF USED    *         0.01 MB      
 GA USED    *         0.25 MB       (max)       0.25 MB       (current)
 **********************************************************************************************************************************
 SETTING SCF(1)         =     -2445.05551245  AU                              
 Output type csv         
                                                                                                                                                                                                                                                                

     Z,PBE,SCF
   1.5,   -2450.876020,   -2445.055512
                                                  

 RHF/USERDEF energy=  -2445.055512451891

        RHF-SCF         RKS-SCF 
  -2445.05551245  -2450.87602028
 **********************************************************************************************************************************
 Molpro calculation terminated
 Variable memory released
