
 Primary working directories    : /global/cscratch1/sd/bkincaid
 Secondary working directories  : /global/cscratch1/sd/bkincaid
 Wavefunction directory         : /global/homes/b/bkincaid/wfu/
 Main file repository           : /global/cscratch1/sd/bkincaid/

 SHA1      : 19cd028119e0e09f93f0674bd8af7968d9b3eff6
 NAME      : 2015.1.36
 ARCHNAME  : linux/x86_64
 FC        : /opt/cray/pe/craype/2.5.14/bin/ftn
 BLASLIB   : -L/opt/intel/compilers_and_libraries_2018.1.163/linux/mkl/lib/intel64 -Wl,-_start-group -lmkl_intel_ilp64 -lmkl_intel_thread -lmkl_core -Wl,-_end-group -liomp5
 id        : lbl

 Nodes     nprocs
 nid01008    11
 Number of processes for MPI-2 version of Molpro:   nprocs(total)=   12   nprocs(compute)=   11   nprocs(helper)=    1

 Using customized tuning parameters: mindgm=7; mindgv=16; mindgc=1; mindgr=1; noblas=0; minvec=7
 default implementation of scratch files=sf  

 ***,Calculation for IrO groundstate
 memory,1024,m
 gthresh,twoint=1.0E-15
 gthresh,throvl=1.0E-15
                                                                                 !symmetry,nosym
 
 basis={
 Including file /global/u1/b/bkincaid/molpro/Ir/molecules/tz/IrO/ecps/CRENBL/crenbl
 
 Including file /global/u1/b/bkincaid/molpro/Ir/molecules/tz/IrO/ecps/CRENBL/tz.basis
 
 ecp,O,2,1,0
 3
 1,  12.30997,  6.000000
 3,  14.76962,  73.85984
 2,  13.71419, -47.87600
 1
 2,  13.65512,  85.86406
 
 Including file /global/u1/b/bkincaid/molpro/Ir/molecules/tz/IrO/ecps/CRENBL/O-aug-cc-CVTZ.basis
 }
 
 ne = 23
 
 A1=6
 B1=2
 B2=3
 A2=1
 
 
 do i=1,1
         if(i.eq.1) then
                 z(i) = 1.500
         else if(i.eq.2) then
                 z(i) = 1.600
         else if(i.eq.3) then
                 z(i) = 1.700
         else if(i.eq.4) then
                 z(i) = 1.800
         else if(i.eq.5) then
                 z(i) = 1.900
         endif
 
 geometry={
 2
 IrO
 Ir 0.0 0.0 0.0
 O 0.0 0.0 z(i)
 }
 
 
 {rhf,maxdis=25,iptyp='DIIS',nitord=30,maxit=60; shift,-1.0,-0.5
 wf,nelec=ne,spin=1,sym=4
 occ,A1,B1,B2,A2
 closed,A1,B1,B2,A2-1
 print,orbitals=2
         }
 {rccsd(t),shifts=0.2,shiftp=0.2,thrdis=1.0;diis,1,1,15,1;maxit,100;core}
 
 enddo
 
 table,z,scf,ccsd
 save
 type,csv
 

 Variables initialized (889), CPU time= 0.01 sec
 Commands  initialized (702), CPU time= 0.01 sec, 572 directives.
 Default parameters read. Elapsed time= 0.13 sec

 Checking input...
 Passed
1


                                         ***  PROGRAM SYSTEM MOLPRO  ***
                                       Copyright, TTI GmbH Stuttgart, 2015
                                    Version 2015.1 linked Dec 29 2018 15:55:43


 **********************************************************************************************************************************
 LABEL *   Calculation for IrO groundstate                                               
  64 bit mpp version                                                                     DATE: 09-Mar-21          TIME: 15:39:02  
 **********************************************************************************************************************************

 SHA1:             19cd028119e0e09f93f0674bd8af7968d9b3eff6
 **********************************************************************************************************************************

 THRESHOLDS:

 ZERO    =  1.00D-12  ONEINT  =  1.00D-12  TWOINT  =  1.00D-15  PREFAC  =  1.00D-14  LOCALI  =  1.00D-09  EORDER  =  1.00D-04
 ENERGY  =  0.00D+00  ETEST   =  0.00D+00  EDENS   =  0.00D+00  THRDEDEF=  1.00D-06  GRADIENT=  1.00D-02  STEP    =  1.00D-03
 ORBITAL =  1.00D-05  CIVEC   =  1.00D-05  COEFF   =  1.00D-04  PRINTCI =  5.00D-02  PUNCHCI =  9.90D+01  OPTGRAD =  3.00D-04
 OPTENERG=  1.00D-06  OPTSTEP =  3.00D-04  THRGRAD =  1.00D-10  COMPRESS=  1.00D-11  VARMIN  =  1.00D-07  VARMAX  =  1.00D-03
 THRDOUB =  0.00D+00  THRDIV  =  1.00D-05  THRRED  =  1.00D-07  THRPSP  =  1.00D+00  THRDC   =  1.00D-10  THRCS   =  1.00D-10
 THRNRM  =  1.00D-08  THREQ   =  0.00D+00  THRDE   =  1.00D+00  THRREF  =  1.00D-05  SPARFAC =  1.00D+00  THRDLP  =  1.00D-07
 THRDIA  =  1.00D-10  THRDLS  =  1.00D-07  THRGPS  =  0.00D+00  THRKEX  =  0.00D+00  THRDIS  =  2.00D-01  THRVAR  =  1.00D-10
 THRLOC  =  1.00D-06  THRGAP  =  1.00D-06  THRLOCT = -1.00D+00  THRGAPT = -1.00D+00  THRORB  =  1.00D-06  THRMLTP =  0.00D+00
 THRCPQCI=  1.00D-10  KEXTA   =  0.00D+00  THRCOARS=  0.00D+00  SYMTOL  =  1.00D-06  GRADTOL =  1.00D-06  THROVL  =  1.00D-08
 THRORTH =  1.00D-08  GRID    =  1.00D-06  GRIDMAX =  1.00D-03  DTMAX   =  0.00D+00  THROCCDE=  1.00D-01  THROCCDE=  1.00D-01



 THRESHOLDS:

 ZERO    =  1.00D-12  ONEINT  =  1.00D-12  TWOINT  =  1.00D-15  PREFAC  =  1.00D-14  LOCALI  =  1.00D-09  EORDER  =  1.00D-04
 ENERGY  =  0.00D+00  ETEST   =  0.00D+00  EDENS   =  0.00D+00  THRDEDEF=  1.00D-06  GRADIENT=  1.00D-02  STEP    =  1.00D-03
 ORBITAL =  1.00D-05  CIVEC   =  1.00D-05  COEFF   =  1.00D-04  PRINTCI =  5.00D-02  PUNCHCI =  9.90D+01  OPTGRAD =  3.00D-04
 OPTENERG=  1.00D-06  OPTSTEP =  3.00D-04  THRGRAD =  1.00D-10  COMPRESS=  1.00D-11  VARMIN  =  1.00D-07  VARMAX  =  1.00D-03
 THRDOUB =  0.00D+00  THRDIV  =  1.00D-05  THRRED  =  1.00D-07  THRPSP  =  1.00D+00  THRDC   =  1.00D-10  THRCS   =  1.00D-10
 THRNRM  =  1.00D-08  THREQ   =  0.00D+00  THRDE   =  1.00D+00  THRREF  =  1.00D-05  SPARFAC =  1.00D+00  THRDLP  =  1.00D-07
 THRDIA  =  1.00D-10  THRDLS  =  1.00D-07  THRGPS  =  0.00D+00  THRKEX  =  0.00D+00  THRDIS  =  2.00D-01  THRVAR  =  1.00D-10
 THRLOC  =  1.00D-06  THRGAP  =  1.00D-06  THRLOCT = -1.00D+00  THRGAPT = -1.00D+00  THRORB  =  1.00D-06  THRMLTP =  0.00D+00
 THRCPQCI=  1.00D-10  KEXTA   =  0.00D+00  THRCOARS=  0.00D+00  SYMTOL  =  1.00D-06  GRADTOL =  1.00D-06  THROVL  =  1.00D-15
 THRORTH =  1.00D-08  GRID    =  1.00D-06  GRIDMAX =  1.00D-03  DTMAX   =  0.00D+00  THROCCDE=  1.00D-01  THROCCDE=  1.00D-01



 Variable memory set to 1024000000 words,  buffer space   230000 words

 SETTING BASIS          =    USERDEF
 SETTING NE             =        23.00000000                                  
 SETTING A1             =         6.00000000                                  
 SETTING B1             =         2.00000000                                  
 SETTING B2             =         3.00000000                                  
 SETTING A2             =         1.00000000                                  

 DO I                   =         1.00000000   
 SETTING Z(1)           =         1.50000000                                  

Geometry recognized as XYZ



 Recomputing integrals since basis changed


 Using spherical harmonics



 PROGRAM * SEWARD (Integral evaluation for generally contracted gaussian basis sets)     Author: Roland Lindh, 1990

 Geometry written to block  1 of record 700


 Point group  C2v 



 ATOMIC COORDINATES

 NR  ATOM    CHARGE       X              Y              Z

   1  IR     17.00    0.000000000    0.000000000    0.000000000
   2  O       6.00    0.000000000    0.000000000    2.834589187

 Bond lengths in Bohr (Angstrom)

 1-2  2.834589187
     ( 1.500000000)

 NUCLEAR CHARGE:                   23
 NUMBER OF PRIMITIVE AOS:         556
 NUMBER OF SYMMETRY AOS:          455
 NUMBER OF CONTRACTIONS:          455   ( 186A1  + 109B1  + 109B2  +  51A2  )
 NUMBER OF CORE ORBITALS:           4   (   2A1  +   1B1  +   1B2  +   0A2  )
 NUMBER OF VALENCE ORBITALS:       10   (   5A1  +   2B1  +   2B2  +   1A2  )


 NUCLEAR REPULSION ENERGY   35.98405034

 EXTRA SYMMETRY OF AOS IN SYMMETRY 1:   1 1 1 1 1 1 1 1 1 1   1 1 1 1 1 1 1 1 1 1   1 1 1 1 1 1 1 1 1 1   1 1 1 1 1 1 1 1 1 1
                                        1 1 1 1 1 1 1 1 1 1   1 1 1 1 1 1 1 1 1 1   1 1 1 1 1 1 1 2 1 2   1 2 1 2 1 2 1 2 1 2
                                        1 2 1 2 1 2 1 2 1 2   1 2 1 2 1 2 1 2 1 2   1 2 1 2 1 2 1 2 1 2   1 2 1 2 1 2 1 2 1 2
                                        1 2 1 2 1 2 1 2 1 2   1 2 1 2 1 2 1 2 1 2   1 2 1 2 1 3 2 1 3 2   1 3 2 1 1 1 1 1 1 1
                                        1 1 1 1 1 1 1 1 1 1   1 1 1 1 1 2 1 2 1 2   1 2 1 2 1 2
 EXTRA SYMMETRY OF AOS IN SYMMETRY 2:   1 1 1 1 1 1 1 1 1 1   1 1 1 1 1 1 1 1 1 1   1 1 1 1 1 1 1 1 1 1   1 1 1 1 1 1 1 1 1 1
                                        1 1 1 1 1 1 1 1 1 1   1 1 1 1 2 1 2 1 2 1   2 1 2 1 2 1 2 1 2 1   2 1 2 1 2 1 2 1 2 1
                                        2 1 2 1 2 1 2 1 2 1   2 1 2 1 1 1 1 1 1 1   1 1 1 1 1 1 2 1 2
 EXTRA SYMMETRY OF AOS IN SYMMETRY 3:   1 1 1 1 1 1 1 1 1 1   1 1 1 1 1 1 1 1 1 1   1 1 1 1 1 1 1 1 1 1   1 1 1 1 1 1 1 1 1 1
                                        1 1 1 1 1 1 1 1 1 1   1 1 1 1 2 1 2 1 2 1   2 1 2 1 2 1 2 1 2 1   2 1 2 1 2 1 2 1 2 1
                                        2 1 2 1 2 1 2 1 2 1   2 1 2 1 1 1 1 1 1 1   1 1 1 1 1 1 2 1 2
 EXTRA SYMMETRY OF AOS IN SYMMETRY 4:   1 1 1 1 1 1 1 1 1 1   1 1 1 1 1 1 1 1 1 1   1 1 1 1 1 1 1 1 1 1   1 1 1 1 1 1 1 1 1 1
                                        2 1 2 1 2 1 1 1 1 1   1

 Eigenvalues of metric

         1 0.666E-07 0.913E-06 0.334E-05 0.942E-05 0.155E-04 0.157E-04 0.247E-04 0.409E-04
         2 0.898E-07 0.370E-05 0.152E-04 0.517E-04 0.539E-04 0.125E-03 0.139E-03 0.432E-03
         3 0.898E-07 0.370E-05 0.152E-04 0.517E-04 0.539E-04 0.125E-03 0.139E-03 0.432E-03
         4 0.155E-04 0.538E-04 0.146E-03 0.607E-03 0.970E-03 0.207E-02 0.546E-02 0.578E-02


 Contracted 2-electron integrals neglected if value below      1.0D-15

 Warning: maximum contribution to expansion of semi-local PP integrals   0.9D+12

 AO integral compression algorithm  1   Integral accuracy      1.0D-15

     4915.724 MB (compressed) written to integral file ( 38.4%)

     Node minimum: 274.465 MB, node maximum: 913.834 MB


 NUMBER OF SORTED TWO-ELECTRON INTEGRALS:  125132898.     BUFFER LENGTH:  32768
 NUMBER OF SEGMENTS:   4  SEGMENT LENGTH:   31982049      RECORD LENGTH: 524288

 Memory used in sort:      32.54 MW

 SORT1 READ  1600176772. AND WROTE    49745475. INTEGRALS IN    144 RECORDS. CPU TIME:    26.93 SEC, REAL TIME:    35.15 SEC
 SORT2 READ   545769643. AND WROTE  1376419418. INTEGRALS IN  23430 RECORDS. CPU TIME:     2.55 SEC, REAL TIME:     5.05 SEC

 Node minimum:   125060912.  Node maximum:   125200036. integrals

 OPERATOR DM      FOR CENTER  0  COORDINATES:    0.000000    0.000000    0.000000


 **********************************************************************************************************************************
 DATASETS  * FILE   NREC   LENGTH (MB)   RECORD NAMES
              1      19       22.50       500      610      700      900      950      970     1000      129      960     1100   
                                          VAR    BASINP    GEOM    SYMINP    ZMAT    AOBASIS   BASIS     P2S    ABASIS      S 
                                         1400     1410     1420     1200     1210     1080     1600     1650     1700   
                                           T        V       ECP      H0       H01     AOSYM     SMH    MOLCAS    OPER   

 PROGRAMS   *        TOTAL       INT
 CPU TIMES  *       209.71    209.44
 REAL TIME  *       222.30 SEC
 DISK USED  *        11.44 GB      
 GA USED    *         0.00 MB       (max)       0.00 MB       (current)
 **********************************************************************************************************************************
    8      0.740D-03      0.102D-03      -119.57557614    244.395798    0.00000    0.00000   -0.90583    7    diag,B
    9      0.587D-03      0.581D-04      -119.57561108    244.371195    0.00000    0.00000   -0.89192    8    diag,B
 Molecular orbital dump at record        2100.2
    2      0.000D+00      0.536D-02      -119.56482914    245.027724    0.00000    0.00000   -1.18917    1    diag,B
    3      0.153D-01      0.155D-02      -119.56976303    244.969582    0.00000    0.00000   -1.15515    2    diag,B
    4      0.321D-02      0.828D-03      -119.57233719    244.848015    0.00000    0.00000   -1.07710    3    diag,B
    5      0.255D-02      0.521D-03      -119.57410830    244.695347    0.00000    0.00000   -1.02514    4    diag,B
    6      0.227D-02      0.323D-03      -119.57509891    244.552073    0.00000    0.00000   -0.97124    5    diag,B
    7      0.227D-02      0.183D-03      -119.57546663    244.445257    0.00000    0.00000   -0.93106    6    diag,B
    8      0.709D-03      0.103D-03      -119.57557493    244.397153    0.00000    0.00000   -0.90626    7    diag,B
    9      0.550D-03      0.584D-04      -119.57560944    244.372692    0.00000    0.00000   -0.89275    8    diag,B
   10      0.411D-03      0.351D-04      -119.57562182    244.359848    0.00000    0.00000   -0.88551    9    orth
   11      0.246D-03      0.211D-04      -119.57562593    244.353643    0.00000    0.00000   -0.88235   10    diag,B
   12      0.122D-03      0.168D-04      -119.57562738    244.351476    0.00000    0.00000   -0.88135   11    diag,B
   13      0.927D-04      0.129D-04      -119.57562889    244.348845    0.00000    0.00000   -0.87999   12    diag,B
   14      0.314D-04      0.118D-04      -119.57562925    244.348146    0.00000    0.00000   -0.87958   13    diag,B
   15      0.245D-04      0.782D-05      -119.57562974    244.346910    0.00000    0.00000   -0.87880   14    diag,B
   16      0.208D-04      0.120D-04      -119.57562988    244.346468    0.00000    0.00000   -0.87848   15    diag,B
   17      0.275D-04      0.814D-05      -119.57562997    244.346311    0.00000    0.00000   -0.87828   16    diag,B
   18      0.230D-04      0.690D-05      -119.57563004    244.345975    0.00000    0.00000   -0.87793   17    diag,B
   19      0.175D-04      0.679D-05      -119.57563005    244.345971    0.00000    0.00000   -0.87786   18    diag,B
   20      0.868D-05      0.114D-04      -119.57562996    244.345891    0.00000    0.00000   -0.87786   19    orth
   21      0.889D-04      0.181D-04      -119.57563006    244.345942    0.00000    0.00000   -0.87784   20    diag,B
   22      0.899D-04      0.738D-05      -119.57563006    244.345684    0.00000    0.00000   -0.87769   21    diag,B
   23      0.354D-03      0.149D-04      -119.57563008    244.345748    0.00000    0.00000   -0.87769   22    diag,B
   24      0.348D-03      0.364D-05      -119.57563010    244.345594    0.00000    0.00000   -0.87749   23    diag,B
   25      0.196D-04      0.164D-04      -119.57563010    244.345715    0.00000    0.00000   -0.87748   24    diag,B
   26      0.762D-05      0.431D-05      -119.57563010    244.345729    0.00000    0.00000   -0.87741    0    orth

 Final alpha occupancy:   6   2   3   1
 Final beta  occupancy:   6   2   3   0

 !RHF STATE 1.4 Energy               -119.575630103866
 Nuclear energy                        35.98405034
 One-electron energy                 -277.73254495
 Two-electron energy                  122.17286451
 Virial quotient                       -2.60913870
 !RHF STATE 1.4 Dipole moment           0.00000000     0.00000000    -0.87740742
 Dipole moment /Debye                   0.00000000     0.00000000    -2.23000116

 ELECTRON ORBITALS
 =================


   Orb  Occ    Energy  Couls-En    Coefficients

                                   1 1s      1 1s      1 1s      1 1s      1 1s      1 1s      1 1s      1 1s      1 1s      1 1s   
                                   1 1s      1 1s      1 1s      1 1s      1 1s      1 1s      1 1s      1 1s      1 1s      1 1s   
                                   1 1s      1 1s      1 1s      1 1s      1 1s      1 1s      1 1s      1 1s      1 1s      1 1s   
                                   1 1s      1 1s      1 1s      1 1s      1 1s      1 2pz     1 2pz     1 2pz     1 2pz     1 2pz  
                                   1 2pz     1 2pz     1 2pz     1 2pz     1 2pz     1 2pz     1 2pz     1 2pz     1 2pz     1 2pz  
                                   1 2pz     1 2pz     1 2pz     1 2pz     1 2pz     1 2pz     1 2pz     1 2pz     1 2pz     1 2pz  
                                   1 2pz     1 2pz     1 2pz     1 2pz     1 2pz     1 2pz     1 3d0     1 3d2+    1 3d0     1 3d2+ 
                                   1 3d0     1 3d2+    1 3d0     1 3d2+    1 3d0     1 3d2+    1 3d0     1 3d2+    1 3d0     1 3d2+ 
                                   1 3d0     1 3d2+    1 3d0     1 3d2+    1 3d0     1 3d2+    1 3d0     1 3d2+    1 3d0     1 3d2+ 
                                   1 3d0     1 3d2+    1 3d0     1 3d2+    1 3d0     1 3d2+    1 3d0     1 3d2+    1 3d0     1 3d2+ 
                                   1 3d0     1 3d2+    1 3d0     1 3d2+    1 3d0     1 3d2+    1 3d0     1 3d2+    1 3d0     1 3d2+ 
                                   1 4f0     1 4f2+    1 4f0     1 4f2+    1 4f0     1 4f2+    1 4f0     1 4f2+    1 4f0     1 4f2+ 
                                   1 4f0     1 4f2+    1 4f0     1 4f2+    1 4f0     1 4f2+    1 4f0     1 4f2+    1 4f0     1 4f2+ 
                                   1 4f0     1 4f2+    1 4f0     1 4f2+    1 4f0     1 4f2+    1 4f0     1 4f2+    1 4f0     1 4f2+ 
                                   1 4f0     1 4f2+    1 4f0     1 4f2+    1 5g0     1 5g4+    1 5g2+    1 5g0     1 5g4+    1 5g2+ 
                                   1 5g0     1 5g4+    1 5g2+    2 1s      2 1s      2 1s      2 1s      2 1s      2 1s      2 1s   
                                   2 1s      2 1s      2 1s      2 1s      2 1s      2 1s      2 2pz     2 2pz     2 2pz     2 2pz  
                                   2 2pz     2 2pz     2 2pz     2 2pz     2 3d0     2 3d2+    2 3d0     2 3d2+    2 3d0     2 3d2+ 
                                   2 3d0     2 3d2+    2 4f0     2 4f2+    2 4f0     2 4f2+ 

   1.1   2    -4.3061  -21.0992  0.000000 -0.000000  0.000000 -0.000000  0.000000 -0.000000  0.000000 -0.000000  0.000000 -0.000001
                                 0.000002 -0.000005  0.000012 -0.000030  0.000076 -0.000191  0.000477 -0.001179  0.002890 -0.006873
                                 0.016258 -0.036313  0.080462 -0.171210  0.309875 -0.087287 -2.212836  1.852513  0.160366  0.836837
                                 0.010204  0.086222 -0.049480 -0.008380  0.001216 -0.000000  0.000000 -0.000000  0.000000 -0.000000
                                 0.000000 -0.000000  0.000000 -0.000000  0.000000 -0.000000  0.000000 -0.000000  0.000001 -0.000003
                                 0.000006 -0.000016  0.000026 -0.000043 -0.000110  0.000773 -0.006364  0.003185  0.009713 -0.403415
                                 0.413883 -0.027270  0.023013 -0.024332 -0.000418  0.000402  0.000000  0.000000 -0.000000 -0.000000
                                 0.000000  0.000000 -0.000001 -0.000000  0.000002  0.000000 -0.000008 -0.000000  0.000024  0.000001
                                -0.000060 -0.000002  0.000140  0.000006 -0.000313 -0.000019  0.000689  0.000039 -0.001842 -0.000161
                                 0.007602  0.000495 -0.022311 -0.001752  0.022245  0.001270 -0.017386  0.003037  0.054148  0.000451
                                -0.042871  0.001379  0.006143 -0.000206  0.003338 -0.000119 -0.007578  0.000000  0.001550 -0.000001
                                -0.000000 -0.000000  0.000000  0.000000 -0.000001  0.000000  0.000004 -0.000002 -0.000010  0.000002
                                 0.000024 -0.000001 -0.000049  0.000008  0.000137 -0.000036 -0.001464  0.000050  0.004739 -0.000166
                                -0.010828 -0.000495  0.013822 -0.000745 -0.013957  0.000287  0.007785  0.000042  0.000427  0.000094
                                -0.002294 -0.000040  0.000898  0.000016  0.000324  0.000075 -0.000147 -0.000299  0.000745 -0.000689
                                 0.000253  0.000379 -0.000454  0.000000 -0.000000  0.000001 -0.000003  0.000024  0.001013 -0.000064
                                 0.012580  0.000076 -0.008575 -0.003403 -0.000373  0.036824 -0.000129 -0.001381 -0.004257 -0.010842
                                 0.003839 -0.000132  0.000033 -0.008133  0.001444  0.000054  0.006371  0.000476  0.000056  0.000002
                                -0.000691  0.000160 -0.000913 -0.000131 -0.002027 -0.000274

   2.1   2    -2.5899  -17.3876 -0.000000  0.000000 -0.000000  0.000000 -0.000000  0.000000 -0.000000  0.000000 -0.000000  0.000000
                                -0.000000  0.000000 -0.000000  0.000001 -0.000003  0.000007 -0.000017  0.000041 -0.000101  0.000239
                                -0.000562  0.001253 -0.002754  0.005929 -0.012193  0.022634 -0.040152  0.062238 -0.079454  0.097853
                                -0.074394 -0.034777 -0.031857 -0.009884  0.001341 -0.000000  0.000000 -0.000000  0.000000 -0.000000
                                 0.000000 -0.000000  0.000000 -0.000001  0.000004 -0.000013  0.000038 -0.000103  0.000259 -0.000611
                                 0.001334 -0.002910  0.004713 -0.007827 -0.019605  0.147990 -1.467867  1.328845  0.022785  2.215440
                                -1.562140  0.248905 -0.010391 -0.015322 -0.001959  0.000554  0.000000 -0.000000 -0.000000  0.000000
                                 0.000000 -0.000000 -0.000001  0.000000  0.000002 -0.000000 -0.000007  0.000000  0.000021 -0.000000
                                -0.000055  0.000001  0.000127 -0.000003 -0.000279  0.000010  0.000614 -0.000020 -0.001597  0.000106
                                 0.006753 -0.000179 -0.019828  0.000494  0.019976 -0.000361 -0.018669 -0.001622  0.043404 -0.001023
                                -0.029364 -0.001191 -0.005807  0.001272 -0.010260  0.001016 -0.002301  0.000057 -0.000130  0.000012
                                 0.000000  0.000000 -0.000001 -0.000000  0.000003  0.000000 -0.000011 -0.000001  0.000031  0.000003
                                -0.000086 -0.000008  0.000198  0.000036 -0.000582 -0.000076  0.001868 -0.000247 -0.000508 -0.000104
                                -0.002882  0.000338  0.013457 -0.001757 -0.008409 -0.000303  0.000018 -0.001791 -0.004183 -0.000386
                                 0.001590  0.000048 -0.000759 -0.000018  0.000876 -0.000011  0.000103  0.001132 -0.000019  0.000109
                                -0.001341  0.000010  0.000734 -0.000000  0.000001 -0.000008  0.000051 -0.000520 -0.007815 -0.024395
                                 0.074354  0.018371  0.069646  0.001359  0.007367  0.033617 -0.000779 -0.008438 -0.026694 -0.053057
                                -0.036074 -0.000711  0.000199 -0.005304  0.005576  0.000126  0.017484  0.000952  0.000208 -0.000008
                                 0.005606  0.000440 -0.003477 -0.000391 -0.003127 -0.000500

   3.1   2    -1.3383  -12.6186 -0.000000  0.000000 -0.000000  0.000000 -0.000000  0.000000 -0.000000  0.000000 -0.000000  0.000000
                                -0.000000  0.000001 -0.000002  0.000004 -0.000010  0.000025 -0.000062  0.000152 -0.000374  0.000890
                                -0.002121  0.004776 -0.010799  0.023936 -0.048036  0.045989  0.222461 -0.187960 -0.066420 -0.192819
                                 0.080957 -0.030121 -0.086794 -0.025924  0.004200  0.000000 -0.000000  0.000000 -0.000000  0.000000
                                -0.000000  0.000000 -0.000000  0.000001 -0.000002  0.000005 -0.000015  0.000040 -0.000101  0.000239
                                -0.000530  0.001169 -0.002082  0.003958  0.001806 -0.032630  0.391922 -0.353654 -0.021094 -1.153284
                                 0.963947 -0.086187 -0.067786 -0.042774 -0.002834  0.001157  0.000000 -0.000000 -0.000000  0.000000
                                 0.000000 -0.000000 -0.000001  0.000000  0.000004 -0.000000 -0.000013  0.000000  0.000038 -0.000001
                                -0.000103  0.000002  0.000249 -0.000005 -0.000648  0.000012  0.001336 -0.000025 -0.005184  0.000086
                                 0.010231 -0.000272 -0.019217  0.000818  0.006066 -0.000654  0.052767 -0.000563  0.004443 -0.001905
                                 0.099315  0.001032  0.045480 -0.000154 -0.019206 -0.000090 -0.006156 -0.000293  0.000860  0.000009
                                 0.000000 -0.000000 -0.000000  0.000000  0.000002 -0.000000 -0.000007  0.000000  0.000018 -0.000001
                                -0.000058  0.000002  0.000079 -0.000015 -0.000309  0.000031 -0.000390 -0.000001  0.009039  0.000489
                                -0.013425 -0.000566  0.025325  0.001549 -0.004729  0.001544  0.005586  0.001951 -0.006033  0.001216
                                 0.000717 -0.000412  0.000258  0.000122  0.001988  0.000033  0.000026  0.004317 -0.000086  0.001332
                                -0.000529 -0.000136  0.000454 -0.000001  0.000006 -0.000047  0.000313 -0.003260 -0.048683 -0.159544
                                 0.551036  0.148816  0.437792 -0.003347  0.047097  0.104227 -0.001149 -0.011096 -0.031899 -0.077361
                                -0.093591 -0.000445  0.000312 -0.020036  0.003910 -0.000501  0.021763  0.000108  0.000152 -0.000129
                                 0.017289 -0.001484 -0.002733 -0.000460 -0.003577 -0.001080

   4.1   2    -0.6648  -11.1540  0.000000 -0.000000  0.000000 -0.000000  0.000000 -0.000000  0.000000 -0.000000  0.000000 -0.000000
                                 0.000000 -0.000000  0.000001 -0.000003  0.000008 -0.000020  0.000049 -0.000122  0.000299 -0.000713
                                 0.001688 -0.003792  0.008497 -0.018806  0.039661 -0.066879  0.025262 -0.072382  0.183743 -0.088754
                                 0.084351  0.031497  0.095763  0.053166 -0.008831 -0.000000  0.000000 -0.000000  0.000000 -0.000000
                                 0.000000 -0.000000  0.000000 -0.000000  0.000001 -0.000003  0.000010 -0.000027  0.000067 -0.000160
                                 0.000360 -0.000798  0.001515 -0.003061  0.001863  0.008072 -0.147699  0.129013  0.011158  1.566093
                                -1.498584  0.089714  0.039543  0.056446  0.010279 -0.003423 -0.000000  0.000000  0.000000 -0.000000
                                -0.000001  0.000000  0.000003 -0.000000 -0.000010  0.000001  0.000036 -0.000003 -0.000106  0.000009
                                 0.000282 -0.000023 -0.000680  0.000058  0.001739 -0.000160 -0.003629  0.000324  0.013702 -0.001425
                                -0.031904  0.002493  0.073381 -0.004675 -0.046342  0.000870 -0.103385  0.019966 -0.076244 -0.000528
                                -0.173207  0.029899 -0.161260  0.024218 -0.042174  0.009636  0.012942  0.000512 -0.000516 -0.000003
                                -0.000000  0.000000  0.000001 -0.000000 -0.000006  0.000000  0.000021 -0.000000 -0.000058  0.000001
                                 0.000167 -0.000003 -0.000345  0.000013  0.001100 -0.000033 -0.002809  0.000127 -0.007238 -0.000620
                                 0.021032  0.001003 -0.046585 -0.001813  0.023720  0.000095 -0.015255 -0.001629  0.001510 -0.000781
                                 0.000277 -0.000071  0.001900 -0.000068 -0.002403  0.000215 -0.000389 -0.007231  0.000364 -0.001205
                                 0.001346  0.000671 -0.000580 -0.000000  0.000002 -0.000013  0.000083 -0.000862 -0.013613 -0.043563
                                 0.138866  0.046945  0.134915  0.001998  0.012675 -0.086981  0.007074  0.074485  0.241055  0.394218
                                 0.260690  0.004559 -0.001850  0.028504 -0.012112 -0.000421 -0.039581 -0.001064 -0.000485 -0.000049
                                -0.019029 -0.000997  0.005916  0.001374  0.006994  0.000629

   5.1   2    -0.4858  -11.4888 -0.000000  0.000000 -0.000000  0.000000 -0.000000  0.000000 -0.000000  0.000000 -0.000000  0.000000
                                -0.000000  0.000000 -0.000001  0.000001 -0.000004  0.000009 -0.000023  0.000057 -0.000140  0.000334
                                -0.000797  0.001799 -0.004087  0.009151 -0.018863  0.021600  0.073156 -0.061129 -0.038631 -0.037749
                                -0.018588  0.054002  0.034626 -0.002218  0.000860  0.000000 -0.000000  0.000000 -0.000000  0.000000
                                -0.000000  0.000000 -0.000000  0.000000 -0.000000  0.000001 -0.000002  0.000006 -0.000016  0.000037
                                -0.000084  0.000187 -0.000358  0.000732 -0.000533 -0.001391  0.027617 -0.020099 -0.013435  0.079430
                                -0.101245 -0.003523  0.016196  0.002295 -0.000961  0.000371 -0.000000  0.000000  0.000000 -0.000000
                                -0.000000  0.000001  0.000000 -0.000003 -0.000000  0.000011  0.000000 -0.000039 -0.000001  0.000115
                                 0.000004 -0.000316 -0.000011  0.000779  0.000043 -0.002156 -0.000078  0.004370  0.000562 -0.019212
                                -0.000203  0.033178 -0.001051 -0.060415  0.003556  0.010056 -0.016688  0.264784  0.011819 -0.015787
                                -0.029501  0.410287 -0.011081  0.344412 -0.008366  0.170964 -0.003428  0.026432  0.000138 -0.000655
                                 0.000000  0.000000 -0.000000 -0.000000  0.000001  0.000000 -0.000003 -0.000001  0.000007  0.000002
                                -0.000022 -0.000007  0.000041  0.000017 -0.000150 -0.000057  0.000534  0.000475  0.000710 -0.001147
                                -0.001495  0.002472  0.004700 -0.003457 -0.001366  0.003716  0.006155 -0.004830  0.000707 -0.003055
                                -0.000774 -0.000361 -0.000054 -0.000069  0.000759  0.001819  0.000352  0.001134  0.002867  0.002800
                                 0.001868  0.004121  0.003030  0.000000 -0.000000  0.000001 -0.000004  0.000046  0.000684  0.002493
                                -0.011295 -0.002970 -0.016258  0.000140 -0.000678  0.000478 -0.000956 -0.010058 -0.032579 -0.051621
                                -0.037659 -0.000601  0.000251 -0.004054  0.000446  0.002423  0.001678  0.008242  0.000015  0.000122
                                 0.000940  0.003566 -0.000193 -0.002083 -0.000231 -0.002166

   6.1   2    -0.3381   -8.7510 -0.000000  0.000000 -0.000000  0.000000 -0.000000  0.000000 -0.000000  0.000000 -0.000000  0.000000
                                -0.000001  0.000001 -0.000004  0.000009 -0.000024  0.000060 -0.000150  0.000370 -0.000909  0.002165
                                -0.005171  0.011677 -0.026594  0.059724 -0.123291  0.136997  0.522937 -0.452882 -0.209507 -0.283449
                                -0.174389  0.287352  0.607198  0.189854 -0.002327  0.000000 -0.000000  0.000000 -0.000000  0.000000
                                -0.000000  0.000000 -0.000000  0.000000 -0.000000  0.000000 -0.000001  0.000004 -0.000010  0.000023
                                -0.000053  0.000118 -0.000236  0.000494 -0.000670  0.000812 -0.005020  0.014490 -0.021711  0.461139
                                -0.471224  0.018897 -0.038023 -0.034811 -0.006851  0.000417 -0.000000 -0.000000  0.000000  0.000000
                                -0.000000 -0.000000  0.000001  0.000000 -0.000005 -0.000001  0.000017  0.000004 -0.000051 -0.000013
                                 0.000139  0.000036 -0.000339 -0.000088  0.000917  0.000246 -0.001868 -0.000496  0.007901  0.002221
                                -0.014719 -0.003846  0.028779  0.007384 -0.009094 -0.001665 -0.098612 -0.031867 -0.004898  0.001590
                                -0.154308 -0.046621 -0.134411 -0.035493 -0.084085 -0.016824 -0.018259 -0.004542  0.000436 -0.000094
                                 0.000000  0.000000 -0.000000 -0.000000  0.000001  0.000000 -0.000005 -0.000000  0.000014 -0.000000
                                -0.000042 -0.000001  0.000086 -0.000008 -0.000296  0.000015  0.001489 -0.000138 -0.001653  0.000943
                                 0.004371 -0.000878 -0.001560  0.003131  0.006819  0.000420  0.006237  0.002579  0.005416  0.002246
                                -0.000070 -0.000069  0.001416  0.000240 -0.000246  0.000377 -0.000929 -0.001081 -0.000035 -0.001127
                                -0.001456 -0.000218 -0.001379  0.000000 -0.000001  0.000005 -0.000032  0.000325  0.005563  0.015619
                                -0.046499 -0.014529 -0.061029 -0.003291 -0.004781 -0.056288 -0.002074 -0.021397 -0.068270 -0.109249
                                -0.101880 -0.001103  0.000549 -0.022444 -0.002643 -0.000278 -0.007369 -0.000121 -0.000128  0.000002
                                 0.000921  0.000321  0.001570 -0.000148  0.001404 -0.000977

   7.1   0     0.0125   -3.6796 -0.000000  0.000000 -0.000000  0.000000 -0.000000  0.000000 -0.000000  0.000000 -0.000000  0.000000
                                -0.000000  0.000000 -0.000000  0.000001 -0.000002  0.000005 -0.000012  0.000031 -0.000075  0.000180
                                -0.000438  0.001003 -0.002368  0.005486 -0.010817 -0.001810  0.164631 -0.177396  0.083129 -0.315176
                                 0.221941 -0.134930  0.568624  1.314994 -1.309991  0.000000 -0.000000  0.000000 -0.000000  0.000000
                                -0.000000  0.000000 -0.000000  0.000000 -0.000001  0.000005 -0.000013  0.000035 -0.000089  0.000213
                                -0.000482  0.001068 -0.002111  0.004377 -0.005240  0.003209  0.017913  0.048231 -0.143913  2.507210
                                -2.605481  0.069537 -0.113117  0.819849 -0.139280  0.615137 -0.000000 -0.000000  0.000000  0.000000
                                -0.000000 -0.000000  0.000002  0.000000 -0.000006 -0.000000  0.000022  0.000001 -0.000065 -0.000002
                                 0.000170  0.000006 -0.000404 -0.000016  0.000973  0.000047 -0.002060 -0.000093  0.006892  0.000470
                                -0.019722 -0.000616  0.051126  0.000790 -0.042366  0.000659 -0.013241 -0.008637 -0.119464  0.002834
                                 0.032596 -0.013343 -0.123134 -0.008684 -0.023447 -0.007587  0.089460 -0.002884 -0.239382 -0.016154
                                 0.000000  0.000000 -0.000001 -0.000000  0.000002  0.000000 -0.000009 -0.000001  0.000025  0.000002
                                -0.000068 -0.000005  0.000161  0.000012 -0.000525 -0.000028  0.002989  0.000283 -0.006108 -0.000931
                                 0.012297  0.001085 -0.014545 -0.001519  0.022287  0.001236 -0.012987 -0.000943  0.034092  0.004233
                                 0.026008 -0.000929 -0.046926  0.007638  0.000236 -0.000198 -0.000294  0.000752 -0.000750  0.000089
                                -0.000264 -0.000825 -0.001223  0.000000 -0.000000  0.000002 -0.000012  0.000102  0.002721  0.003475
                                 0.023465 -0.000570 -0.017109 -0.007287 -0.001489 -1.012932 -0.001538 -0.015741 -0.050014 -0.084052
                                -0.120177 -0.000750  0.000409  0.373866 -0.002165 -0.000122 -0.007800  0.000643 -0.000102 -0.000000
                                 0.018911 -0.000599  0.001212 -0.000189  0.002053 -0.000836

   8.1   0     0.0311   -2.3463  0.000000 -0.000000  0.000000 -0.000000  0.000000 -0.000000  0.000000 -0.000000  0.000000 -0.000000
                                 0.000000 -0.000000  0.000000 -0.000000  0.000001 -0.000002  0.000005 -0.000012  0.000030 -0.000072
                                 0.000180 -0.000418  0.001020 -0.002421  0.004541  0.006359 -0.113830  0.123864 -0.060591  0.144123
                                -0.043930 -0.024917 -1.379627 -3.117711  1.769135 -0.000000  0.000000 -0.000000  0.000000 -0.000000
                                 0.000000 -0.000000  0.000000 -0.000000  0.000001 -0.000003  0.000008 -0.000021  0.000054 -0.000131
                                 0.000300 -0.000662  0.001400 -0.003003  0.006291 -0.016971  0.158519 -0.218921  0.151790 -3.299637
                                 3.317320 -0.113753 -0.151665 -1.355451 -1.077675  1.321144 -0.000000 -0.000000  0.000000  0.000000
                                -0.000000 -0.000000  0.000000  0.000000 -0.000000 -0.000000  0.000000  0.000000 -0.000001 -0.000001
                                 0.000001  0.000004  0.000002 -0.000008 -0.000044  0.000014  0.000068 -0.000034 -0.000866  0.000033
                                -0.000407 -0.000460  0.004169  0.001590 -0.008487 -0.001969  0.030289  0.003741 -0.023558 -0.005512
                                 0.062405  0.007436 -0.024542  0.000091 -0.130292  0.003804 -0.510120 -0.003123 -0.001715  0.020766
                                 0.000000  0.000000 -0.000002 -0.000000  0.000008  0.000000 -0.000028 -0.000001  0.000082  0.000002
                                -0.000215 -0.000006  0.000568  0.000014 -0.001713 -0.000044  0.011183  0.000257 -0.029800 -0.000616
                                 0.048306  0.001050 -0.051398 -0.001143  0.040164  0.000911 -0.055608 -0.000510 -0.024948  0.000452
                                -0.135125 -0.002320  0.023086  0.004521  0.000251  0.000056  0.000113 -0.001143  0.000323  0.000144
                                -0.008500  0.000303  0.000226  0.000000 -0.000000  0.000000 -0.000002  0.000038 -0.000022  0.003099
                                -0.049935 -0.004288  0.330080  0.004006 -0.000586  3.361764 -0.000019  0.000750  0.006118 -0.006205
                                -0.273548  0.000422  0.000018 -0.634679 -0.000601  0.000031  0.020853 -0.000193  0.000086  0.000004
                                 0.030442  0.000505 -0.001172 -0.000014 -0.002650  0.000174

                                   1 2px     1 2px     1 2px     1 2px     1 2px     1 2px     1 2px     1 2px     1 2px     1 2px  
                                   1 2px     1 2px     1 2px     1 2px     1 2px     1 2px     1 2px     1 2px     1 2px     1 2px  
                                   1 2px     1 2px     1 2px     1 2px     1 2px     1 2px     1 2px     1 2px     1 2px     1 2px  
                                   1 2px     1 3d1+    1 3d1+    1 3d1+    1 3d1+    1 3d1+    1 3d1+    1 3d1+    1 3d1+    1 3d1+ 
                                   1 3d1+    1 3d1+    1 3d1+    1 3d1+    1 3d1+    1 3d1+    1 3d1+    1 3d1+    1 3d1+    1 3d1+ 
                                   1 3d1+    1 3d1+    1 3d1+    1 4f1+    1 4f3+    1 4f1+    1 4f3+    1 4f1+    1 4f3+    1 4f1+ 
                                   1 4f3+    1 4f1+    1 4f3+    1 4f1+    1 4f3+    1 4f1+    1 4f3+    1 4f1+    1 4f3+    1 4f1+ 
                                   1 4f3+    1 4f1+    1 4f3+    1 4f1+    1 4f3+    1 4f1+    1 4f3+    1 4f1+    1 4f3+    1 4f1+ 
                                   1 4f3+    1 4f1+    1 4f3+    1 4f1+    1 4f3+    1 4f1+    1 4f3+    1 5g1+    1 5g3+    1 5g1+ 
                                   1 5g3+    1 5g1+    1 5g3+    2 2px     2 2px     2 2px     2 2px     2 2px     2 2px     2 2px  
                                   2 2px     2 3d1+    2 3d1+    2 3d1+    2 3d1+    2 4f1+    2 4f3+    2 4f1+    2 4f3+ 

   1.2   2    -2.5278  -17.1276 -0.000000  0.000000 -0.000000  0.000000 -0.000000  0.000000 -0.000000  0.000000 -0.000001  0.000005
                                -0.000014  0.000041 -0.000111  0.000281 -0.000663  0.001452 -0.003171  0.005223 -0.008865 -0.018457
                                 0.147931 -1.482686  1.333734  0.035622  2.672001 -2.017702  0.288126  0.018780  0.001393  0.000354
                                -0.000022  0.000000 -0.000000  0.000000 -0.000000  0.000000 -0.000001  0.000002 -0.000005  0.000011
                                -0.000022  0.000049 -0.000095  0.000578 -0.001853  0.001921 -0.001236 -0.001873  0.001038 -0.003235
                                -0.003253  0.000352  0.000179 -0.000000  0.000000  0.000000 -0.000000 -0.000000  0.000000  0.000001
                                -0.000002 -0.000002  0.000003  0.000008 -0.000015 -0.000011  0.000004  0.000087 -0.000162 -0.001155
                                 0.000856  0.002231  0.001877 -0.004266  0.001435  0.003579  0.004475 -0.001112  0.002448 -0.003127
                                 0.002574 -0.001955  0.000511  0.000456 -0.000121  0.000029  0.000049  0.000086  0.000028  0.001028
                                -0.000505 -0.000860  0.000153  0.000213  0.002175  0.006675  0.012376  0.008752  0.000124 -0.000056
                                -0.000987 -0.001573 -0.005340 -0.000068 -0.002683  0.001367  0.000082  0.001169  0.000110

   2.2   2    -0.6136  -11.1489  0.000000 -0.000000  0.000000 -0.000000  0.000000 -0.000000  0.000000 -0.000000  0.000000 -0.000001
                                 0.000002 -0.000006  0.000017 -0.000043  0.000102 -0.000228  0.000506 -0.000929  0.001836 -0.000138
                                -0.009946  0.136507 -0.120455 -0.018581 -0.074674 -0.011400 -0.004378 -0.005233  0.002685  0.002655
                                -0.001485  0.000000 -0.000000  0.000000 -0.000002  0.000008 -0.000026  0.000076 -0.000207  0.000503
                                -0.001336  0.002735 -0.011117  0.021018 -0.039361  0.010474  0.133127 -0.011506  0.230027  0.182917
                                 0.039127  0.007597 -0.000717 -0.000000 -0.000000  0.000001  0.000000 -0.000003 -0.000000  0.000012
                                 0.000000 -0.000038 -0.000001  0.000088  0.000003 -0.000314 -0.000004  0.000806  0.000029 -0.007361
                                -0.000224  0.027950  0.000144 -0.039722 -0.000640  0.049766  0.000170 -0.007836 -0.000508  0.020671
                                 0.001000 -0.013292  0.000951  0.002555 -0.000010 -0.000245  0.000042  0.001310  0.000594  0.009491
                                 0.001341  0.001420  0.001959  0.006371  0.065800  0.209896  0.347825  0.285851  0.003638 -0.001683
                                 0.017281 -0.011183 -0.044110 -0.000529 -0.042871  0.006261  0.001400  0.010079  0.001803

   3.2   0    -0.0017   -6.8879 -0.000000  0.000000 -0.000000  0.000000 -0.000000  0.000000 -0.000000  0.000000 -0.000000  0.000001
                                -0.000004  0.000010 -0.000027  0.000069 -0.000165  0.000368 -0.000817  0.001506 -0.002998  0.000389
                                 0.015342 -0.213556  0.184997  0.038728 -0.087238  0.223958  0.031665 -0.095750 -0.211108 -0.115587
                                -0.348172  0.000000 -0.000000  0.000000 -0.000002  0.000006 -0.000021  0.000061 -0.000167  0.000411
                                -0.001136  0.002303 -0.010080  0.017386 -0.031114  0.004023  0.138587 -0.009546  0.218592  0.192808
                                 0.147388  0.105524  0.074543 -0.000000 -0.000000  0.000000  0.000000 -0.000001 -0.000000  0.000002
                                 0.000000 -0.000006 -0.000001  0.000020  0.000003 -0.000024 -0.000008  0.000123  0.000020 -0.000183
                                -0.000073 -0.002442  0.000251  0.002304 -0.000361 -0.005736  0.000332 -0.000579 -0.000526 -0.014378
                                -0.000252 -0.012895 -0.002803  0.001314 -0.000596 -0.004735 -0.004625 -0.000754  0.000244 -0.000846
                                -0.000372 -0.002244  0.001587 -0.002727 -0.028014 -0.089477 -0.148447 -0.162198 -0.001441  0.000723
                                -0.150603 -0.002490 -0.004880 -0.000120  0.003584  0.001316 -0.000463  0.000741 -0.000924

   4.2   0     0.0326   -3.3149  0.000000 -0.000000  0.000000 -0.000000  0.000000 -0.000000  0.000000 -0.000000  0.000000 -0.000001
                                 0.000002 -0.000005  0.000013 -0.000033  0.000081 -0.000191  0.000422 -0.001018  0.002318 -0.008247
                                 0.031642 -0.334160  0.397055 -0.174441  3.720486 -3.638980  0.125764 -0.134098  0.012500 -1.216365
                                 1.529793  0.000000 -0.000000  0.000000 -0.000000  0.000001 -0.000004  0.000012 -0.000037  0.000102
                                -0.000369  0.000696 -0.004371  0.002842  0.004077 -0.021408  0.108508 -0.072089  0.195610  0.091803
                                 0.133787 -0.141250 -0.147100  0.000000  0.000000 -0.000001 -0.000000  0.000003  0.000000 -0.000011
                                -0.000001  0.000034  0.000004 -0.000087 -0.000010  0.000252  0.000026 -0.000715 -0.000080  0.005118
                                 0.000528 -0.015887 -0.001354  0.024958  0.002230 -0.031032 -0.002494  0.021735  0.001954 -0.028205
                                -0.001728  0.020167  0.000892 -0.073671 -0.004856 -0.080335  0.007129 -0.000372  0.000133 -0.001412
                                -0.000101  0.000502  0.000797 -0.001786 -0.019509 -0.065683 -0.101594 -0.151877 -0.001429  0.000458
                                 0.426459 -0.001660  0.000333 -0.000058 -0.007521  0.000041 -0.000354  0.001587 -0.000556

                                   1 2py     1 2py     1 2py     1 2py     1 2py     1 2py     1 2py     1 2py     1 2py     1 2py  
                                   1 2py     1 2py     1 2py     1 2py     1 2py     1 2py     1 2py     1 2py     1 2py     1 2py  
                                   1 2py     1 2py     1 2py     1 2py     1 2py     1 2py     1 2py     1 2py     1 2py     1 2py  
                                   1 2py     1 3d1-    1 3d1-    1 3d1-    1 3d1-    1 3d1-    1 3d1-    1 3d1-    1 3d1-    1 3d1- 
                                   1 3d1-    1 3d1-    1 3d1-    1 3d1-    1 3d1-    1 3d1-    1 3d1-    1 3d1-    1 3d1-    1 3d1- 
                                   1 3d1-    1 3d1-    1 3d1-    1 4f1-    1 4f3-    1 4f1-    1 4f3-    1 4f1-    1 4f3-    1 4f1- 
                                   1 4f3-    1 4f1-    1 4f3-    1 4f1-    1 4f3-    1 4f1-    1 4f3-    1 4f1-    1 4f3-    1 4f1- 
                                   1 4f3-    1 4f1-    1 4f3-    1 4f1-    1 4f3-    1 4f1-    1 4f3-    1 4f1-    1 4f3-    1 4f1- 
                                   1 4f3-    1 4f1-    1 4f3-    1 4f1-    1 4f3-    1 4f1-    1 4f3-    1 5g1-    1 5g3-    1 5g1- 
                                   1 5g3-    1 5g1-    1 5g3-    2 2py     2 2py     2 2py     2 2py     2 2py     2 2py     2 2py  
                                   2 2py     2 3d1-    2 3d1-    2 3d1-    2 3d1-    2 4f1-    2 4f3-    2 4f1-    2 4f3- 

   1.3   2    -2.5169  -17.1221 -0.000000  0.000000 -0.000000  0.000000 -0.000000  0.000000 -0.000000  0.000000 -0.000001  0.000005
                                -0.000014  0.000041 -0.000111  0.000281 -0.000663  0.001454 -0.003175  0.005233 -0.008898 -0.018346
                                 0.147468 -1.482564  1.335273  0.034452  2.680747 -2.028586  0.290080  0.022149  0.002308  0.000337
                                -0.000001  0.000000 -0.000000  0.000000 -0.000000  0.000000 -0.000001  0.000003 -0.000007  0.000017
                                -0.000044  0.000089 -0.000353  0.000871 -0.002459  0.002133  0.003769 -0.001290  0.006420 -0.004739
                                -0.003762  0.000432  0.000162  0.000000  0.000000 -0.000000 -0.000000  0.000000  0.000000 -0.000000
                                -0.000001 -0.000001  0.000004 -0.000004 -0.000012 -0.000022  0.000039 -0.000037 -0.000115 -0.000097
                                -0.000004  0.003634  0.000078 -0.002427  0.000907  0.008015 -0.000993  0.001421 -0.000399 -0.000325
                                -0.001633 -0.000871 -0.000483  0.000300  0.000102  0.000106 -0.000045  0.000011  0.000057  0.000051
                                -0.000491 -0.001432  0.000165  0.000128  0.001382  0.004344  0.007619  0.004576  0.000109 -0.000033
                                -0.001271 -0.001354 -0.003971 -0.000059 -0.001690  0.001260  0.000053  0.000857  0.000062

   2.3   2    -0.6937  -11.3017  0.000000 -0.000000  0.000000 -0.000000  0.000000 -0.000000  0.000000 -0.000000  0.000000 -0.000000
                                 0.000001 -0.000004  0.000011 -0.000028  0.000067 -0.000150  0.000331 -0.000603  0.001172  0.000066
                                -0.007167  0.092093 -0.081115 -0.010101 -0.105073  0.050881 -0.008787 -0.041692 -0.017820  0.002837
                                -0.001590  0.000000 -0.000000  0.000000 -0.000002  0.000008 -0.000027  0.000079 -0.000215  0.000524
                                -0.001403  0.002867 -0.011834  0.022217 -0.042387  0.012365  0.145181 -0.010003  0.242622  0.184371
                                 0.036448  0.004448 -0.000154 -0.000000 -0.000000  0.000001  0.000000 -0.000003 -0.000000  0.000010
                                 0.000000 -0.000031 -0.000001  0.000074  0.000002 -0.000247 -0.000004  0.000684  0.000019 -0.006152
                                -0.000083  0.021746  0.000010 -0.031876 -0.000247  0.036843 -0.000117 -0.006473 -0.000225  0.006158
                                 0.000444 -0.018433  0.000476  0.001409 -0.000022 -0.000130  0.000020  0.001746  0.000397  0.009086
                                 0.001114  0.001344  0.001325  0.006746  0.070116  0.224939  0.360564  0.272332  0.003913 -0.001778
                                 0.016070 -0.009324 -0.033779 -0.000422 -0.031150  0.006261  0.001462  0.008399  0.001583

   3.3   2    -0.3579  -10.5566 -0.000000  0.000000 -0.000000  0.000000 -0.000000  0.000000 -0.000000  0.000000 -0.000000  0.000001
                                -0.000003  0.000008 -0.000022  0.000056 -0.000135  0.000301 -0.000668  0.001233 -0.002469  0.000389
                                 0.012270 -0.177020  0.155786  0.029688 -0.012999  0.124857  0.018014 -0.075339 -0.098501 -0.006600
                                 0.000076  0.000000 -0.000000  0.000000 -0.000002  0.000009 -0.000031  0.000091 -0.000249  0.000616
                                -0.001728  0.003490 -0.015697  0.026498 -0.048160  0.007042  0.224864 -0.021025  0.350672  0.287435
                                 0.185148  0.029626  0.004717  0.000000  0.000000 -0.000000 -0.000000  0.000001  0.000000 -0.000004
                                -0.000000  0.000015  0.000001 -0.000029 -0.000003  0.000134  0.000008 -0.000295 -0.000030  0.003375
                                 0.000059 -0.014921 -0.000032  0.020460  0.000588 -0.029985 -0.000252  0.009766 -0.000000 -0.033510
                                -0.000828 -0.002409 -0.000846 -0.011900 -0.000098  0.003078 -0.000044  0.000044  0.000708  0.000208
                                 0.001094  0.001372  0.001806 -0.005555 -0.057084 -0.182229 -0.297056 -0.296103 -0.002826  0.001474
                                -0.060806 -0.002692  0.000387 -0.000128  0.015884  0.000432 -0.001020 -0.001727 -0.001325

   4.3   0     0.0253   -2.3834  0.000000 -0.000000  0.000000 -0.000000  0.000000 -0.000000  0.000000 -0.000000  0.000000 -0.000001
                                 0.000003 -0.000008  0.000023 -0.000057  0.000138 -0.000316  0.000699 -0.001462  0.003119 -0.006108
                                 0.015269 -0.136234  0.195176 -0.143848  2.707528 -2.715003  0.073429 -0.047269  0.126871 -0.774100
                                 1.378297 -0.000000  0.000000 -0.000000  0.000000 -0.000001  0.000002 -0.000007  0.000016 -0.000034
                                 0.000035 -0.000106 -0.000418 -0.002313  0.009872 -0.014450  0.037441 -0.044257  0.074376  0.011997
                                 0.047886 -0.140495 -0.166188  0.000000  0.000000 -0.000001 -0.000000  0.000003  0.000000 -0.000011
                                -0.000001  0.000031  0.000004 -0.000081 -0.000010  0.000223  0.000025 -0.000651 -0.000073  0.004411
                                 0.000469 -0.012722 -0.001261  0.020369  0.001911 -0.024425 -0.002187  0.018301  0.001860 -0.017966
                                -0.000692  0.023178  0.003478 -0.058415 -0.003557 -0.048272  0.010430  0.000008  0.000113 -0.000594
                                 0.000402  0.001250  0.000030 -0.000629 -0.007432 -0.026560 -0.037180 -0.074488 -0.000716  0.000154
                                 0.354772 -0.000594  0.001860 -0.000011 -0.006030 -0.000525 -0.000146  0.000641 -0.000134

   5.3   0     0.0771   -3.3734 -0.000000  0.000000 -0.000000  0.000000 -0.000000  0.000000 -0.000000  0.000000 -0.000000  0.000001
                                -0.000004  0.000012 -0.000034  0.000086 -0.000208  0.000486 -0.001072  0.002438 -0.005409  0.015958
                                -0.055834  0.574282 -0.704919  0.348610 -7.221481  7.110694 -0.238077  0.210873 -0.235687  1.627755
                                -1.033521  0.000000 -0.000000  0.000001 -0.000003  0.000013 -0.000043  0.000127 -0.000330  0.000770
                                -0.001753  0.003779 -0.010919  0.039164 -0.110420  0.105747 -0.056468  0.277412 -0.189713  0.156250
                                -0.172655  0.367608 -0.742512  0.000000 -0.000000 -0.000001  0.000000  0.000004 -0.000000 -0.000013
                                 0.000000  0.000040 -0.000000 -0.000103  0.000001  0.000285 -0.000003 -0.000817  0.000019  0.005511
                                -0.000100 -0.016139  0.000116  0.025192 -0.000644 -0.030514  0.000425  0.022704 -0.000356 -0.030440
                                 0.002090 -0.030414  0.005111  0.021067  0.001088  0.071989  0.011582 -0.000717  0.000199  0.002012
                                 0.000982 -0.008874 -0.000292 -0.001221 -0.012397 -0.039302 -0.066354 -0.000244 -0.000542  0.000326
                                -0.272626 -0.001603 -0.003906 -0.000073 -0.050567 -0.000166 -0.000198  0.004542 -0.000238

                                   1 3d2-    1 3d2-    1 3d2-    1 3d2-    1 3d2-    1 3d2-    1 3d2-    1 3d2-    1 3d2-    1 3d2- 
                                   1 3d2-    1 3d2-    1 3d2-    1 3d2-    1 3d2-    1 3d2-    1 3d2-    1 3d2-    1 3d2-    1 3d2- 
                                   1 3d2-    1 3d2-    1 4f2-    1 4f2-    1 4f2-    1 4f2-    1 4f2-    1 4f2-    1 4f2-    1 4f2- 
                                   1 4f2-    1 4f2-    1 4f2-    1 4f2-    1 4f2-    1 4f2-    1 4f2-    1 4f2-    1 4f2-    1 5g2- 
                                   1 5g4-    1 5g2-    1 5g4-    1 5g2-    1 5g4-    2 3d2-    2 3d2-    2 3d2-    2 3d2-    2 4f2- 
                                   2 4f2- 

   1.4   +    -0.5220  -11.6078  0.000000 -0.000000  0.000001 -0.000003  0.000012 -0.000039  0.000117 -0.000321  0.000789 -0.002188
                                 0.004433 -0.019504  0.033493 -0.060041  0.007923  0.270739 -0.017067  0.423376  0.347908  0.161484
                                 0.021383 -0.000519  0.000000 -0.000000  0.000000 -0.000001  0.000003 -0.000007  0.000018 -0.000061
                                 0.000489 -0.001237  0.002651 -0.003915  0.003735 -0.005384 -0.003066 -0.000232 -0.000107 -0.000414
                                 0.001783  0.000847  0.002976  0.001537  0.004010  0.002277  0.007795  0.000113  0.002819 -0.001891
                                -0.001872

   2.4   0     0.0824   -2.6258 -0.000000  0.000000 -0.000001  0.000005 -0.000019  0.000064 -0.000187  0.000481 -0.001115  0.002453
                                -0.005347  0.013994 -0.057813  0.169611 -0.172335  0.151192 -0.464220  0.406249 -0.189864  0.216964
                                -0.487169  1.264702 -0.000000  0.000001 -0.000004  0.000013 -0.000039  0.000104 -0.000268  0.000810
                                -0.005108  0.013069 -0.021528  0.023562 -0.020786  0.014803 -0.022859  0.052490 -0.100019 -0.000000
                                -0.000064  0.000018 -0.000340 -0.000220  0.000206  0.000428 -0.000586  0.000001  0.005588 -0.000089
                                 0.000144

   3.4   0     0.1469   -2.5483 -0.000000  0.000000 -0.000000  0.000001 -0.000002  0.000007 -0.000020  0.000052 -0.000121  0.000265
                                -0.000579  0.001476 -0.006337  0.018786 -0.019360  0.018499 -0.052986  0.048713 -0.020380  0.025484
                                -0.052386  0.093403  0.000002 -0.000015  0.000067 -0.000239  0.000702 -0.001858  0.004826 -0.014531
                                 0.091561 -0.234921  0.385098 -0.421113  0.367840 -0.262947  0.371506 -1.008082  1.633084  0.000005
                                -0.000011  0.000053  0.000019 -0.000467 -0.000062  0.000800  0.002380  0.000027 -0.000932  0.000073
                                -0.001495

 HOMO      6.1    -0.338107 =      -9.2004eV
 LUMO      3.2    -0.001744 =      -0.0475eV
 LUMO-HOMO         0.336363 =       9.1529eV


 **********************************************************************************************************************************
 DATASETS  * FILE   NREC   LENGTH (MB)   RECORD NAMES
              1      19       22.57       500      610      700      900      950      970     1000      129      960     1100   
                                          VAR    BASINP    GEOM    SYMINP    ZMAT    AOBASIS   BASIS     P2S    ABASIS      S 
                                         1400     1410     1420     1200     1210     1080     1600     1650     1700   
                                           T        V       ECP      H0       H01     AOSYM     SMH    MOLCAS    OPER   

              2       4        4.55       700     1000      520     2100   
                                         GEOM     BASIS   MCVARS     RHF  

 PROGRAMS   *        TOTAL       RHF       INT
 CPU TIMES  *       226.48     16.77    209.44
 REAL TIME  *       240.96 SEC
 DISK USED  *        12.00 GB      
 SF USED    *         0.25 MB      
 GA USED    *         0.00 MB       (max)       0.00 MB       (current)
 **********************************************************************************************************************************


 PROGRAM * CCSD (Restricted open-shell coupled cluster)     Authors: C. Hampel, H.-J. Werner, 1991, M. Deegan, P.J. Knowles, 1992


 Convergence thresholds:  THRVAR = 1.00D-08  THRDEN = 1.00D-06

 CCSD(T)     terms to be evaluated (factor= 1.000)


 Number of closed-shell orbitals:  11 (   6   2   3   0 )
 Number of active  orbitals:        1 (   0   0   0   1 )
 Number of external orbitals:     443 ( 180 107 106  50 )

 Memory could be reduced to 445.68 Mwords without degradation in triples

 Number of N-1 electron functions:              23
 Number of N-2 electron functions:             253
 Number of singly external CSFs:              3275
 Number of doubly external CSFs:           9817564
 Total number of CSFs:                     9820839

 Molecular orbitals read from record     2100.2  Type=RHF/CANONICAL (state 1.4)

 Integral transformation finished. Total CPU:  16.65 sec, npass=  1  Memory used:  43.25 MW

 Starting RMP2 calculation

 Wavefunction is spin-projected

 ITER.      SQ.NORM     CORR.ENERGY   TOTAL ENERGY   ENERGY CHANGE        DEN1      VAR(S)    VAR(P)  DIIS     TIME
   1      1.24377405    -0.95584620  -120.53147630    -0.95584620    -0.00282429  0.63D-05  0.14D-02  1  1    18.68
   2      1.24719105    -0.95887948  -120.53450959    -0.00303328    -0.00000980  0.36D-07  0.77D-05  2  2    20.20
   3      1.24740104    -0.95898224  -120.53461234    -0.00010275    -0.00000006  0.14D-09  0.53D-07  3  3    22.13
   4      1.24740832    -0.95898366  -120.53461376    -0.00000142    -0.00000000  0.22D-11  0.24D-09  4  4    24.29
   5      1.24740834    -0.95898365  -120.53461375     0.00000001    -0.00000000  0.90D-13  0.14D-11  5  5    25.57

 Norm of t1 vector:      0.02776284      S-energy:    -0.00259809      T1 diagnostic:  0.00005102
 Norm of t2 vector:      0.49662619      P-energy:    -0.95638556
                                         Alpha-Beta:  -0.67414430
                                         Alpha-Alpha: -0.15336005
                                         Beta-Beta:   -0.12888120

 Spin contamination <S**2-Sz**2-Sz>     0.00000000
  Reference energy                   -119.575630103865
  RHF-RMP2 correlation energy          -0.958983648469
 !RHF-RMP2 energy                    -120.534613752334
 (NB above energy spin projected)

 Starting RCCSD calculation

 ITER.      SQ.NORM     CORR.ENERGY   TOTAL ENERGY   ENERGY CHANGE        DEN1      VAR(S)    VAR(P)  DIIS     TIME
   1      1.19554277    -0.86853035  -120.44416045    -0.86853035    -0.03733771  0.10D-01  0.76D-02  1  1    39.43
   2      1.21675900    -0.89734137  -120.47297147    -0.02881102    -0.00330525  0.41D-03  0.13D-02  2  2    52.60
   3      1.22674977    -0.89947171  -120.47510181    -0.00213034    -0.00065090  0.39D-03  0.17D-03  3  3    87.06
   4      1.23396996    -0.90158089  -120.47721099    -0.00210918    -0.00011116  0.45D-04  0.45D-04  4  4   131.10
   5      1.23850651    -0.90248666  -120.47811677    -0.00090577    -0.00001904  0.70D-05  0.10D-04  5  5   145.73
   6      1.23991305    -0.90261347  -120.47824357    -0.00012681    -0.00000529  0.17D-05  0.31D-05  6  6   160.88
   7      1.24061996    -0.90266261  -120.47829271    -0.00004914    -0.00000134  0.49D-06  0.71D-06  7  7   175.27
   8      1.24089872    -0.90268460  -120.47831471    -0.00002199    -0.00000027  0.11D-06  0.12D-06  8  8   189.33
   9      1.24096547    -0.90268588  -120.47831599    -0.00000128    -0.00000006  0.21D-07  0.28D-07  9  9   203.46
  10      1.24097548    -0.90268593  -120.47831603    -0.00000005    -0.00000001  0.44D-08  0.68D-08 10 10   217.34
  11      1.24097953    -0.90268698  -120.47831709    -0.00000105    -0.00000000  0.97D-09  0.22D-08 11 11   233.89
  12      1.24097975    -0.90268692  -120.47831702     0.00000007    -0.00000000  0.51D-09  0.13D-08 12 12   248.41

 Norm of t1 vector:      0.14419050      S-energy:    -0.00277280      T1 diagnostic:  0.02049333
                                                                       D1 diagnostic:  0.05454363
 Norm of t2 vector:      0.46924285      P-energy:    -0.89991412
                                         Alpha-Beta:  -0.66359403
                                         Alpha-Alpha: -0.12828888
                                         Beta-Beta:   -0.10803121
n triples
 

  Correlated core orbitals:             1.1       2.1       1.2       1.3
  Orbital energies:                     

  Correlated core orbitals:             1.1       2.1       1.2       1.3
  Orbital energies:                    -4.3321   -2.5968   -2.5777   -2.5671
 
  RCCSD core-core energy               -0.123828799923
  RCCSD core-valence energy            -0.225993222302
  RCCSD valence correlation energy     -0.552864893035
 

 RESULTS
 =======

  Reference energy                   -119.575630103865
  RCCSD singles energy                 -0.002772796193
  RCCSD pair energy                    -0.899914119067
  RCCSD correlation energy             -0.902686915260
  Triples (T) contribution             -0.048152076141
  Total correlation energy             -0.950838991401
 
  RHF-RCCSD energy                   -120.478317019125
  RHF-RCCSD[T] energy                -120.530366896564
  RHF-RCCSD-T energy                 -120.525969044955
 !RHF-RCCSD(T) energy                -120.526469095266

 Program statistics:

 Available memory in ccsd:              1023998628
 Min. memory needed in ccsd:              28062859
 Max. memory used in ccsd:                40287473
 Max. memory used in cckext:              32692403 (12 integral passes)
 Max. memory used in cckint:              43251562 ( 1 integral passes)



 **********************************************************************************************************************************
 DATASETS  * FILE   NREC   LENGTH (MB)   RECORD NAMES
              1      19       22.57       500      610      700      900      950      970     1000      129      960     1100   
                                          VAR    BASINP    GEOM    SYMINP    ZMAT    AOBASIS   BASIS     P2S    ABASIS      S 
                                         1400     1410     1420     1200     1210     1080     1600     1650     1700   
                                           T        V       ECP      H0       H01     AOSYM     SMH    MOLCAS    OPER   

              2       4        4.55       700     1000      520     2100   
                                         GEOM     BASIS   MCVARS     RHF  

 PROGRAMS   *        TOTAL  RCCSD(T)       RHF       INT
 CPU TIMES  *       753.01    526.45     16.77    209.44
 REAL TIME  *       890.78 SEC
 DISK USED  *        38.97 GB      
 SF USED    *         7.46 GB      
 GA USED    *         0.00 MB       (max)       0.00 MB       (current)
 **********************************************************************************************************************************
e" memory="8193.84" sf="7455.05" df="27529.84" eaf="11434.65"
     ga="0.0"/>
  </jobstep><!--
 Output type csv         
                                                                                                                                                                                                                                                                

 ERROR IN MAKETAB: STRING COLUMN "SCF" SPECIFIED AFTER DATA COLUMN(S)

 RCCSD(T)/USERDEF energy=   -120.526469591172

        RCCSD(T)        RHF-SCF 
   -120.52646959   -119.57563010
 **********************************************************************************************************************************
 Molpro calculation terminated
 Variable memory released
 Output type csv         
                                                                                                                                                                                                                                                                

 ERROR IN MAKETAB: STRING COLUMN "SCF" SPECIFIED AFTER DATA COLUMN(S)

 RCCSD(T)/USERDEF energy=   -120.526469095266

        RCCSD(T)        RHF-SCF 
   -120.52646910   -119.57563010
 **********************************************************************************************************************************
 Molpro calculation terminated
 Variable memory released
