
 Primary working directories    : /global/cscratch1/sd/bkincaid
 Secondary working directories  : /global/cscratch1/sd/bkincaid
 Wavefunction directory         : /global/homes/b/bkincaid/wfu/
 Main file repository           : /global/cscratch1/sd/bkincaid/

 SHA1      : 19cd028119e0e09f93f0674bd8af7968d9b3eff6
 NAME      : 2015.1.36
 ARCHNAME  : linux/x86_64
 FC        : /opt/cray/pe/craype/2.5.14/bin/ftn
 BLASLIB   : -L/opt/intel/compilers_and_libraries_2018.1.163/linux/mkl/lib/intel64 -Wl,-_start-group -lmkl_intel_ilp64 -lmkl_intel_thread -lmkl_core -Wl,-_end-group -liomp5
 id        : lbl

 Nodes     nprocs
 nid00748    11
 Number of processes for MPI-2 version of Molpro:   nprocs(total)=   12   nprocs(compute)=   11   nprocs(helper)=    1

 Using customized tuning parameters: mindgm=7; mindgv=16; mindgc=1; mindgr=1; noblas=0; minvec=7
 default implementation of scratch files=sf  

 ***,Calculation for IrO groundstate
 memory,1024,m
 gthresh,twoint=1.0E-15
 gthresh,throvl=1.0E-15
                                                                                 !symmetry,nosym
 
 basis={
 Including file /global/u1/b/bkincaid/molpro/Ir/molecules/tz/IrO/ecps/CRENBL/crenbl
 
 Including file /global/u1/b/bkincaid/molpro/Ir/molecules/tz/IrO/ecps/CRENBL/tz.basis
 
 ecp,O,2,1,0
 3
 1,  12.30997,  6.000000
 3,  14.76962,  73.85984
 2,  13.71419, -47.87600
 1
 2,  13.65512,  85.86406
 
 Including file /global/u1/b/bkincaid/molpro/Ir/molecules/tz/IrO/ecps/CRENBL/O-aug-cc-CVTZ.basis
 }
 
 ne = 23
 
 A1=6
 B1=2
 B2=3
 A2=1
 
 
 do i=3,3
         if(i.eq.1) then
                 z(i) = 1.500
         else if(i.eq.2) then
                 z(i) = 1.600
         else if(i.eq.3) then
                 z(i) = 1.700
         else if(i.eq.4) then
                 z(i) = 1.800
         else if(i.eq.5) then
                 z(i) = 1.900
         endif
 
 geometry={
 2
 IrO
 Ir 0.0 0.0 0.0
 O 0.0 0.0 z(i)
 }
 
 
 {rhf,maxdis=25,iptyp='DIIS',nitord=30,maxit=60; shift,-1.0,-0.5
 wf,nelec=ne,spin=1,sym=4
 occ,A1,B1,B2,A2
 closed,A1,B1,B2,A2-1
 print,orbitals=2
         }
 scf(i)=energy
 {rccsd(t),shifts=0.2,shiftp=0.2,thrdis=1.0;diis,1,1,15,1;maxit,100;core}
 ccsd(i)=energy
 enddo
 
 table,z,scf,ccsd
 save
 type,csv
 

 Variables initialized (889), CPU time= 0.01 sec
 Commands  initialized (702), CPU time= 0.01 sec, 572 directives.
 Default parameters read. Elapsed time= 0.19 sec

 Checking input...
 Passed
1


                                         ***  PROGRAM SYSTEM MOLPRO  ***
                                       Copyright, TTI GmbH Stuttgart, 2015
                                    Version 2015.1 linked Dec 29 2018 15:55:43


 **********************************************************************************************************************************
 LABEL *   Calculation for IrO groundstate                                               
  64 bit mpp version                                                                     DATE: 09-Mar-21          TIME: 16:33:54  
 **********************************************************************************************************************************

 SHA1:             19cd028119e0e09f93f0674bd8af7968d9b3eff6
 **********************************************************************************************************************************

 THRESHOLDS:

 ZERO    =  1.00D-12  ONEINT  =  1.00D-12  TWOINT  =  1.00D-15  PREFAC  =  1.00D-14  LOCALI  =  1.00D-09  EORDER  =  1.00D-04
 ENERGY  =  0.00D+00  ETEST   =  0.00D+00  EDENS   =  0.00D+00  THRDEDEF=  1.00D-06  GRADIENT=  1.00D-02  STEP    =  1.00D-03
 ORBITAL =  1.00D-05  CIVEC   =  1.00D-05  COEFF   =  1.00D-04  PRINTCI =  5.00D-02  PUNCHCI =  9.90D+01  OPTGRAD =  3.00D-04
 OPTENERG=  1.00D-06  OPTSTEP =  3.00D-04  THRGRAD =  1.00D-10  COMPRESS=  1.00D-11  VARMIN  =  1.00D-07  VARMAX  =  1.00D-03
 THRDOUB =  0.00D+00  THRDIV  =  1.00D-05  THRRED  =  1.00D-07  THRPSP  =  1.00D+00  THRDC   =  1.00D-10  THRCS   =  1.00D-10
 THRNRM  =  1.00D-08  THREQ   =  0.00D+00  THRDE   =  1.00D+00  THRREF  =  1.00D-05  SPARFAC =  1.00D+00  THRDLP  =  1.00D-07
 THRDIA  =  1.00D-10  THRDLS  =  1.00D-07  THRGPS  =  0.00D+00  THRKEX  =  0.00D+00  THRDIS  =  2.00D-01  THRVAR  =  1.00D-10
 THRLOC  =  1.00D-06  THRGAP  =  1.00D-06  THRLOCT = -1.00D+00  THRGAPT = -1.00D+00  THRORB  =  1.00D-06  THRMLTP =  0.00D+00
 THRCPQCI=  1.00D-10  KEXTA   =  0.00D+00  THRCOARS=  0.00D+00  SYMTOL  =  1.00D-06  GRADTOL =  1.00D-06  THROVL  =  1.00D-08
 THRORTH =  1.00D-08  GRID    =  1.00D-06  GRIDMAX =  1.00D-03  DTMAX   =  0.00D+00  THROCCDE=  1.00D-01  THROCCDE=  1.00D-01



 THRESHOLDS:

 ZERO    =  1.00D-12  ONEINT  =  1.00D-12  TWOINT  =  1.00D-15  PREFAC  =  1.00D-14  LOCALI  =  1.00D-09  EORDER  =  1.00D-04
 ENERGY  =  0.00D+00  ETEST   =  0.00D+00  EDENS   =  0.00D+00  THRDEDEF=  1.00D-06  GRADIENT=  1.00D-02  STEP    =  1.00D-03
 ORBITAL =  1.00D-05  CIVEC   =  1.00D-05  COEFF   =  1.00D-04  PRINTCI =  5.00D-02  PUNCHCI =  9.90D+01  OPTGRAD =  3.00D-04
 OPTENERG=  1.00D-06  OPTSTEP =  3.00D-04  THRGRAD =  1.00D-10  COMPRESS=  1.00D-11  VARMIN  =  1.00D-07  VARMAX  =  1.00D-03
 THRDOUB =  0.00D+00  THRDIV  =  1.00D-05  THRRED  =  1.00D-07  THRPSP  =  1.00D+00  THRDC   =  1.00D-10  THRCS   =  1.00D-10
 THRNRM  =  1.00D-08  THREQ   =  0.00D+00  THRDE   =  1.00D+00  THRREF  =  1.00D-05  SPARFAC =  1.00D+00  THRDLP  =  1.00D-07
 THRDIA  =  1.00D-10  THRDLS  =  1.00D-07  THRGPS  =  0.00D+00  THRKEX  =  0.00D+00  THRDIS  =  2.00D-01  THRVAR  =  1.00D-10
 THRLOC  =  1.00D-06  THRGAP  =  1.00D-06  THRLOCT = -1.00D+00  THRGAPT = -1.00D+00  THRORB  =  1.00D-06  THRMLTP =  0.00D+00
 THRCPQCI=  1.00D-10  KEXTA   =  0.00D+00  THRCOARS=  0.00D+00  SYMTOL  =  1.00D-06  GRADTOL =  1.00D-06  THROVL  =  1.00D-15
 THRORTH =  1.00D-08  GRID    =  1.00D-06  GRIDMAX =  1.00D-03  DTMAX   =  0.00D+00  THROCCDE=  1.00D-01  THROCCDE=  1.00D-01



 Variable memory set to 1024000000 words,  buffer space   230000 words

 SETTING BASIS          =    USERDEF
 SETTING NE             =        23.00000000                                  
 SETTING A1             =         6.00000000                                  
 SETTING B1             =         2.00000000                                  
 SETTING B2             =         3.00000000                                  
 SETTING A2             =         1.00000000                                  

 DO I                   =         3.00000000   
 SETTING Z(3)           =         1.70000000                                  

Geometry recognized as XYZ



 Recomputing integrals since basis changed


 Using spherical harmonics



 PROGRAM * SEWARD (Integral evaluation for generally contracted gaussian basis sets)     Author: Roland Lindh, 1990

 Geometry written to block  1 of record 700


 Point group  C2v 



 ATOMIC COORDINATES

 NR  ATOM    CHARGE       X              Y              Z

   1  IR     17.00    0.000000000    0.000000000    0.000000000
   2  O       6.00    0.000000000    0.000000000    3.212534412

 Bond lengths in Bohr (Angstrom)

 1-2  3.212534412
     ( 1.700000000)

 NUCLEAR CHARGE:                   23
 NUMBER OF PRIMITIVE AOS:         556
 NUMBER OF SYMMETRY AOS:          455
 NUMBER OF CONTRACTIONS:          455   ( 186A1  + 109B1  + 109B2  +  51A2  )
 NUMBER OF CORE ORBITALS:           4   (   2A1  +   1B1  +   1B2  +   0A2  )
 NUMBER OF VALENCE ORBITALS:       10   (   5A1  +   2B1  +   2B2  +   1A2  )


 NUCLEAR REPULSION ENERGY   31.75063266

 EXTRA SYMMETRY OF AOS IN SYMMETRY 1:   1 1 1 1 1 1 1 1 1 1   1 1 1 1 1 1 1 1 1 1   1 1 1 1 1 1 1 1 1 1   1 1 1 1 1 1 1 1 1 1
                                        1 1 1 1 1 1 1 1 1 1   1 1 1 1 1 1 1 1 1 1   1 1 1 1 1 1 1 2 1 2   1 2 1 2 1 2 1 2 1 2
                                        1 2 1 2 1 2 1 2 1 2   1 2 1 2 1 2 1 2 1 2   1 2 1 2 1 2 1 2 1 2   1 2 1 2 1 2 1 2 1 2
                                        1 2 1 2 1 2 1 2 1 2   1 2 1 2 1 2 1 2 1 2   1 2 1 2 1 3 2 1 3 2   1 3 2 1 1 1 1 1 1 1
                                        1 1 1 1 1 1 1 1 1 1   1 1 1 1 1 2 1 2 1 2   1 2 1 2 1 2
 EXTRA SYMMETRY OF AOS IN SYMMETRY 2:   1 1 1 1 1 1 1 1 1 1   1 1 1 1 1 1 1 1 1 1   1 1 1 1 1 1 1 1 1 1   1 1 1 1 1 1 1 1 1 1
                                        1 1 1 1 1 1 1 1 1 1   1 1 1 1 2 1 2 1 2 1   2 1 2 1 2 1 2 1 2 1   2 1 2 1 2 1 2 1 2 1
                                        2 1 2 1 2 1 2 1 2 1   2 1 2 1 1 1 1 1 1 1   1 1 1 1 1 1 2 1 2
 EXTRA SYMMETRY OF AOS IN SYMMETRY 3:   1 1 1 1 1 1 1 1 1 1   1 1 1 1 1 1 1 1 1 1   1 1 1 1 1 1 1 1 1 1   1 1 1 1 1 1 1 1 1 1
                                        1 1 1 1 1 1 1 1 1 1   1 1 1 1 2 1 2 1 2 1   2 1 2 1 2 1 2 1 2 1   2 1 2 1 2 1 2 1 2 1
                                        2 1 2 1 2 1 2 1 2 1   2 1 2 1 1 1 1 1 1 1   1 1 1 1 1 1 2 1 2
 EXTRA SYMMETRY OF AOS IN SYMMETRY 4:   1 1 1 1 1 1 1 1 1 1   1 1 1 1 1 1 1 1 1 1   1 1 1 1 1 1 1 1 1 1   1 1 1 1 1 1 1 1 1 1
                                        2 1 2 1 2 1 1 1 1 1   1

 Eigenvalues of metric

         1 0.767E-07 0.944E-06 0.346E-05 0.116E-04 0.155E-04 0.164E-04 0.251E-04 0.435E-04
         2 0.914E-07 0.373E-05 0.153E-04 0.526E-04 0.539E-04 0.125E-03 0.141E-03 0.434E-03
         3 0.914E-07 0.373E-05 0.153E-04 0.526E-04 0.539E-04 0.125E-03 0.141E-03 0.434E-03
         4 0.155E-04 0.537E-04 0.146E-03 0.607E-03 0.971E-03 0.208E-02 0.548E-02 0.579E-02


 Contracted 2-electron integrals neglected if value below      1.0D-15

 Warning: maximum contribution to expansion of semi-local PP integrals   0.9D+12

 AO integral compression algorithm  1   Integral accuracy      1.0D-15

     4762.370 MB (compressed) written to integral file ( 37.2%)

     Node minimum: 279.708 MB, node maximum: 913.834 MB


 NUMBER OF SORTED TWO-ELECTRON INTEGRALS:  125132898.     BUFFER LENGTH:  32768
 NUMBER OF SEGMENTS:   4  SEGMENT LENGTH:   31982049      RECORD LENGTH: 524288

 Memory used in sort:      32.54 MW

 SORT1 READ  1600176772. AND WROTE    48100233. INTEGRALS IN    140 RECORDS. CPU TIME:    36.78 SEC, REAL TIME:    45.17 SEC
 SORT2 READ   527959069. AND WROTE  1376419418. INTEGRALS IN  13123 RECORDS. CPU TIME:     7.41 SEC, REAL TIME:     8.46 SEC

 Node minimum:   125060912.  Node maximum:   125200036. integrals

 OPERATOR DM      FOR CENTER  0  COORDINATES:    0.000000    0.000000    0.000000


 **********************************************************************************************************************************
 DATASETS  * FILE   NREC   LENGTH (MB)   RECORD NAMES
              1      19       22.50       500      610      700      900      950      970     1000      129      960     1100   
                                          VAR    BASINP    GEOM    SYMINP    ZMAT    AOBASIS   BASIS     P2S    ABASIS      S 
                                         1400     1410     1420     1200     1210     1080     1600     1650     1700   
                                           T        V       ECP      H0       H01     AOSYM     SMH    MOLCAS    OPER   

 PROGRAMS   *        TOTAL       INT
 CPU TIMES  *       226.53    226.27
 REAL TIME  *       239.96 SEC
 DISK USED  *        11.06 GB      
 GA USED    *         0.00 MB       (max)       0.00 MB       (current)
 **********************************************************************************************************************************
 Molecular orbital dump at record        2100.2
    2      0.000D+00      0.542D-02      -119.61222424    238.016681    0.00000    0.00000   -1.71574    1    diag,B
    3      0.121D-01      0.154D-02      -119.61700250    237.990699    0.00000    0.00000   -1.69299    2    diag,B
    4      0.436D-02      0.806D-03      -119.61940722    237.937070    0.00000    0.00000   -1.63762    3    diag,B
    5      0.309D-02      0.484D-03      -119.62086432    237.851832    0.00000    0.00000   -1.62061    4    diag,B
    6      0.169D-02      0.290D-03      -119.62158183    237.792055    0.00000    0.00000   -1.60532    5    diag,B
    7      0.148D-02      0.173D-03      -119.62189071    237.738029    0.00000    0.00000   -1.59163    6    diag,B
    8      0.774D-03      0.102D-03      -119.62200074    237.714754    0.00000    0.00000   -1.57769    7    diag,B
    9      0.536D-03      0.653D-04      -119.62204811    237.700171    0.00000    0.00000   -1.56656    8    diag,B
 Number of singly external CSFs:              3275
 Number of doubly external CSFs:           9817564
 Total number of CSFs:                     9820839
   -119.62208374    237.680143    0.00000    0.00000   -1.55089   10    diag,B
   12      0.332D-03      0.187D-04      -119.62208798    237.675005    0.00000    0.00000   -1.54776   11    diag,B
   13      0.719D-04      0.148D-04      -119.62208918    237.673335    0.00000    0.00000   -1.54671   12    diag,B
   14      0.396D-04      0.113D-04      -119.62209112    237.669245    0.00000    0.00000   -1.54419   13    diag,B
   15      0.948D-04      0.706D-05      -119.62209156    237.667849    0.00000    0.00000   -1.54321   14    diag,B
   16      0.224D-04      0.785D-05      -119.62209179    237.666872    0.00000    0.00000   -1.54255   15    diag,B
   17      0.238D-04      0.740D-05      -119.62209191    237.666192    0.00000    0.00000   -1.54207   16    diag,B
   18      0.186D-04      0.103D-04      -119.62209195    237.665944    0.00000    0.00000   -1.54190   17    diag,B
   19      0.108D-04      0.410D-05      -119.62209208    237.664760    0.00000    0.00000   -1.54113   18    diag,B
   20      0.960D-04      0.108D-04      -119.62209208    237.664732    0.00000    0.00000   -1.54112   19    orth
   21      0.751D-04      0.769D-05      -119.62209209    237.664655    0.00000    0.00000   -1.54106   20    diag,B
   22      0.882D-04      0.549D-05      -119.62209213    237.664229    0.00000    0.00000   -1.54079   21    diag,B
   23      0.345D-04      0.551D-05      -119.62209212    237.664182    0.00000    0.00000   -1.54078   22    diag,B
   24      0.234D-03      0.239D-04      -119.62209212    237.664227    0.00000    0.00000   -1.54077   23    diag,B
   25      0.281D-03      0.880D-05      -119.62209213    237.664137    0.00000    0.00000   -1.54076   24    diag,B
   26      0.464D-04      0.119D-04      -119.62209214    237.664014    0.00000    0.00000   -1.54067   24    diag,B
   27      0.735D-05      0.602D-05      -119.62209215    237.663805    0.00000    0.00000   -1.54055    0    orth

 Final alpha occupancy:   6   2   3   1
 Final beta  occupancy:   6   2   3   0

 !RHF STATE 1.4 Energy               -119.622092152558
 Nuclear energy                        31.75063266
 One-electron energy                 -270.20462737
 Two-electron energy                  118.83190256
 Virial quotient                       -2.64096959
 !RHF STATE 1.4 Dipole moment           0.00000000     0.00000000    -1.54055289
 Dipole moment /Debye                   0.00000000     0.00000000    -3.91543841

 ELECTRON ORBITALS
 =================


   Orb  Occ    Energy  Couls-En    Coefficients

                                   1 1s      1 1s      1 1s      1 1s      1 1s      1 1s      1 1s      1 1s      1 1s      1 1s   
                                   1 1s      1 1s      1 1s      1 1s      1 1s      1 1s      1 1s      1 1s      1 1s      1 1s   
                                   1 1s      1 1s      1 1s      1 1s      1 1s      1 1s      1 1s      1 1s      1 1s      1 1s   
                                   1 1s      1 1s      1 1s      1 1s      1 1s      1 2pz     1 2pz     1 2pz     1 2pz     1 2pz  
                                   1 2pz     1 2pz     1 2pz     1 2pz     1 2pz     1 2pz     1 2pz     1 2pz     1 2pz     1 2pz  
                                   1 2pz     1 2pz     1 2pz     1 2pz     1 2pz     1 2pz     1 2pz     1 2pz     1 2pz     1 2pz  
                                   1 2pz     1 2pz     1 2pz     1 2pz     1 2pz     1 2pz     1 3d0     1 3d2+    1 3d0     1 3d2+ 
                                   1 3d0     1 3d2+    1 3d0     1 3d2+    1 3d0     1 3d2+    1 3d0     1 3d2+    1 3d0     1 3d2+ 
                                   1 3d0     1 3d2+    1 3d0     1 3d2+    1 3d0     1 3d2+    1 3d0     1 3d2+    1 3d0     1 3d2+ 
                                   1 3d0     1 3d2+    1 3d0     1 3d2+    1 3d0     1 3d2+    1 3d0     1 3d2+    1 3d0     1 3d2+ 
                                   1 3d0     1 3d2+    1 3d0     1 3d2+    1 3d0     1 3d2+    1 3d0     1 3d2+    1 3d0     1 3d2+ 
                                   1 4f0     1 4f2+    1 4f0     1 4f2+    1 4f0     1 4f2+    1 4f0     1 4f2+    1 4f0     1 4f2+ 
                                   1 4f0     1 4f2+    1 4f0     1 4f2+    1 4f0     1 4f2+    1 4f0     1 4f2+    1 4f0     1 4f2+ 
                                   1 4f0     1 4f2+    1 4f0     1 4f2+    1 4f0     1 4f2+    1 4f0     1 4f2+    1 4f0     1 4f2+ 
                                   1 4f0     1 4f2+    1 4f0     1 4f2+    1 5g0     1 5g4+    1 5g2+    1 5g0     1 5g4+    1 5g2+ 
                                   1 5g0     1 5g4+    1 5g2+    2 1s      2 1s      2 1s      2 1s      2 1s      2 1s      2 1s   
                                   2 1s      2 1s      2 1s      2 1s      2 1s      2 1s      2 2pz     2 2pz     2 2pz     2 2pz  
                                   2 2pz     2 2pz     2 2pz     2 2pz     2 3d0     2 3d2+    2 3d0     2 3d2+    2 3d0     2 3d2+ 
                                   2 3d0     2 3d2+    2 4f0     2 4f2+    2 4f0     2 4f2+ 

   1.1   2    -4.2826  -20.8172  0.000000 -0.000000  0.000000 -0.000000  0.000000 -0.000000  0.000000 -0.000000  0.000000 -0.000001
                                 0.000002 -0.000005  0.000012 -0.000030  0.000077 -0.000192  0.000480 -0.001186  0.002907 -0.006915
                                 0.016358 -0.036539  0.080955 -0.172272  0.312322 -0.095679 -2.176933  1.809443  0.198218  0.758627
                                 0.070879  0.079702 -0.036040 -0.004394  0.000541 -0.000000  0.000000 -0.000000  0.000000 -0.000000
                                 0.000000 -0.000000  0.000000 -0.000000  0.000000 -0.000000  0.000001 -0.000003  0.000007 -0.000016
                                 0.000038 -0.000086  0.000192 -0.000435  0.001183 -0.003912  0.036626 -0.045860  0.027543 -0.591552
                                 0.586529 -0.025495  0.020692 -0.017640 -0.000496  0.000426  0.000000  0.000000 -0.000000 -0.000000
                                 0.000000  0.000000 -0.000000 -0.000000  0.000002  0.000000 -0.000006 -0.000000  0.000017  0.000000
                                -0.000044 -0.000001  0.000102  0.000003 -0.000226 -0.000009  0.000487  0.000019 -0.001311 -0.000141
                                 0.005226  0.000479 -0.014874 -0.001731  0.014358  0.001260 -0.009273  0.002949  0.031520  0.000993
                                -0.023399  0.000875  0.003964 -0.000138  0.004055 -0.000128 -0.006687  0.000006  0.001452 -0.000003
                                -0.000000 -0.000000  0.000000  0.000000 -0.000002 -0.000000  0.000007  0.000001 -0.000019 -0.000002
                                 0.000051  0.000006 -0.000128  0.000003  0.000371 -0.000030 -0.002558  0.000078  0.006819 -0.000246
                                -0.012384 -0.000198  0.012957 -0.000828 -0.011190  0.000249  0.006574  0.000135  0.000695  0.000066
                                -0.002401 -0.000022  0.000976  0.000008  0.000119  0.000074 -0.000128 -0.000275  0.000740 -0.000772
                                 0.000539  0.000385 -0.000375  0.000000 -0.000000  0.000001 -0.000005  0.000039  0.001100  0.001507
                                 0.005987 -0.000898 -0.008814 -0.002852 -0.000597  0.022367 -0.000061 -0.000606 -0.001472 -0.003874
                                 0.006029 -0.000026  0.000016 -0.005955  0.000474  0.000028  0.002823  0.000299  0.000019  0.000002
                                -0.001899  0.000136 -0.000548 -0.000055 -0.001271 -0.000222

   2.1   2    -2.5336  -17.0527  0.000000 -0.000000  0.000000 -0.000000  0.000000 -0.000000  0.000000 -0.000000  0.000000 -0.000000
                                 0.000000 -0.000000  0.000000 -0.000000  0.000000 -0.000000  0.000001 -0.000002  0.000006 -0.000014
                                 0.000034 -0.000079  0.000191 -0.000453  0.000878  0.000461 -0.014376  0.012459  0.008407 -0.015730
                                 0.015928 -0.022131 -0.014246 -0.003919  0.000314 -0.000000  0.000000 -0.000000  0.000000 -0.000000
                                 0.000000 -0.000000  0.000000 -0.000001  0.000005 -0.000014  0.000041 -0.000112  0.000282 -0.000667
                                 0.001463 -0.003196  0.005291 -0.009039 -0.017704  0.144766 -1.450969  1.296862  0.052540  2.271429
                                -1.624852  0.278729 -0.001741 -0.005979 -0.001607  0.000409  0.000000 -0.000000 -0.000000  0.000000
                                 0.000000 -0.000000 -0.000000  0.000000  0.000000 -0.000000 -0.000001  0.000000  0.000003 -0.000000
                                -0.000008  0.000001  0.000017 -0.000002 -0.000031  0.000007  0.000070 -0.000014 -0.000066  0.000080
                                 0.000697 -0.000112 -0.001905  0.000279  0.001912 -0.000167 -0.002705 -0.001430 -0.008567 -0.000208
                                 0.005799 -0.001742 -0.008266  0.001179 -0.006616  0.000896 -0.000824  0.000050 -0.000274  0.000010
                                -0.000000  0.000000  0.000000 -0.000000 -0.000001  0.000000  0.000002 -0.000001 -0.000006  0.000004
                                 0.000015 -0.000009 -0.000049  0.000041  0.000161 -0.000086 -0.001666 -0.000184  0.005022 -0.000406
                                -0.006777  0.000728  0.008531 -0.002198 -0.000217 -0.000590 -0.003120 -0.001720 -0.002744 -0.000404
                                 0.001148  0.000075 -0.000574 -0.000027  0.000021 -0.000013  0.000102  0.000647 -0.000005 -0.000104
                                -0.000899  0.000014  0.000789 -0.000000  0.000000 -0.000003  0.000023 -0.000235 -0.003277 -0.010885
                                 0.036831  0.009094  0.037723 -0.000807  0.003291  0.014815 -0.000475 -0.004645 -0.013303 -0.027454
                                -0.022235 -0.000190  0.000129 -0.002194  0.002288  0.000073  0.008526  0.000676  0.000101 -0.000004
                                 0.003748  0.000488 -0.001800 -0.000206 -0.001305 -0.000432

   3.1   2    -1.2763  -11.7017 -0.000000  0.000000 -0.000000  0.000000 -0.000000  0.000000 -0.000000  0.000000 -0.000000  0.000000
                                -0.000000  0.000000 -0.000001  0.000002 -0.000006  0.000015 -0.000038  0.000095 -0.000234  0.000557
                                -0.001330  0.003001 -0.006818  0.015153 -0.029944  0.020248  0.204814 -0.192586  0.013482 -0.252046
                                 0.139044  0.009123 -0.062474 -0.019454  0.003071  0.000000 -0.000000  0.000000 -0.000000  0.000000
                                -0.000000  0.000000 -0.000000  0.000000 -0.000001  0.000003 -0.000009  0.000023 -0.000059  0.000139
                                -0.000308  0.000680 -0.001185  0.002218  0.001877 -0.022925  0.268533 -0.248243 -0.004973 -0.584276
                                 0.445623 -0.026851 -0.037418 -0.034421 -0.002307  0.001005  0.000000 -0.000000 -0.000000  0.000000
                                 0.000000 -0.000000 -0.000000  0.000000  0.000002 -0.000000 -0.000006  0.000000  0.000018 -0.000000
                                -0.000049  0.000001  0.000120 -0.000003 -0.000330  0.000008  0.000663 -0.000016 -0.002853  0.000059
                                 0.004087 -0.000179 -0.004327  0.000535 -0.005060 -0.000419  0.045781 -0.000503 -0.031095 -0.000947
                                 0.096700  0.000093  0.038078  0.000596 -0.014325  0.000415 -0.006251 -0.000107  0.001088 -0.000010
                                -0.000000  0.000000  0.000000 -0.000000 -0.000001  0.000000  0.000004 -0.000000 -0.000014  0.000000
                                 0.000031 -0.000001 -0.000118 -0.000003  0.000290 -0.000001 -0.002744  0.000111  0.010525  0.000086
                                -0.013702  0.000025  0.016394  0.000597  0.002928  0.001186  0.002272  0.002066 -0.005150  0.001124
                                -0.000384 -0.000275  0.000776  0.000075  0.000754  0.000026  0.000002  0.003701 -0.000050  0.000859
                                 0.000580 -0.000082  0.000836 -0.000001  0.000006 -0.000048  0.000318 -0.003316 -0.049757 -0.163058
                                 0.552395  0.156055  0.414061 -0.002372  0.047986  0.080531 -0.000850 -0.007954 -0.022712 -0.051749
                                -0.073726 -0.000242  0.000234 -0.016895  0.002382 -0.000672  0.015357 -0.000423  0.000123 -0.000158
                                 0.015947 -0.001325 -0.001746 -0.000236 -0.003111 -0.001098

   4.1   2    -0.5987  -10.6471  0.000000 -0.000000  0.000000 -0.000000  0.000000 -0.000000  0.000000 -0.000000  0.000000 -0.000000
                                 0.000000 -0.000000  0.000001 -0.000002  0.000006 -0.000015  0.000038 -0.000093  0.000229 -0.000546
                                 0.001301 -0.002930  0.006632 -0.014736  0.029735 -0.028422 -0.151300  0.139910  0.006962  0.215150
                                -0.113879 -0.011230  0.060944  0.049091 -0.008199 -0.000000  0.000000 -0.000000  0.000000 -0.000000
                                 0.000000 -0.000000  0.000000 -0.000000  0.000000 -0.000001  0.000003 -0.000008  0.000021 -0.000050
                                 0.000106 -0.000235  0.000329 -0.000518 -0.003360  0.021539 -0.256026  0.271638 -0.060849  1.527682
                                -1.417737  0.033586  0.016039  0.040463  0.011698 -0.004102 -0.000000  0.000000  0.000000 -0.000000
                                -0.000000  0.000000  0.000002 -0.000000 -0.000007  0.000001  0.000024 -0.000004 -0.000072  0.000012
                                 0.000194 -0.000033 -0.000474  0.000082  0.001272 -0.000227 -0.002584  0.000460  0.010719 -0.002016
                                -0.018842  0.003555  0.032082 -0.006710 -0.002295  0.001428 -0.145543  0.027665  0.044612 -0.000378
                                -0.261714  0.041747 -0.169365  0.034131 -0.055070  0.014389  0.010556  0.001279 -0.000686 -0.000037
                                 0.000000  0.000000 -0.000001 -0.000000  0.000007  0.000000 -0.000024 -0.000000  0.000071  0.000001
                                -0.000182 -0.000003  0.000523  0.000013 -0.001513 -0.000033  0.010606  0.000152 -0.030709 -0.000762
                                 0.041539  0.001100 -0.041999 -0.001793  0.009870 -0.000163 -0.009115 -0.002505  0.002563 -0.001487
                                 0.001713  0.000128  0.001239 -0.000163 -0.000941  0.000248 -0.000320 -0.005397  0.000416 -0.001150
                                -0.002446  0.000750 -0.000850 -0.000000  0.000002 -0.000012  0.000080 -0.000823 -0.013246 -0.040916
                                 0.135121  0.042277  0.115030  0.003150  0.012110 -0.065396  0.006983  0.072653  0.232925  0.376166
                                 0.273418  0.004103 -0.001839  0.033353 -0.008264 -0.000316 -0.028190 -0.001149 -0.000375 -0.000049
                                -0.019229 -0.001291  0.003855  0.001495  0.004747  0.001201

   5.1   2    -0.4740  -11.2427 -0.000000  0.000000 -0.000000  0.000000 -0.000000  0.000000 -0.000000  0.000000 -0.000000  0.000000
                                -0.000000  0.000000 -0.000001  0.000002 -0.000004  0.000010 -0.000024  0.000060 -0.000148  0.000354
                                -0.000844  0.001905 -0.004330  0.009690 -0.019842  0.020899  0.090546 -0.079542 -0.030975 -0.059587
                                -0.007175  0.055289  0.041859 -0.002148  0.001142  0.000000 -0.000000  0.000000 -0.000000  0.000000
                                -0.000000  0.000000 -0.000000  0.000000 -0.000000  0.000001 -0.000002  0.000005 -0.000012  0.000029
                                -0.000065  0.000144 -0.000259  0.000510  0.000134 -0.003709  0.049746 -0.046191 -0.003329 -0.041386
                                 0.012533 -0.003618  0.017542  0.004247 -0.001319  0.000617 -0.000000  0.000000  0.000000 -0.000000
                                -0.000000  0.000001  0.000000 -0.000003 -0.000001  0.000011  0.000002 -0.000039 -0.000005  0.000115
                                 0.000015 -0.000314 -0.000037  0.000773  0.000112 -0.002140 -0.000225  0.004338  0.001136 -0.019043
                                -0.001733  0.032993  0.003094 -0.060324  0.000103  0.010573 -0.018957  0.261153  0.002588 -0.012669
                                -0.030284  0.402247 -0.019066  0.342896 -0.011741  0.173734 -0.003933  0.028023  0.000215 -0.000701
                                -0.000000  0.000000  0.000000 -0.000000 -0.000001  0.000001  0.000003 -0.000002 -0.000010  0.000006
                                 0.000023 -0.000015 -0.000075  0.000048  0.000196 -0.000118 -0.001392  0.000970  0.004808 -0.003624
                                -0.006186  0.005444  0.007682 -0.007809 -0.001967  0.003238  0.007300 -0.009176  0.001228 -0.006350
                                -0.000682 -0.000140  0.000012 -0.000371  0.000694  0.001717  0.000109  0.001006  0.002808  0.001729
                                 0.001998  0.003890  0.002955  0.000000 -0.000000  0.000001 -0.000008  0.000078  0.001252  0.003893
                                -0.014716 -0.004061 -0.014798 -0.000264 -0.001149  0.002928 -0.001273 -0.013271 -0.042791 -0.067691
                                -0.052699 -0.000751  0.000335 -0.007079  0.000603  0.001266  0.001878  0.004960  0.000029  0.000069
                                 0.001800  0.002916 -0.000159 -0.001240 -0.000152 -0.001728

   6.1   2    -0.3486   -9.0249 -0.000000  0.000000 -0.000000  0.000000 -0.000000  0.000000 -0.000000  0.000000 -0.000000  0.000000
                                -0.000000  0.000001 -0.000003  0.000009 -0.000022  0.000055 -0.000138  0.000342 -0.000840  0.002001
                                -0.004777  0.010786 -0.024555  0.055122 -0.113829  0.127845  0.471574 -0.405201 -0.205474 -0.232174
                                -0.178078  0.272423  0.536912  0.153479 -0.000984  0.000000 -0.000000  0.000000 -0.000000  0.000000
                                -0.000000  0.000000 -0.000000  0.000000 -0.000000  0.000001 -0.000002  0.000007 -0.000017  0.000039
                                -0.000089  0.000197 -0.000376  0.000763 -0.000551 -0.001356  0.021660 -0.009283 -0.025240  0.423637
                                -0.447165  0.014650 -0.019228 -0.031118 -0.006379  0.001021 -0.000000 -0.000000  0.000000  0.000000
                                -0.000000 -0.000000  0.000002  0.000000 -0.000006 -0.000002  0.000020  0.000006 -0.000061 -0.000017
                                 0.000166  0.000047 -0.000407 -0.000116  0.001122  0.000322 -0.002280 -0.000652  0.009932  0.002897
                                -0.017691 -0.005038  0.033274  0.009549 -0.007641 -0.002079 -0.132672 -0.040731  0.005425  0.001497
                                -0.210155 -0.060161 -0.175005 -0.048162 -0.106662 -0.024504 -0.023627 -0.005863  0.000621 -0.000035
                                -0.000000 -0.000000  0.000000  0.000000 -0.000000 -0.000000  0.000000  0.000000 -0.000002 -0.000001
                                 0.000001  0.000001 -0.000032 -0.000012  0.000035  0.000028 -0.000537 -0.000211  0.003629  0.001128
                                -0.002809 -0.001299  0.006905  0.003128  0.001680  0.000256  0.014006  0.003086  0.008272  0.002768
                                 0.000915  0.000138  0.001473  0.000283 -0.000013  0.000325 -0.000971 -0.001221 -0.000130 -0.001210
                                -0.001217 -0.000209 -0.001431  0.000000 -0.000000  0.000004 -0.000024  0.000243  0.004234  0.011292
                                -0.032526 -0.010181 -0.032968 -0.002938 -0.003560 -0.023867 -0.002250 -0.023191 -0.074235 -0.118524
                                -0.108268 -0.001201  0.000596 -0.024188 -0.001391 -0.000169 -0.004275 -0.000043 -0.000059  0.000003
                                 0.002333  0.000891  0.001207 -0.000259  0.001130 -0.001033

   7.1   0    -0.0061   -5.0858 -0.000000  0.000000 -0.000000  0.000000 -0.000000  0.000000 -0.000000  0.000000 -0.000000  0.000000
                                -0.000000  0.000000 -0.000000  0.000001 -0.000002  0.000004 -0.000010  0.000024 -0.000059  0.000140
                                -0.000331  0.000740 -0.001646  0.003598 -0.007434  0.012373 -0.010456  0.022984 -0.048992  0.100511
                                -0.109984  0.028336 -0.037532 -0.478991  0.809855 -0.000000  0.000000 -0.000000  0.000000 -0.000000
                                 0.000000 -0.000000  0.000000 -0.000000  0.000001 -0.000004  0.000013 -0.000035  0.000088 -0.000210
                                 0.000472 -0.001046  0.001996 -0.004056  0.002781  0.008341 -0.144924  0.093357  0.097759 -1.363453
                                 1.497786 -0.013940  0.005110 -0.480418 -0.167760 -0.282885  0.000000  0.000000 -0.000000 -0.000000
                                 0.000000  0.000000 -0.000001 -0.000000  0.000005  0.000000 -0.000016 -0.000002  0.000048  0.000005
                                -0.000130 -0.000013  0.000317  0.000031 -0.000840 -0.000087  0.001728  0.000176 -0.007042 -0.000789
                                 0.014367  0.001296 -0.030607 -0.002197  0.014717  0.000062  0.074445  0.011372  0.029818 -0.001169
                                 0.100019  0.017181  0.130868  0.015163  0.097734  0.012660 -0.016980  0.007973  0.161889  0.011269
                                -0.000000 -0.000000  0.000000  0.000000 -0.000000 -0.000000  0.000002  0.000000 -0.000004 -0.000000
                                 0.000014  0.000000 -0.000014 -0.000002  0.000094 -0.000005 -0.000227 -0.000111 -0.001368  0.000607
                                -0.000663 -0.000325  0.000071  0.001251 -0.008058 -0.000479 -0.004429  0.000307 -0.022578 -0.004168
                                -0.029109 -0.000882  0.013381 -0.004975 -0.000386  0.000420  0.000335 -0.000704  0.000891 -0.000073
                                 0.000592  0.000525  0.001573  0.000000 -0.000000  0.000000 -0.000003  0.000045 -0.000070  0.003579
                                -0.033093 -0.005481 -0.030279  0.004923 -0.000678  0.362777  0.002186  0.022439  0.071770  0.117805
                                 0.136225  0.001117 -0.000580 -0.087528  0.001551  0.000103  0.003584 -0.000459  0.000068  0.000005
                                -0.010074  0.000497 -0.000947  0.000325 -0.000009  0.000950

   8.1   0     0.0323   -2.5009  0.000000 -0.000000  0.000000 -0.000000  0.000000 -0.000000  0.000000 -0.000000  0.000000 -0.000000
                                 0.000000 -0.000000  0.000000 -0.000001  0.000002 -0.000004  0.000010 -0.000024  0.000059 -0.000140
                                 0.000330 -0.000737  0.001632 -0.003559  0.007441 -0.013114  0.008741 -0.014584  0.019677  0.053436
                                -0.071638  0.043988  0.608738  1.211432 -0.523991  0.000000 -0.000000  0.000000 -0.000000  0.000000
                                -0.000000  0.000000 -0.000000  0.000000 -0.000000  0.000001 -0.000002  0.000005 -0.000012  0.000029
                                -0.000063  0.000139 -0.000196  0.000317  0.001967 -0.012587  0.147780 -0.154396  0.029963 -0.796135
                                 0.734568 -0.060153  0.282680  0.578579  1.387131 -1.619587  0.000000 -0.000000 -0.000000  0.000000
                                 0.000000 -0.000000 -0.000001  0.000000  0.000002 -0.000000 -0.000007  0.000000  0.000021 -0.000001
                                -0.000050  0.000002  0.000107 -0.000006 -0.000157  0.000021  0.000402 -0.000040  0.000317  0.000219
                                 0.006835 -0.000210 -0.026664  0.000033  0.036373  0.000734 -0.082095 -0.004598  0.122342  0.002327
                                -0.188160 -0.007643  0.016738 -0.004883  0.045153 -0.006310  0.282513 -0.002481  0.146166 -0.012024
                                -0.000000 -0.000000  0.000002  0.000000 -0.000010 -0.000000  0.000035  0.000001 -0.000104 -0.000003
                                 0.000273  0.000008 -0.000723 -0.000020  0.002155  0.000066 -0.013988 -0.000354  0.037529  0.000756
                                -0.060893 -0.001520  0.069068  0.001241 -0.063115 -0.001371  0.075672  0.000881  0.006170  0.000199
                                 0.106155  0.003438  0.021524 -0.004825  0.000205 -0.000205 -0.000147 -0.000072 -0.000406 -0.000055
                                 0.008878 -0.000142 -0.000698 -0.000000  0.000000 -0.000001  0.000010 -0.000109 -0.001131 -0.005441
                                 0.058828  0.005287 -0.145929 -0.003629  0.001575 -1.845812 -0.000854 -0.008501 -0.026405 -0.043433
                                 0.208734 -0.000326  0.000230  0.237803  0.000517 -0.000045 -0.015255  0.000188 -0.000088 -0.000007
                                -0.058797 -0.000602 -0.000149 -0.000097  0.005200 -0.000392

                                   1 2px     1 2px     1 2px     1 2px     1 2px     1 2px     1 2px     1 2px     1 2px     1 2px  
                                   1 2px     1 2px     1 2px     1 2px     1 2px     1 2px     1 2px     1 2px     1 2px     1 2px  
                                   1 2px     1 2px     1 2px     1 2px     1 2px     1 2px     1 2px     1 2px     1 2px     1 2px  
                                   1 2px     1 3d1+    1 3d1+    1 3d1+    1 3d1+    1 3d1+    1 3d1+    1 3d1+    1 3d1+    1 3d1+ 
                                   1 3d1+    1 3d1+    1 3d1+    1 3d1+    1 3d1+    1 3d1+    1 3d1+    1 3d1+    1 3d1+    1 3d1+ 
                                   1 3d1+    1 3d1+    1 3d1+    1 4f1+    1 4f3+    1 4f1+    1 4f3+    1 4f1+    1 4f3+    1 4f1+ 
                                   1 4f3+    1 4f1+    1 4f3+    1 4f1+    1 4f3+    1 4f1+    1 4f3+    1 4f1+    1 4f3+    1 4f1+ 
                                   1 4f3+    1 4f1+    1 4f3+    1 4f1+    1 4f3+    1 4f1+    1 4f3+    1 4f1+    1 4f3+    1 4f1+ 
                                   1 4f3+    1 4f1+    1 4f3+    1 4f1+    1 4f3+    1 4f1+    1 4f3+    1 5g1+    1 5g3+    1 5g1+ 
                                   1 5g3+    1 5g1+    1 5g3+    2 2px     2 2px     2 2px     2 2px     2 2px     2 2px     2 2px  
                                   2 2px     2 3d1+    2 3d1+    2 3d1+    2 3d1+    2 4f1+    2 4f3+    2 4f1+    2 4f3+ 

   1.2   2    -2.5103  -16.8807 -0.000000  0.000000 -0.000000  0.000000 -0.000000  0.000000 -0.000000  0.000000 -0.000001  0.000005
                                -0.000014  0.000041 -0.000111  0.000280 -0.000662  0.001451 -0.003168  0.005216 -0.008849 -0.018509
                                 0.148141 -1.485614  1.337857  0.032584  2.757590 -2.104145  0.291728  0.022323  0.001462  0.000018
                                 0.000060 -0.000000  0.000000 -0.000000  0.000000 -0.000000  0.000001 -0.000002  0.000004 -0.000011
                                 0.000028 -0.000059  0.000236 -0.000491  0.001056 -0.000614 -0.001491 -0.003160 -0.002942 -0.002822
                                -0.001335  0.000101  0.000137 -0.000000  0.000000  0.000000 -0.000000 -0.000000  0.000000  0.000000
                                -0.000001 -0.000001  0.000003  0.000004 -0.000014  0.000003  0.000002  0.000060 -0.000153 -0.000723
                                 0.000813  0.000055  0.001860 -0.000415  0.001377 -0.001637  0.004495  0.001014  0.002330 -0.002877
                                 0.002583 -0.000969  0.000528  0.000097 -0.000123  0.000097  0.000050 -0.000062  0.000017  0.000443
                                -0.000501  0.000041  0.000070  0.000136  0.001297  0.003783  0.007132  0.004791  0.000037 -0.000037
                                -0.000503 -0.000654 -0.002851 -0.000035 -0.001461  0.000606  0.000044  0.000776  0.000088

   2.2   2    -0.5005  -10.3853  0.000000 -0.000000  0.000000 -0.000000  0.000000 -0.000000  0.000000 -0.000000  0.000000 -0.000000
                                 0.000002 -0.000004  0.000012 -0.000030  0.000071 -0.000158  0.000351 -0.000642  0.001271 -0.000009
                                -0.007302  0.098392 -0.085949 -0.017341  0.157208 -0.222761  0.001677  0.023325  0.021062  0.001252
                                -0.000953  0.000000 -0.000000  0.000000 -0.000002  0.000006 -0.000022  0.000064 -0.000175  0.000430
                                -0.001185  0.002399 -0.010426  0.017396 -0.028815 -0.000491  0.146637 -0.022064  0.236194  0.206186
                                 0.083272  0.018585 -0.001743 -0.000000 -0.000000  0.000001  0.000000 -0.000002 -0.000000  0.000008
                                 0.000000 -0.000026 -0.000001  0.000061  0.000003 -0.000201 -0.000005  0.000481  0.000025 -0.003734
                                -0.000194  0.013486  0.000213 -0.015459 -0.000623  0.017429  0.000350  0.004347 -0.000611  0.016750
                                 0.001085 -0.004894  0.001119  0.002121  0.000137  0.000266  0.000030  0.000240  0.000609  0.006308
                                 0.001151  0.005986  0.002197  0.006052  0.062321  0.198748  0.326082  0.273175  0.003358 -0.001602
                                 0.026051 -0.007248 -0.031075 -0.000390 -0.032694  0.003387  0.001448  0.007867  0.002043

   3.2   0    -0.0164   -8.1031 -0.000000  0.000000 -0.000000  0.000000 -0.000000  0.000000 -0.000000  0.000000 -0.000000  0.000001
                                -0.000003  0.000009 -0.000023  0.000058 -0.000139  0.000309 -0.000686  0.001248 -0.002462 -0.000210
                                 0.015460 -0.206554  0.184944  0.023774  0.132698 -0.008304  0.032326 -0.090514 -0.180368 -0.146902
                                -0.162046  0.000000 -0.000000  0.000000 -0.000002  0.000007 -0.000024  0.000072 -0.000197  0.000485
                                -0.001347  0.002729 -0.012023  0.020384 -0.035686  0.002945  0.168205 -0.013566  0.263943  0.230409
                                 0.175869  0.102296  0.059557  0.000000 -0.000000 -0.000000  0.000000  0.000000 -0.000000 -0.000002
                                 0.000000  0.000006 -0.000001 -0.000009  0.000001  0.000059 -0.000004 -0.000093  0.000008  0.001203
                                -0.000009 -0.006788  0.000078  0.008877 -0.000078 -0.013858  0.000099  0.002487 -0.000232 -0.021322
                                -0.000393 -0.017098 -0.001870 -0.007413 -0.000856 -0.012626 -0.002318 -0.000812  0.000232 -0.001618
                                -0.000219 -0.001487  0.001359 -0.003708 -0.038479 -0.124115 -0.200875 -0.210883 -0.002137  0.000978
                                -0.127316 -0.001438 -0.002004 -0.000049  0.005481  0.001038 -0.000835 -0.000300 -0.001107

   4.2   0     0.0279   -2.9068  0.000000 -0.000000  0.000000 -0.000000  0.000000 -0.000000  0.000000 -0.000000  0.000000 -0.000001
                                 0.000003 -0.000008  0.000022 -0.000057  0.000138 -0.000319  0.000704 -0.001551  0.003397 -0.008811
                                 0.028435 -0.283141  0.358165 -0.195640  3.941417 -3.899660  0.123247 -0.118777  0.143831 -0.889046
                                 1.427412  0.000000 -0.000000  0.000000 -0.000001  0.000003 -0.000009  0.000027 -0.000075  0.000185
                                -0.000522  0.001052 -0.004774  0.007653 -0.012597 -0.000871  0.071600 -0.012720  0.116129  0.090243
                                 0.077532 -0.043126 -0.215806  0.000000  0.000000 -0.000001 -0.000000  0.000003  0.000000 -0.000012
                                -0.000001  0.000037  0.000003 -0.000093 -0.000008  0.000263  0.000022 -0.000745 -0.000067  0.005104
                                 0.000423 -0.015300 -0.001115  0.023694  0.001820 -0.028672 -0.002027  0.019049  0.001604 -0.025813
                                -0.001344  0.009898  0.001473 -0.045928 -0.003588 -0.062798  0.007176 -0.000251  0.000074 -0.001176
                                 0.000060 -0.000181  0.000337 -0.001684 -0.018593 -0.063202 -0.095198 -0.131192 -0.001436  0.000429
                                 0.235537 -0.000852  0.000760 -0.000012 -0.006097 -0.000047 -0.000433  0.000962 -0.000455

                                   1 2py     1 2py     1 2py     1 2py     1 2py     1 2py     1 2py     1 2py     1 2py     1 2py  
                                   1 2py     1 2py     1 2py     1 2py     1 2py     1 2py     1 2py     1 2py     1 2py     1 2py  
                                   1 2py     1 2py     1 2py     1 2py     1 2py     1 2py     1 2py     1 2py     1 2py     1 2py  
                                   1 2py     1 3d1-    1 3d1-    1 3d1-    1 3d1-    1 3d1-    1 3d1-    1 3d1-    1 3d1-    1 3d1- 
                                   1 3d1-    1 3d1-    1 3d1-    1 3d1-    1 3d1-    1 3d1-    1 3d1-    1 3d1-    1 3d1-    1 3d1- 
                                   1 3d1-    1 3d1-    1 3d1-    1 4f1-    1 4f3-    1 4f1-    1 4f3-    1 4f1-    1 4f3-    1 4f1- 
                                   1 4f3-    1 4f1-    1 4f3-    1 4f1-    1 4f3-    1 4f1-    1 4f3-    1 4f1-    1 4f3-    1 4f1- 
                                   1 4f3-    1 4f1-    1 4f3-    1 4f1-    1 4f3-    1 4f1-    1 4f3-    1 4f1-    1 4f3-    1 4f1- 
                                   1 4f3-    1 4f1-    1 4f3-    1 4f1-    1 4f3-    1 4f1-    1 4f3-    1 5g1-    1 5g3-    1 5g1- 
                                   1 5g3-    1 5g1-    1 5g3-    2 2py     2 2py     2 2py     2 2py     2 2py     2 2py     2 2py  
                                   2 2py     2 3d1-    2 3d1-    2 3d1-    2 3d1-    2 4f1-    2 4f3-    2 4f1-    2 4f3- 

   1.3   2    -2.5001  -16.8703 -0.000000  0.000000 -0.000000  0.000000 -0.000000  0.000000 -0.000000  0.000000 -0.000001  0.000005
                                -0.000014  0.000041 -0.000111  0.000280 -0.000661  0.001449 -0.003164  0.005210 -0.008847 -0.018443
                                 0.147720 -1.484927  1.339041  0.030820  2.772062 -2.121698  0.294486  0.025583  0.002238  0.000003
                                 0.000076 -0.000000  0.000000 -0.000000  0.000000 -0.000000  0.000000 -0.000001  0.000002 -0.000006
                                 0.000011 -0.000025  0.000025 -0.000252  0.000570 -0.000461  0.002593 -0.003039  0.002013 -0.004417
                                -0.002059  0.000188  0.000108  0.000000  0.000000 -0.000000 -0.000000  0.000000  0.000000 -0.000001
                                -0.000001  0.000001  0.000004 -0.000008 -0.000011 -0.000008  0.000038 -0.000060 -0.000107  0.000294
                                -0.000033  0.001586  0.000037  0.001148  0.000897  0.003171 -0.000989  0.003565 -0.000450 -0.000101
                                -0.001690 -0.000042 -0.000499 -0.000022  0.000105  0.000149 -0.000046 -0.000119  0.000062 -0.000386
                                -0.000428 -0.000587  0.000178  0.000059  0.000574  0.001657  0.003108  0.001288  0.000024 -0.000016
                                -0.000707 -0.000490 -0.001764 -0.000025 -0.000573  0.000515  0.000022  0.000465  0.000059

   2.3   2    -0.6030  -10.6006  0.000000 -0.000000  0.000000 -0.000000  0.000000 -0.000000  0.000000 -0.000000  0.000000 -0.000000
                                 0.000001 -0.000002  0.000006 -0.000015  0.000036 -0.000081  0.000178 -0.000324  0.000630  0.000034
                                -0.003793  0.046596 -0.038598 -0.011128  0.169164 -0.200887  0.001667 -0.019496 -0.009953  0.002101
                                -0.001285  0.000000 -0.000000  0.000000 -0.000002  0.000007 -0.000023  0.000068 -0.000186  0.000459
                                -0.001266  0.002565 -0.011203  0.019039 -0.033326  0.003141  0.156350 -0.018083  0.246418  0.204797
                                 0.069456  0.009930 -0.000245 -0.000000 -0.000000  0.000000  0.000000 -0.000002 -0.000000  0.000006
                                 0.000000 -0.000019 -0.000000  0.000046  0.000002 -0.000139 -0.000003  0.000367  0.000014 -0.002666
                                -0.000073  0.008154  0.000054 -0.009018 -0.000218  0.006954 -0.000004  0.005535 -0.000351  0.001835
                                 0.000450 -0.012064  0.000542 -0.000225  0.000056  0.001029  0.000006  0.000738  0.000410  0.006258
                                 0.000960  0.005426  0.001465  0.006695  0.069309  0.222056  0.351753  0.261564  0.003721 -0.001769
                                 0.018420 -0.005750 -0.021861 -0.000296 -0.020504  0.003692  0.001598  0.006066  0.001776

   3.3   2    -0.3878  -10.4559 -0.000000  0.000000 -0.000000  0.000000 -0.000000  0.000000 -0.000000  0.000000 -0.000000  0.000001
                                -0.000002  0.000006 -0.000016  0.000041 -0.000097  0.000216 -0.000479  0.000878 -0.001750  0.000078
                                 0.009735 -0.135844  0.120833  0.019566  0.018359  0.066165  0.011250 -0.065614 -0.068205 -0.001498
                                 0.000052  0.000000 -0.000000  0.000000 -0.000002  0.000009 -0.000031  0.000092 -0.000253  0.000625
                                -0.001742  0.003524 -0.015698  0.026805 -0.048958  0.007980  0.220813 -0.015582  0.341518  0.283106
                                 0.170263  0.027727  0.003682  0.000000  0.000000 -0.000000 -0.000000  0.000002  0.000000 -0.000007
                                -0.000000  0.000022  0.000001 -0.000050 -0.000002  0.000175  0.000004 -0.000416 -0.000018  0.003548
                                 0.000014 -0.013881  0.000049  0.019248  0.000309 -0.026688 -0.000003  0.008099 -0.000114 -0.030426
                                -0.000549 -0.005729 -0.000458 -0.008398 -0.000056  0.002183 -0.000013  0.000343  0.000629  0.000228
                                 0.001191  0.002008  0.001395 -0.005727 -0.059195 -0.190121 -0.301212 -0.274286 -0.003073  0.001515
                                -0.052600 -0.001159  0.001380 -0.000025  0.014586  0.000325 -0.001300 -0.002626 -0.001245

   4.3   0     0.0235   -2.4655  0.000000 -0.000000  0.000000 -0.000000  0.000000 -0.000000  0.000000 -0.000000  0.000000 -0.000001
                                 0.000004 -0.000010  0.000027 -0.000069  0.000167 -0.000383  0.000846 -0.001758  0.003741 -0.007048
                                 0.016794 -0.145724  0.214925 -0.167535  3.124411 -3.140185  0.085156 -0.059398  0.199838 -0.621004
                                 1.295615  0.000000 -0.000000  0.000000 -0.000000  0.000001 -0.000003  0.000008 -0.000022  0.000055
                                -0.000153  0.000310 -0.001380  0.002399 -0.004512  0.000974  0.019319 -0.001892  0.031161  0.023225
                                 0.016519 -0.063078 -0.220433  0.000000  0.000000 -0.000001 -0.000000  0.000003  0.000000 -0.000011
                                -0.000001  0.000032  0.000003 -0.000083 -0.000007  0.000225  0.000019 -0.000658 -0.000053  0.004304
                                 0.000352 -0.011981 -0.000991  0.019022  0.001390 -0.022149 -0.001691  0.016759  0.001416 -0.016554
                                -0.000236  0.016952  0.003431 -0.038546 -0.002711 -0.036703  0.009109  0.000046  0.000082 -0.000285
                                 0.000406  0.000313 -0.000119 -0.000545 -0.006673 -0.024477 -0.032174 -0.061087 -0.000719  0.000130
                                 0.218846 -0.000530  0.000472 -0.000008 -0.005638 -0.000326 -0.000163  0.000726 -0.000084

   5.3   0     0.0720   -3.4142 -0.000000  0.000000 -0.000000  0.000000 -0.000000  0.000000 -0.000000  0.000000 -0.000001  0.000002
                                -0.000005  0.000014 -0.000038  0.000098 -0.000237  0.000554 -0.001222  0.002789 -0.006199  0.018538
                                -0.065372  0.674615 -0.826115  0.405291 -8.450149  8.319063 -0.283503  0.289628 -0.259455  1.791732
                                -1.199011  0.000000 -0.000000  0.000001 -0.000003  0.000010 -0.000034  0.000100 -0.000259  0.000606
                                -0.001384  0.002979 -0.008696  0.030743 -0.086311  0.082106 -0.040629  0.216600 -0.144294  0.130901
                                -0.104441  0.260474 -0.548805  0.000000 -0.000000 -0.000001  0.000000  0.000002 -0.000000 -0.000008
                                 0.000001  0.000025 -0.000002 -0.000063  0.000005  0.000178 -0.000011 -0.000499  0.000045  0.003319
                                -0.000246 -0.009897  0.000449  0.014980 -0.001309 -0.018367  0.001040  0.011462 -0.000931 -0.014815
                                 0.002671 -0.007482  0.004902 -0.001621  0.002148  0.128245  0.008904 -0.000403  0.000143  0.001409
                                 0.000909 -0.004048 -0.000482 -0.001090 -0.011048 -0.034958 -0.057711 -0.037949 -0.000476  0.000292
                                -0.291962 -0.001194 -0.002759 -0.000054 -0.015068  0.000187 -0.000231  0.000385 -0.000134

                                   1 3d2-    1 3d2-    1 3d2-    1 3d2-    1 3d2-    1 3d2-    1 3d2-    1 3d2-    1 3d2-    1 3d2- 
                                   1 3d2-    1 3d2-    1 3d2-    1 3d2-    1 3d2-    1 3d2-    1 3d2-    1 3d2-    1 3d2-    1 3d2- 
                                   1 3d2-    1 3d2-    1 4f2-    1 4f2-    1 4f2-    1 4f2-    1 4f2-    1 4f2-    1 4f2-    1 4f2- 
                                   1 4f2-    1 4f2-    1 4f2-    1 4f2-    1 4f2-    1 4f2-    1 4f2-    1 4f2-    1 4f2-    1 5g2- 
                                   1 5g4-    1 5g2-    1 5g4-    1 5g2-    1 5g4-    2 3d2-    2 3d2-    2 3d2-    2 3d2-    2 4f2- 
                                   2 4f2- 

   1.4   +    -0.5098  -11.3871  0.000000 -0.000000  0.000001 -0.000003  0.000012 -0.000040  0.000117 -0.000322  0.000792 -0.002191
                                 0.004443 -0.019507  0.033661 -0.060697  0.008786  0.269026 -0.013733  0.418204  0.349267  0.165261
                                 0.022797 -0.000576  0.000000 -0.000000  0.000001 -0.000002  0.000007 -0.000016  0.000052 -0.000129
                                 0.001032 -0.003849  0.005810 -0.008448  0.003227 -0.009870 -0.006291  0.000098 -0.000405 -0.000630
                                 0.001680 -0.000157  0.002929  0.001377  0.003789  0.001153  0.004591  0.000061  0.002183 -0.000959
                                -0.001393

   2.4   0     0.0812   -2.6093 -0.000000  0.000000 -0.000001  0.000005 -0.000018  0.000063 -0.000184  0.000474 -0.001099  0.002419
                                -0.005272  0.013811 -0.056978  0.167095 -0.169693  0.148440 -0.457067  0.399452 -0.187642  0.213091
                                -0.481424  1.257013 -0.000000  0.000001 -0.000007  0.000023 -0.000069  0.000182 -0.000472  0.001419
                                -0.008948  0.022992 -0.037744  0.041417 -0.036224  0.026281 -0.037564  0.091836 -0.178001  0.000041
                                -0.000064 -0.000040 -0.000328  0.000077  0.000176  0.000410 -0.000640  0.000003  0.005645 -0.000161
                                 0.000646

   3.4   0     0.1474   -2.5550 -0.000000  0.000000 -0.000000  0.000001 -0.000004  0.000012 -0.000035  0.000091 -0.000210  0.000456
                                -0.000998  0.002531 -0.010931  0.032439 -0.033485  0.032320 -0.091085  0.084041 -0.034012  0.045697
                                -0.096440  0.168683  0.000002 -0.000014  0.000067 -0.000237  0.000697 -0.001843  0.004786 -0.014410
                                 0.090784 -0.232910  0.381709 -0.417257  0.363964 -0.259338  0.369305 -1.002148  1.624438 -0.000002
                                -0.000009 -0.000024  0.000013  0.000375 -0.000047  0.000865  0.001528  0.000023 -0.001274 -0.000815
                                 0.001321

 HOMO      6.1    -0.348636 =      -9.4869eV
 LUMO      3.2    -0.016372 =      -0.4455eV
 LUMO-HOMO         0.332264 =       9.0414eV


 **********************************************************************************************************************************
 DATASETS  * FILE   NREC   LENGTH (MB)   RECORD NAMES
              1      19       22.57       500      610      700      900      950      970     1000      129      960     1100   
                                          VAR    BASINP    GEOM    SYMINP    ZMAT    AOBASIS   BASIS     P2S    ABASIS      S 
                                         1400     1410     1420     1200     1210     1080     1600     1650     1700   
                                           T        V       ECP      H0       H01     AOSYM     SMH    MOLCAS    OPER   

              2       4        4.55       700     1000      520     2100   
                                         GEOM     BASIS   MCVARS     RHF  

 PROGRAMS   *        TOTAL       RHF       INT
 CPU TIMES  *       243.94     17.41    226.27
 REAL TIME  *       258.98 SEC
 DISK USED  *        11.62 GB      
 SF USED    *         0.25 MB      
 GA USED    *         0.00 MB       (max)       0.00 MB       (current)
 **********************************************************************************************************************************
 SETTING SCF(3)         =      -119.62209215  AU                              


 PROGRAM * CCSD (Restricted open-shell coupled cluster)     Authors: C. Hampel, H.-J. Werner, 1991, M. Deegan, P.J. Knowles, 1992


 Convergence thresholds:  THRVAR = 1.00D-08  THRDEN = 1.00D-06

 CCSD(T)     terms to be evaluated (factor= 1.000)


 Number of closed-shell orbitals:  11 (   6   2   3   0 )
 Number of active  orbitals:        1 (   0   0   0   1 )
 Number of external orbitals:     443 ( 180 107 106  50 )

 Memory could be reduced to 445.68 Mwords without degradation in triples

 Number of N-1 electron functions:              23
 Number of N-2 electron functions:             253
 Number of singly external CSFs:              3275
 Number of doubly external CSFs:           9817564
 Total number of CSFs:                     9820839

 Molecular orbitals read from record     2100.2  Type=RHF/CANONICAL (state 1.4)

 Integral transformation finished. Total CPU:  16.15 sec, npass=  1  Memory used:  43.25 MW

 Starting RMP2 calculation

 Wavefunction is spin-projected

