
 Primary working directories    : /global/cscratch1/sd/bkincaid
 Secondary working directories  : /global/cscratch1/sd/bkincaid
 Wavefunction directory         : /global/homes/b/bkincaid/wfu/
 Main file repository           : /global/cscratch1/sd/bkincaid/

 SHA1      : 19cd028119e0e09f93f0674bd8af7968d9b3eff6
 NAME      : 2015.1.36
 ARCHNAME  : linux/x86_64
 FC        : /opt/cray/pe/craype/2.5.14/bin/ftn
 BLASLIB   : -L/opt/intel/compilers_and_libraries_2018.1.163/linux/mkl/lib/intel64 -Wl,-_start-group -lmkl_intel_ilp64 -lmkl_intel_thread -lmkl_core -Wl,-_end-group -liomp5
 id        : lbl

 Nodes     nprocs
 nid00760    11
 Number of processes for MPI-2 version of Molpro:   nprocs(total)=   12   nprocs(compute)=   11   nprocs(helper)=    1

 Using customized tuning parameters: mindgm=7; mindgv=16; mindgc=1; mindgr=1; noblas=0; minvec=7
 default implementation of scratch files=sf  

 ***,Calculation for IrO groundstate
 memory,1024,m
 gthresh,twoint=1.0E-15
 gthresh,throvl=1.0E-15
                                                                                 !symmetry,nosym
 
 basis={
 Including file /global/u1/b/bkincaid/molpro/Ir/molecules/tz/IrO/ecps/CRENBL/crenbl
 
 Including file /global/u1/b/bkincaid/molpro/Ir/molecules/tz/IrO/ecps/CRENBL/tz.basis
 
 ecp,O,2,1,0
 3
 1,  12.30997,  6.000000
 3,  14.76962,  73.85984
 2,  13.71419, -47.87600
 1
 2,  13.65512,  85.86406
 
 Including file /global/u1/b/bkincaid/molpro/Ir/molecules/tz/IrO/ecps/CRENBL/O-aug-cc-CVTZ.basis
 }
 
 ne = 23
 
 A1=6
 B1=2
 B2=3
 A2=1
 
 
 do i=2,2
         if(i.eq.1) then
                 z(i) = 1.500
         else if(i.eq.2) then
                 z(i) = 1.600
         else if(i.eq.3) then
                 z(i) = 1.700
         else if(i.eq.4) then
                 z(i) = 1.800
         else if(i.eq.5) then
                 z(i) = 1.900
         endif
 
 geometry={
 2
 IrO
 Ir 0.0 0.0 0.0
 O 0.0 0.0 z(i)
 }
 
 
 {rhf,maxdis=25,iptyp='DIIS',nitord=30,maxit=60; shift,-1.0,-0.5
 wf,nelec=ne,spin=1,sym=4
 occ,A1,B1,B2,A2
 closed,A1,B1,B2,A2-1
 print,orbitals=2
         }
 scf(i)=energy
 {rccsd(t),shifts=0.2,shiftp=0.2,thrdis=1.0;diis,1,1,15,1;maxit,100;core}
 ccsd(i)=energy
 enddo
 
 table,z,scf,ccsd
 save
 type,csv
 

 Variables initialized (889), CPU time= 0.01 sec
 Commands  initialized (702), CPU time= 0.01 sec, 572 directives.
 Default parameters read. Elapsed time= 0.13 sec

 Checking input...
 Passed
1


                                         ***  PROGRAM SYSTEM MOLPRO  ***
                                       Copyright, TTI GmbH Stuttgart, 2015
                                    Version 2015.1 linked Dec 29 2018 15:55:43


 **********************************************************************************************************************************
 LABEL *   Calculation for IrO groundstate                                               
  64 bit mpp version                                                                     DATE: 09-Mar-21          TIME: 16:33:11  
 **********************************************************************************************************************************

 SHA1:             19cd028119e0e09f93f0674bd8af7968d9b3eff6
 **********************************************************************************************************************************

 THRESHOLDS:

 ZERO    =  1.00D-12  ONEINT  =  1.00D-12  TWOINT  =  1.00D-15  PREFAC  =  1.00D-14  LOCALI  =  1.00D-09  EORDER  =  1.00D-04
 ENERGY  =  0.00D+00  ETEST   =  0.00D+00  EDENS   =  0.00D+00  THRDEDEF=  1.00D-06  GRADIENT=  1.00D-02  STEP    =  1.00D-03
 ORBITAL =  1.00D-05  CIVEC   =  1.00D-05  COEFF   =  1.00D-04  PRINTCI =  5.00D-02  PUNCHCI =  9.90D+01  OPTGRAD =  3.00D-04
 OPTENERG=  1.00D-06  OPTSTEP =  3.00D-04  THRGRAD =  1.00D-10  COMPRESS=  1.00D-11  VARMIN  =  1.00D-07  VARMAX  =  1.00D-03
 THRDOUB =  0.00D+00  THRDIV  =  1.00D-05  THRRED  =  1.00D-07  THRPSP  =  1.00D+00  THRDC   =  1.00D-10  THRCS   =  1.00D-10
 THRNRM  =  1.00D-08  THREQ   =  0.00D+00  THRDE   =  1.00D+00  THRREF  =  1.00D-05  SPARFAC =  1.00D+00  THRDLP  =  1.00D-07
 THRDIA  =  1.00D-10  THRDLS  =  1.00D-07  THRGPS  =  0.00D+00  THRKEX  =  0.00D+00  THRDIS  =  2.00D-01  THRVAR  =  1.00D-10
 THRLOC  =  1.00D-06  THRGAP  =  1.00D-06  THRLOCT = -1.00D+00  THRGAPT = -1.00D+00  THRORB  =  1.00D-06  THRMLTP =  0.00D+00
 THRCPQCI=  1.00D-10  KEXTA   =  0.00D+00  THRCOARS=  0.00D+00  SYMTOL  =  1.00D-06  GRADTOL =  1.00D-06  THROVL  =  1.00D-08
 THRORTH =  1.00D-08  GRID    =  1.00D-06  GRIDMAX =  1.00D-03  DTMAX   =  0.00D+00  THROCCDE=  1.00D-01  THROCCDE=  1.00D-01



 THRESHOLDS:

 ZERO    =  1.00D-12  ONEINT  =  1.00D-12  TWOINT  =  1.00D-15  PREFAC  =  1.00D-14  LOCALI  =  1.00D-09  EORDER  =  1.00D-04
 ENERGY  =  0.00D+00  ETEST   =  0.00D+00  EDENS   =  0.00D+00  THRDEDEF=  1.00D-06  GRADIENT=  1.00D-02  STEP    =  1.00D-03
 ORBITAL =  1.00D-05  CIVEC   =  1.00D-05  COEFF   =  1.00D-04  PRINTCI =  5.00D-02  PUNCHCI =  9.90D+01  OPTGRAD =  3.00D-04
 OPTENERG=  1.00D-06  OPTSTEP =  3.00D-04  THRGRAD =  1.00D-10  COMPRESS=  1.00D-11  VARMIN  =  1.00D-07  VARMAX  =  1.00D-03
 THRDOUB =  0.00D+00  THRDIV  =  1.00D-05  THRRED  =  1.00D-07  THRPSP  =  1.00D+00  THRDC   =  1.00D-10  THRCS   =  1.00D-10
 THRNRM  =  1.00D-08  THREQ   =  0.00D+00  THRDE   =  1.00D+00  THRREF  =  1.00D-05  SPARFAC =  1.00D+00  THRDLP  =  1.00D-07
 THRDIA  =  1.00D-10  THRDLS  =  1.00D-07  THRGPS  =  0.00D+00  THRKEX  =  0.00D+00  THRDIS  =  2.00D-01  THRVAR  =  1.00D-10
 THRLOC  =  1.00D-06  THRGAP  =  1.00D-06  THRLOCT = -1.00D+00  THRGAPT = -1.00D+00  THRORB  =  1.00D-06  THRMLTP =  0.00D+00
 THRCPQCI=  1.00D-10  KEXTA   =  0.00D+00  THRCOARS=  0.00D+00  SYMTOL  =  1.00D-06  GRADTOL =  1.00D-06  THROVL  =  1.00D-15
 THRORTH =  1.00D-08  GRID    =  1.00D-06  GRIDMAX =  1.00D-03  DTMAX   =  0.00D+00  THROCCDE=  1.00D-01  THROCCDE=  1.00D-01



 Variable memory set to 1024000000 words,  buffer space   230000 words

 SETTING BASIS          =    USERDEF
 SETTING NE             =        23.00000000                                  
 SETTING A1             =         6.00000000                                  
 SETTING B1             =         2.00000000                                  
 SETTING B2             =         3.00000000                                  
 SETTING A2             =         1.00000000                                  

 DO I                   =         2.00000000   
 SETTING Z(2)           =         1.60000000                                  

Geometry recognized as XYZ



 Recomputing integrals since basis changed


 Using spherical harmonics



 PROGRAM * SEWARD (Integral evaluation for generally contracted gaussian basis sets)     Author: Roland Lindh, 1990

 Geometry written to block  1 of record 700


 Point group  C2v 



 ATOMIC COORDINATES

 NR  ATOM    CHARGE       X              Y              Z

   1  IR     17.00    0.000000000    0.000000000    0.000000000
   2  O       6.00    0.000000000    0.000000000    3.023561799

 Bond lengths in Bohr (Angstrom)

 1-2  3.023561799
     ( 1.600000000)

 NUCLEAR CHARGE:                   23
 NUMBER OF PRIMITIVE AOS:         556
 NUMBER OF SYMMETRY AOS:          455
 NUMBER OF CONTRACTIONS:          455   ( 186A1  + 109B1  + 109B2  +  51A2  )
 NUMBER OF CORE ORBITALS:           4   (   2A1  +   1B1  +   1B2  +   0A2  )
 NUMBER OF VALENCE ORBITALS:       10   (   5A1  +   2B1  +   2B2  +   1A2  )


 NUCLEAR REPULSION ENERGY   33.73504720

 EXTRA SYMMETRY OF AOS IN SYMMETRY 1:   1 1 1 1 1 1 1 1 1 1   1 1 1 1 1 1 1 1 1 1   1 1 1 1 1 1 1 1 1 1   1 1 1 1 1 1 1 1 1 1
                                        1 1 1 1 1 1 1 1 1 1   1 1 1 1 1 1 1 1 1 1   1 1 1 1 1 1 1 2 1 2   1 2 1 2 1 2 1 2 1 2
                                        1 2 1 2 1 2 1 2 1 2   1 2 1 2 1 2 1 2 1 2   1 2 1 2 1 2 1 2 1 2   1 2 1 2 1 2 1 2 1 2
                                        1 2 1 2 1 2 1 2 1 2   1 2 1 2 1 2 1 2 1 2   1 2 1 2 1 3 2 1 3 2   1 3 2 1 1 1 1 1 1 1
                                        1 1 1 1 1 1 1 1 1 1   1 1 1 1 1 2 1 2 1 2   1 2 1 2 1 2
 EXTRA SYMMETRY OF AOS IN SYMMETRY 2:   1 1 1 1 1 1 1 1 1 1   1 1 1 1 1 1 1 1 1 1   1 1 1 1 1 1 1 1 1 1   1 1 1 1 1 1 1 1 1 1
                                        1 1 1 1 1 1 1 1 1 1   1 1 1 1 2 1 2 1 2 1   2 1 2 1 2 1 2 1 2 1   2 1 2 1 2 1 2 1 2 1
                                        2 1 2 1 2 1 2 1 2 1   2 1 2 1 1 1 1 1 1 1   1 1 1 1 1 1 2 1 2
 EXTRA SYMMETRY OF AOS IN SYMMETRY 3:   1 1 1 1 1 1 1 1 1 1   1 1 1 1 1 1 1 1 1 1   1 1 1 1 1 1 1 1 1 1   1 1 1 1 1 1 1 1 1 1
                                        1 1 1 1 1 1 1 1 1 1   1 1 1 1 2 1 2 1 2 1   2 1 2 1 2 1 2 1 2 1   2 1 2 1 2 1 2 1 2 1
                                        2 1 2 1 2 1 2 1 2 1   2 1 2 1 1 1 1 1 1 1   1 1 1 1 1 1 2 1 2
 EXTRA SYMMETRY OF AOS IN SYMMETRY 4:   1 1 1 1 1 1 1 1 1 1   1 1 1 1 1 1 1 1 1 1   1 1 1 1 1 1 1 1 1 1   1 1 1 1 1 1 1 1 1 1
                                        2 1 2 1 2 1 1 1 1 1   1

 Eigenvalues of metric

         1 0.732E-07 0.926E-06 0.345E-05 0.104E-04 0.155E-04 0.160E-04 0.249E-04 0.423E-04
         2 0.907E-07 0.372E-05 0.153E-04 0.523E-04 0.539E-04 0.125E-03 0.141E-03 0.433E-03
         3 0.907E-07 0.372E-05 0.153E-04 0.523E-04 0.539E-04 0.125E-03 0.141E-03 0.433E-03
         4 0.155E-04 0.537E-04 0.146E-03 0.607E-03 0.970E-03 0.208E-02 0.547E-02 0.578E-02


 Contracted 2-electron integrals neglected if value below      1.0D-15

 Warning: maximum contribution to expansion of semi-local PP integrals   0.9D+12

 AO integral compression algorithm  1   Integral accuracy      1.0D-15

     4838.130 MB (compressed) written to integral file ( 37.8%)

     Node minimum: 288.883 MB, node maximum: 913.834 MB

  31982049      RECORD LENGTH: 524288

 Memory used in sort:      32.54 MW

 SORT1 READ  1600176772. AND WROTE    48944183. INTEGRALS IN    142 RECORDS. CPU TIME:    25.12 SEC, REAL TIME:    34.17 SEC
 SORT2 READ   537107522. AND WROTE  1376419418. INTEGRALS IN  12309 RECORDS. CPU TIME:     1.54 SEC, REAL TIME:     4.66 SEC

 Node minimum:   125060912.  Node maximum:   125200036. integrals

 OPERATOR DM      FOR CENTER  0  COORDINATES:    0.000000    0.000000    0.000000


 **********************************************************************************************************************************
 DATASETS  * FILE   NREC   LENGTH (MB)   RECORD NAMES
              1      19       22.50       500      610      700      900      950      970     1000      129      960     1100   
                                          VAR    BASINP    GEOM    SYMINP    ZMAT    AOBASIS   BASIS     P2S    ABASIS      S 
                                         1400     1410     1420     1200     1210     1080     1600     1650     1700   
                                           T        V       ECP      H0       H01     AOSYM     SMH    MOLCAS    OPER   

 PROGRAMS   *        TOTAL       INT
 CPU TIMES  *       202.83    202.48
 REAL TIME  *       225.31 SEC
 DISK USED  *        11.26 GB      
 GA USED    *         0.00 MB       (max)       0.00 MB       (current)
 **********************************************************************************************************************************
 Molecular orbital dump at record        2100.2

 ITERATION    DDIFF          GRAD             ENERGY        2-EL.EN.            DIPOLE MOMENTS         DIIS   ORB.
    1      0.000D+00      0.000D+00      -119.57936570    242.390290    0.00000    0.00000   -1.96162    0    start
    2      0.000D+00      0.541D-02      -119.60520937    241.377083    0.00000    0.00000   -1.48136    1    diag,B
    3      0.133D-01      0.155D-02      -119.61001134    241.333763    0.00000    0.00000   -1.45325    2    diag,B
    4      0.458D-02      0.813D-03      -119.61244109    241.248505    0.00000    0.00000   -1.38541    3    diag,B
    5      0.342D-02      0.498D-03      -119.61401101    241.129416    0.00000    0.00000   -1.35008    4    diag,B
    6      0.212D-02      0.304D-03      -119.61483249    241.030299    0.00000    0.00000   -1.31615    5    diag,B
    7      0.160D-02      0.180D-03      -119.61518104    240.944188    0.00000    0.00000   -1.28774    6    diag,B
    8      0.629D-03      0.105D-03      -119.61530335    240.900755    0.00000    0.00000   -1.26600    7    diag,B
    9      0.616D-03      0.651D-04      -119.61535512    240.872410    0.00000    0.00000   -1.25010    8    diag,B
   10      0.612D-03      0.424D-04      -119.61536816    240.862227    0.00000    0.00000   -1.24449    9    orth
   11      0.269D-03      0.323D-04      -119.61537899    240.850720    0.00000    0.00000   -1.23826   10    diag,B
   12      0.224D-03      0.222D-04      -119.61538414    240.842874    0.00000    0.00000   -1.23465   11    diag,B
   13      0.196D-03      0.163D-04      -119.61538775    240.836117    0.00000    0.00000   -1.23175   12    diag,B
   14      0.441D-04      0.121D-04      -119.61538849    240.834187    0.00000    0.00000   -1.23087   13    diag,B
   15      0.546D-04      0.879D-05      -119.61538931    240.831134    0.00000    0.00000   -1.22951   14    diag,B
   16      0.110D-03      0.607D-05      -119.61538947    240.830395    0.00000    0.00000   -1.22906   15    diag,B
   17      0.232D-04      0.722D-05      -119.61538950    240.830208    0.00000    0.00000   -1.22893   16    diag,B
   18      0.313D-03      0.204D-04      -119.61538951    240.830202    0.00000    0.00000   -1.22893   17    diag,B
   19      0.330D-03      0.853D-05      -119.61538952    240.830167    0.00000    0.00000   -1.22888   18    diag,B
   20      0.303D-04      0.832D-05      -119.61538961    240.829472    0.00000    0.00000   -1.22843   19    orth
   21      0.208D-04      0.806D-05      -119.61538961    240.829081    0.00000    0.00000   -1.22828   20    diag,B
   22      0.781D-04      0.622D-05      -119.61538965    240.829208    0.00000    0.00000   -1.22821   21    diag,B
   23      0.892D-04      0.563D-05      -119.61538963    240.828859    0.00000    0.00000   -1.22814   22    diag,B
   24      0.125D-03      0.891D-05      -119.61538966    240.829079    0.00000    0.00000   -1.22812   23    diag,B
   25      0.116D-03      0.440D-05      -119.61538967    240.828986    0.00000    0.00000   -1.22805   24    diag,B
   26      0.339D-04      0.846D-05      -119.61538967    240.828944    0.00000    0.00000   -1.22804   24    diag,B
   27      0.145D-04      0.128D-04      -119.61538967    240.828899    0.00000    0.00000   -1.22798   24    diag,B
   28      0.268D-03      0.112D-04      -119.61538968    240.828879    0.00000    0.00000   -1.22797   24    diag,B
   29      0.271D-03      0.400D-05      -119.61538968    240.828737    0.00000    0.00000   -1.22782   24    fixocc
   30      0.560D-04      0.179D-04      -119.61538969    240.828686    0.00000    0.00000   -1.22783   24    orth
   31      0.574D-04      0.389D-05      -119.61538970    240.828622    0.00000    0.00000   -1.22775   24    diag,B
   32      0.803D-05      0.749D-05      -119.61538970    240.828517    0.00000    0.00000   -1.22763   24    diag,B
   33      0.301D-04      0.778D-05      -119.61538970    240.828494    0.00000    0.00000   -1.22764   24    diag,B
   34      0.136D-03      0.183D-04      -119.61538970    240.828429    0.00000    0.00000   -1.22762   24    diag,B
   35      0.123D-03      0.173D-05      -119.61538971    240.828273    0.00000    0.00000   -1.22753   24    diag,B
                                2 3d0     2 3d2+    2 4f0     2 4f2+    2 4f0     2 4f2+ 

   1.1   2    -4.2943  -20.9489  0.000000 -0.000000  0.000000 -0.000000  0.000000 -0.000000  0.000000 -0.000000  0.000000 -0.000001
                                 0.000002 -0.000005  0.000012 -0.000030  0.000076 -0.000191  0.000478 -0.001182  0.002897 -0.006893
                                 0.016306 -0.036426  0.080714 -0.171766  0.311168 -0.091494 -2.195597  1.831268  0.180805  0.794262
                                 0.043522  0.083048 -0.041924 -0.006320  0.000875 -0.000000  0.000000 -0.000000  0.000000 -0.000000
                                 0.000000 -0.000000  0.000000 -0.000000  0.000000 -0.000000  0.000001 -0.000002  0.000004 -0.000011
                                 0.000025 -0.000055  0.000121 -0.000274  0.000684 -0.002172  0.021052 -0.028239  0.021602 -0.543535
                                 0.544134 -0.026759  0.022226 -0.020872 -0.000453  0.000414  0.000000  0.000000 -0.000000 -0.000000
                                 0.000000  0.000000 -0.000001 -0.000000  0.000002  0.000000 -0.000007 -0.000000  0.000021  0.000001
                                -0.000055 -0.000002  0.000126  0.000006 -0.000279 -0.000016  0.000605  0.000032 -0.001607 -0.000151
                                 0.006499  0.000468 -0.018748 -0.001681  0.018389  0.001204 -0.013090  0.003059  0.041540  0.000627
                                -0.031910  0.001186  0.005022 -0.000177  0.003822 -0.000124 -0.007183  0.000004  0.001513 -0.000003
                                -0.000000 -0.000000  0.000000  0.000000 -0.000002 -0.000000  0.000005  0.000000 -0.000016 -0.000000
                                 0.000042  0.000001 -0.000101  0.000007  0.000298 -0.000035 -0.002291  0.000077  0.006442 -0.000245
                                -0.012548 -0.000273  0.014025 -0.000866 -0.012757  0.000319  0.007306  0.000075  0.000570  0.000082
                                -0.002365 -0.000032  0.000941  0.000012  0.000191  0.000075 -0.000140 -0.000313  0.000743 -0.000742
                                 0.000435  0.000382 -0.000414  0.000000 -0.000000  0.000001 -0.000004  0.000032  0.001005  0.000762
                                 0.008303 -0.000555 -0.009171 -0.002896 -0.000479  0.028875 -0.000079 -0.000874 -0.002520 -0.006492
                                 0.005272 -0.000082  0.000020 -0.007001  0.000858  0.000038  0.004318  0.000379  0.000031  0.000002
                                -0.001354  0.000147 -0.000688 -0.000087 -0.001664 -0.000250

   2.1   2    -2.5571  -17.2040 -0.000000  0.000000 -0.000000  0.000000 -0.000000  0.000000 -0.000000  0.000000 -0.000000  0.000000
                                -0.000000  0.000000 -0.000000  0.000000 -0.000001  0.000002 -0.000006  0.000015 -0.000037  0.000089
                                -0.000207  0.000460 -0.000995  0.002108 -0.004398  0.010026 -0.028393  0.035218 -0.024319  0.018228
                                -0.008351 -0.029284 -0.022057 -0.006772  0.000783 -0.000000  0.000000 -0.000000  0.000000 -0.000000
                                 0.000000 -0.000000  0.000000 -0.000001  0.000005 -0.000014  0.000040 -0.000109  0.000275 -0.000650
                                 0.001423 -0.003107  0.005116 -0.008678 -0.018180  0.145181 -1.448237  1.296491  0.049751  2.083334
                                -1.436051  0.265175 -0.006989 -0.010339 -0.001901  0.000504  0.000000 -0.000000 -0.000000  0.000000
                                 0.000000 -0.000000 -0.000000  0.000000  0.000001 -0.000000 -0.000004  0.000000  0.000013 -0.000000
                                -0.000032  0.000001  0.000075 -0.000003 -0.000159  0.000009  0.000350 -0.000018 -0.000820  0.000095
                                 0.003695 -0.000155 -0.010555  0.000410  0.010446 -0.000289 -0.009425 -0.001494  0.009421 -0.000648
                                -0.004668 -0.001465 -0.008657  0.001235 -0.008628  0.000948 -0.001616  0.000054 -0.000222  0.000007
                                 0.000000  0.000000 -0.000000 -0.000000  0.000000  0.000000 -0.000002 -0.000001  0.000004  0.000004
                                -0.000013 -0.000009  0.000016  0.000040 -0.000023 -0.000083 -0.001098 -0.000205  0.005051 -0.000314
                                -0.008754  0.000622  0.013568 -0.002136 -0.004699 -0.000404 -0.002020 -0.001793 -0.003621 -0.000395
                                 0.001421  0.000061 -0.000705 -0.000022  0.000304 -0.000012  0.000098  0.000932 -0.000010 -0.000007
                                -0.001236  0.000013  0.000780 -0.000000  0.000001 -0.000005  0.000035 -0.000361 -0.005297 -0.016606
                                 0.052525  0.012910  0.052998  0.000221  0.005083  0.023329 -0.000604 -0.006243 -0.018740 -0.038311
                                -0.029139 -0.000395  0.000159 -0.003569  0.003616  0.000093  0.012227  0.000805  0.000142 -0.000006
                                 0.004624  0.000470 -0.002552 -0.000287 -0.001959 -0.000469

   3.1   2    -1.3069  -12.1473 -0.000000  0.000000 -0.000000  0.000000 -0.000000  0.000000 -0.000000  0.000000 -0.000000  0.000000
                                -0.000000  0.000000 -0.000001  0.000003 -0.000008  0.000020 -0.000049  0.000122 -0.000300  0.000716
                                -0.001706  0.003844 -0.008707  0.019310 -0.038473  0.032064  0.216250 -0.195056 -0.017191 -0.246413
                                 0.131261 -0.008899 -0.075342 -0.023333  0.003703  0.000000 -0.000000  0.000000 -0.000000  0.000000
                                -0.000000  0.000000 -0.000000  0.000000 -0.000001  0.000004 -0.000011  0.000030 -0.000075  0.000179
                                -0.000396  0.000874 -0.001531  0.002870  0.002196 -0.028490  0.336909 -0.312337 -0.002697 -1.006544
                                 0.841311 -0.053364 -0.052428 -0.039504 -0.002809  0.001138  0.000000 -0.000000 -0.000000  0.000000
                                 0.000000 -0.000000 -0.000001  0.000000  0.000003 -0.000000 -0.000010  0.000000  0.000029 -0.000001
                                -0.000079  0.000002  0.000190 -0.000004 -0.000500  0.000010  0.001022 -0.000022 -0.004039  0.000077
                                 0.007284 -0.000243 -0.011904  0.000730  0.000460 -0.000591  0.049837 -0.000500 -0.020055 -0.001563
                                 0.104388  0.000632  0.040763  0.000268 -0.017033  0.000189 -0.006593 -0.000190  0.000980 -0.000006
                                -0.000000  0.000000  0.000000 -0.000000 -0.000001 -0.000000  0.000002 -0.000000 -0.000007 -0.000000
                                 0.000012 -0.000000 -0.000085 -0.000007  0.000200  0.000010 -0.002891  0.000083  0.012889  0.000215
                                -0.018008 -0.000137  0.024175  0.000887 -0.001615  0.001526  0.003831  0.001966 -0.005789  0.001178
                                 0.000175 -0.000352  0.000474  0.000102  0.001245  0.000030  0.000002  0.004146 -0.000066  0.001103
                                -0.000036 -0.000107  0.000661 -0.000001  0.000006 -0.000047  0.000314 -0.003276 -0.048984 -0.160947
                                 0.550304  0.152495  0.425418 -0.003159  0.047373  0.093384 -0.001029 -0.009736 -0.027830 -0.064925
                                -0.084741 -0.000324  0.000282 -0.018655  0.003137 -0.000595  0.018483 -0.000146  0.000142 -0.000144
                                 0.016840 -0.001377 -0.002204 -0.000348 -0.003271 -0.001116

   4.1   2    -0.6296  -10.8860  0.000000 -0.000000  0.000000 -0.000000  0.000000 -0.000000  0.000000 -0.000000  0.000000 -0.000000
                                 0.000000 -0.000000  0.000001 -0.000003  0.000007 -0.000018  0.000046 -0.000113  0.000276 -0.000659
                                 0.001562 -0.003508  0.007876 -0.017410  0.035966 -0.049765 -0.065450  0.040475  0.080596  0.113816
                                -0.056969  0.013184  0.078139  0.052410 -0.008681 -0.000000  0.000000 -0.000000  0.000000 -0.000000
                                 0.000000 -0.000000  0.000000 -0.000000  0.000001 -0.000002  0.000006 -0.000016  0.000039 -0.000093
                                 0.000206 -0.000455  0.000784 -0.001468 -0.001600  0.017847 -0.238046  0.249548 -0.056189  2.047288
                                -1.947394  0.063471  0.030356  0.049448  0.011409 -0.003843 -0.000000  0.000000  0.000000 -0.000000
                                -0.000001  0.000000  0.000002 -0.000000 -0.000010  0.000001  0.000034 -0.000003 -0.000099  0.000010
                                 0.000266 -0.000028 -0.000640  0.000069  0.001640 -0.000192 -0.003394  0.000389  0.012862 -0.001706
                                -0.027927  0.003004  0.058841 -0.005669 -0.029245  0.001170 -0.124390  0.023591 -0.003217 -0.000307
                                -0.231006  0.035367 -0.161728  0.028830 -0.047646  0.011794  0.012350  0.000865 -0.000562 -0.000015
                                 0.000000  0.000000 -0.000000 -0.000000  0.000002  0.000000 -0.000006 -0.000000  0.000020  0.000001
                                -0.000045 -0.000003  0.000200  0.000014 -0.000638 -0.000036  0.007495  0.000158 -0.028729 -0.000741
                                 0.046198  0.001123 -0.056373 -0.001855  0.021382 -0.000091 -0.012940 -0.002038  0.002612 -0.001124
                                 0.000648  0.000045  0.001821 -0.000119 -0.001330  0.000228 -0.000339 -0.006559  0.000387 -0.001202
                                -0.000232  0.000702 -0.000684 -0.000000  0.000002 -0.000013  0.000084 -0.000871 -0.013962 -0.043416
                                 0.139997  0.045423  0.122534  0.003140  0.012805 -0.077104  0.007057  0.073674  0.236805  0.385291
                                 0.270607  0.004266 -0.001855  0.030939 -0.009957 -0.000369 -0.033437 -0.001154 -0.000426 -0.000050
                                -0.019687 -0.001149  0.004769  0.001446  0.005599  0.000936

   5.1   2    -0.4801  -11.3637 -0.000000  0.000000 -0.000000  0.000000 -0.000000  0.000000 -0.000000  0.000000 -0.000000  0.000000
                                -0.000000  0.000000 -0.000001  0.000002 -0.000004  0.000010 -0.000024  0.000060 -0.000147  0.000349
                                -0.000833  0.001880 -0.004268  0.009544 -0.019611  0.021868  0.080507 -0.069033 -0.035292 -0.050005
                                -0.011431  0.054131  0.038476 -0.002141  0.000991  0.000000 -0.000000  0.000000 -0.000000  0.000000
                                -0.000000  0.000000 -0.000000  0.000000 -0.000000  0.000001 -0.000002  0.000006 -0.000014  0.000034
                                -0.000075  0.000167 -0.000310  0.000622 -0.000183 -0.002680  0.040983 -0.036414 -0.006017 -0.029354
                                 0.003385 -0.004314  0.016574  0.003216 -0.001139  0.000480 -0.000000  0.000000  0.000000 -0.000000
                                -0.000000  0.000001  0.000000 -0.000003 -0.000000  0.000011  0.000000 -0.000039 -0.000001  0.000115
                                 0.000005 -0.000315 -0.000014  0.000776  0.000057 -0.002147 -0.000107  0.004352  0.000749 -0.019129
                                -0.000529  0.033053 -0.000141 -0.060267  0.002914  0.010194 -0.018571  0.263273  0.007386 -0.014183
                                -0.030055  0.406426 -0.015615  0.343838 -0.010207  0.172272 -0.003693  0.027183  0.000164 -0.000702
                                -0.000000  0.000000  0.000000 -0.000000 -0.000000  0.000000  0.000000 -0.000002 -0.000001  0.000005
                                 0.000000 -0.000012 -0.000018  0.000036  0.000041 -0.000094 -0.000688  0.000793  0.003601 -0.002690
                                -0.005281  0.004447  0.007559 -0.006355 -0.002367  0.003646  0.006944 -0.007384  0.000919 -0.004865
                                -0.000673 -0.000231 -0.000056 -0.000231  0.000699  0.001772  0.000225  0.001092  0.002840  0.002192
                                 0.001867  0.003979  0.003078  0.000000 -0.000000  0.000001 -0.000006  0.000066  0.001062  0.003376
                                -0.012993 -0.003599 -0.015154 -0.000218 -0.000979  0.001634 -0.001112 -0.011601 -0.037404 -0.059300
                                -0.045002 -0.000660  0.000292 -0.005436  0.000517  0.001737  0.001771  0.006356  0.000022  0.000091
                                 0.001363  0.003174 -0.000175 -0.001582 -0.000173 -0.001907

   6.1   2    -0.3435   -8.8768 -0.000000  0.000000 -0.000000  0.000000 -0.000000  0.000000 -0.000000  0.000000 -0.000000  0.000000
                                -0.000001  0.000001 -0.000004  0.000009 -0.000023  0.000058 -0.000145  0.000358 -0.000880  0.002096
                                -0.005005  0.011301 -0.025728  0.057759 -0.119260  0.133563  0.497586 -0.429117 -0.209611 -0.256166
                                -0.179239  0.282695  0.573742  0.171691 -0.001656  0.000000 -0.000000  0.000000 -0.000000  0.000000
                                -0.000000  0.000000 -0.000000  0.000000 -0.000000  0.000001 -0.000002  0.000005 -0.000014  0.000033
                                -0.000075  0.000167 -0.000326  0.000669 -0.000722  0.000064  0.005730  0.005234 -0.023989  0.456035
                                -0.471911  0.017319 -0.029473 -0.035537 -0.006912  0.000726 -0.000000 -0.000000  0.000000  0.000000
                                -0.000000 -0.000000  0.000001  0.000000 -0.000005 -0.000001  0.000018  0.000005 -0.000054 -0.000015
                                 0.000147  0.000041 -0.000361 -0.000101  0.000993  0.000283 -0.002017 -0.000572  0.008786  0.002550
                                -0.015646 -0.004424  0.029529  0.008430 -0.006963 -0.001854 -0.116654 -0.036231  0.001878  0.001523
                                -0.184064 -0.053230 -0.154436 -0.041652 -0.095026 -0.020542 -0.020785 -0.005102  0.000497 -0.000088
                                 0.000000 -0.000000 -0.000000  0.000000  0.000001 -0.000000 -0.000004  0.000000  0.000009 -0.000001
                                -0.000028  0.000000  0.000044 -0.000010 -0.000162  0.000021  0.000464 -0.000174  0.001237  0.001036
                                 0.000267 -0.001102  0.003209  0.003144  0.003887  0.000350  0.010400  0.002793  0.006748  0.002441
                                 0.000428  0.000030  0.001427  0.000259 -0.000161  0.000353 -0.000963 -0.001206 -0.000081 -0.001163
                                -0.001306 -0.000209 -0.001403  0.000000 -0.000001  0.000004 -0.000029  0.000289  0.005010  0.013623
                                -0.039121 -0.012375 -0.046402 -0.003328 -0.004243 -0.038400 -0.002122 -0.021863 -0.069828 -0.111611
                                -0.102378 -0.001122  0.000562 -0.022687 -0.001986 -0.000219 -0.005851 -0.000069 -0.000090  0.000003
                                 0.001422  0.000680  0.001393 -0.000194  0.001340 -0.001009

   7.1   0     0.0037   -4.4548 -0.000000  0.000000 -0.000000  0.000000 -0.000000  0.000000 -0.000000  0.000000 -0.000000  0.000000
                                -0.000000  0.000000 -0.000000  0.000000 -0.000001  0.000002 -0.000004  0.000010 -0.000025  0.000059
                                -0.000146  0.000337 -0.000822  0.001965 -0.003846 -0.003472  0.086883 -0.097332  0.055383 -0.192930
                                 0.147746 -0.063029  0.249195  0.869845 -1.049645  0.000000 -0.000000  0.000000 -0.000000  0.000000
                                -0.000000  0.000000 -0.000000  0.000000 -0.000002  0.000005 -0.000014  0.000037 -0.000094  0.000224
                                -0.000505  0.001119 -0.002174  0.004465 -0.004300 -0.002459  0.084044 -0.022286 -0.127051  2.030424
                                -2.151726  0.042336 -0.055685  0.630939  0.056597  0.424785 -0.000000 -0.000000  0.000000  0.000000
                                -0.000000 -0.000000  0.000001  0.000000 -0.000005 -0.000000  0.000018  0.000001 -0.000053 -0.000004
                                 0.000142  0.000010 -0.000341 -0.000026  0.000869  0.000073 -0.001809 -0.000146  0.006848  0.000672
                                -0.015987 -0.001064  0.037415  0.001758 -0.024497  0.000104 -0.050545 -0.010250 -0.063942  0.001499
                                -0.048507 -0.015373 -0.127205 -0.012587 -0.071001 -0.010269  0.055343 -0.006144 -0.203698 -0.012804
                                 0.000000  0.000000 -0.000000 -0.000000  0.000002  0.000000 -0.000007 -0.000000  0.000019  0.000001
                                -0.000053 -0.000002  0.000114  0.000006 -0.000373 -0.000008  0.001792  0.000178 -0.002498 -0.000731
                                 0.006531  0.000614 -0.007129 -0.001316  0.014842  0.000820 -0.003373 -0.000596  0.027007  0.004263
                                 0.030513  0.000193 -0.028024  0.006128  0.000303 -0.000318 -0.000339  0.000743 -0.000866  0.000097
                                -0.000554 -0.000744 -0.001482  0.000000 -0.000000  0.000001 -0.000005  0.000034  0.001530  0.000061
                                 0.028372  0.002468  0.011462 -0.006406 -0.000483 -0.636609 -0.001923 -0.019662 -0.062626 -0.104324
                                -0.130139 -0.000943  0.000512  0.203752 -0.001938 -0.000119 -0.005353  0.000583 -0.000088 -0.000003
                                 0.013667 -0.000491  0.001162 -0.000256  0.000830 -0.000954

   8.1   0     0.0324   -2.3487  0.000000 -0.000000  0.000000 -0.000000  0.000000 -0.000000  0.000000 -0.000000  0.000000 -0.000000
                                 0.000000 -0.000000  0.000000 -0.000000  0.000001 -0.000001  0.000003 -0.000008  0.000020 -0.000048
                                 0.000118 -0.000271  0.000648 -0.001526  0.003047  0.000577 -0.046727  0.048275 -0.008586 -0.009436
                                 0.071079 -0.060212 -0.995323 -2.565260  1.408086 -0.000000  0.000000 -0.000000  0.000000 -0.000000
                                 0.000000 -0.000000  0.000000 -0.000000  0.000001 -0.000002  0.000007 -0.000018  0.000046 -0.000110
                                 0.000250 -0.000554  0.001140 -0.002414  0.004231 -0.009156  0.076869 -0.122200  0.110002 -2.329118
                                 2.358884 -0.062773 -0.190295 -1.079118 -1.244037  1.472065 -0.000000 -0.000000  0.000000  0.000000
                                -0.000000 -0.000000  0.000000  0.000000 -0.000001 -0.000000  0.000003  0.000000 -0.000009 -0.000001
                                 0.000020  0.000001 -0.000042 -0.000003  0.000039  0.000001 -0.000124 -0.000006 -0.000624 -0.000063
                                -0.002987 -0.000202  0.013140  0.000953 -0.019556 -0.001472  0.050954  0.004018 -0.067856 -0.004237
                                 0.118732  0.007407 -0.025958  0.001824 -0.096764  0.004665 -0.448705 -0.001044 -0.062209  0.017726
                                 0.000000  0.000000 -0.000002 -0.000000  0.000009  0.000000 -0.000031 -0.000001  0.000092  0.000002
                                -0.000241 -0.000006  0.000638  0.000015 -0.001910 -0.000049  0.012361  0.000270 -0.032845 -0.000613
                                 0.052709  0.001129 -0.057548 -0.001084  0.049820  0.000973 -0.065534 -0.000557 -0.015944  0.000174
                                -0.135773 -0.002635  0.013163  0.004395  0.000053  0.000108  0.000131 -0.000455  0.000364  0.000114
                                -0.009138  0.000270  0.000398  0.000000 -0.000000  0.000000 -0.000004  0.000050  0.000059  0.003280
                                -0.057596 -0.003846  0.247503  0.004660 -0.000738  2.811327  0.000320  0.003585  0.012812  0.014239
                                -0.265639  0.000311 -0.000081 -0.524216 -0.000771  0.000037  0.018874 -0.000195  0.000091  0.000006
                                 0.048756  0.000569 -0.000497  0.000019 -0.004502  0.000259

                                   1 2px     1 2px     1 2px     1 2px     1 2px     1 2px     1 2px     1 2px     1 2px     1 2px  
                                   1 2px     1 2px     1 2px     1 2px     1 2px     1 2px     1 2px     1 2px     1 2px     1 2px  
                                   1 2px     1 2px     1 2px     1 2px     1 2px     1 2px     1 2px     1 2px     1 2px     1 2px  
                                   1 2px     1 3d1+    1 3d1+    1 3d1+    1 3d1+    1 3d1+    1 3d1+    1 3d1+    1 3d1+    1 3d1+ 
                                   1 3d1+    1 3d1+    1 3d1+    1 3d1+    1 3d1+    1 3d1+    1 3d1+    1 3d1+    1 3d1+    1 3d1+ 
                                   1 3d1+    1 3d1+    1 3d1+    1 4f1+    1 4f3+    1 4f1+    1 4f3+    1 4f1+    1 4f3+    1 4f1+ 
                                   1 4f3+    1 4f1+    1 4f3+    1 4f1+    1 4f3+    1 4f1+    1 4f3+    1 4f1+    1 4f3+    1 4f1+ 
                                   1 4f3+    1 4f1+    1 4f3+    1 4f1+    1 4f3+    1 4f1+    1 4f3+    1 4f1+    1 4f3+    1 4f1+ 
                                   1 4f3+    1 4f1+    1 4f3+    1 4f1+    1 4f3+    1 4f1+    1 4f3+    1 5g1+    1 5g3+    1 5g1+ 
                                   1 5g3+    1 5g1+    1 5g3+    2 2px     2 2px     2 2px     2 2px     2 2px     2 2px     2 2px  
                                   2 2px     2 3d1+    2 3d1+    2 3d1+    2 3d1+    2 4f1+    2 4f3+    2 4f1+    2 4f3+ 

   1.2   2    -2.5191  -16.9977 -0.000000  0.000000 -0.000000  0.000000 -0.000000  0.000000 -0.000000  0.000000 -0.000001  0.000005
                                -0.000014  0.000041 -0.000111  0.000281 -0.000664  0.001454 -0.003174  0.005230 -0.008878 -0.018443
                                 0.147948 -1.483519  1.334867  0.034763  2.713802 -2.060144  0.290044  0.020967  0.001456  0.000147
                                 0.000030 -0.000000  0.000000 -0.000000  0.000000 -0.000000  0.000000 -0.000000  0.000001 -0.000003
                                 0.000010 -0.000020  0.000114 -0.000116  0.000061  0.000209 -0.001056 -0.003754 -0.000393 -0.003022
                                -0.002014  0.000176  0.000162 -0.000000  0.000000  0.000000 -0.000000 -0.000000  0.000000  0.000001
                                -0.000002 -0.000003  0.000003  0.000010 -0.000015 -0.000014  0.000003  0.000102 -0.000158 -0.001086
                                 0.000836  0.001421  0.001871 -0.002560  0.001414  0.000853  0.004487  0.000195  0.002383 -0.002988
                                 0.002580 -0.001319  0.000520  0.000214 -0.000122  0.000082  0.000050 -0.000032  0.000021  0.000718
                                -0.000509 -0.000328  0.000108  0.000168  0.001652  0.004909  0.009237  0.006227  0.000067 -0.000045
                                -0.000702 -0.001000 -0.003858 -0.000048 -0.001900  0.000929  0.000059  0.000931  0.000099

   2.2   2    -0.5519  -10.7359  0.000000 -0.000000  0.000000 -0.000000  0.000000 -0.000000  0.000000 -0.000000  0.000000 -0.000001
                                 0.000002 -0.000005  0.000014 -0.000034  0.000082 -0.000182  0.000404 -0.000736  0.001449  0.000117
                                -0.009053  0.120882 -0.108214 -0.014645  0.025094 -0.101990 -0.000017  0.013262  0.012727  0.001870
                                -0.001187  0.000000 -0.000000  0.000000 -0.000002  0.000007 -0.000023  0.000068 -0.000186  0.000455
                                -0.001235  0.002510 -0.010610  0.018545 -0.032067  0.002891  0.141813 -0.022786  0.237155  0.195564
                                 0.063346  0.012633 -0.001102 -0.000000 -0.000000  0.000001  0.000000 -0.000004 -0.000000  0.000014
                                 0.000000 -0.000042 -0.000001  0.000102  0.000003 -0.000325 -0.000004  0.000844  0.000026 -0.006598
                                -0.000206  0.022738  0.000180 -0.029704 -0.000626  0.033904  0.000265 -0.001006 -0.000558  0.019120
                                 0.001072 -0.008128  0.001046  0.001915  0.000058  0.000265  0.000036  0.000600  0.000599  0.007966
                                 0.001235  0.004142  0.002084  0.006215  0.064030  0.204017  0.336409  0.277552  0.003467 -0.001644
                                 0.020915 -0.008952 -0.036853 -0.000452 -0.036783  0.004729  0.001420  0.008775  0.001933

   3.2   0    -0.0092   -7.6288 -0.000000  0.000000 -0.000000  0.000000 -0.000000  0.000000 -0.000000  0.000000 -0.000000  0.000001
                                -0.000003  0.000009 -0.000025  0.000064 -0.000153  0.000341 -0.000756  0.001384 -0.002741  0.000020
                                 0.015846 -0.215268  0.190441  0.030081  0.058783  0.073859  0.033187 -0.094690 -0.197821 -0.144985
                                -0.232859  0.000000 -0.000000  0.000000 -0.000002  0.000007 -0.000023  0.000067 -0.000183  0.000452
                                -0.001256  0.002544 -0.011231  0.019006 -0.033263  0.002646  0.157795 -0.013913  0.248484  0.215968
                                 0.166840  0.103097  0.068037  0.000000 -0.000000 -0.000000  0.000000  0.000000 -0.000000 -0.000000
                                 0.000000  0.000002 -0.000001 -0.000000  0.000002  0.000033 -0.000005 -0.000028  0.000011  0.000809
                                -0.000025 -0.005501  0.000126  0.006950 -0.000154 -0.011499  0.000151  0.001850 -0.000333 -0.018865
                                -0.000361 -0.014812 -0.002269 -0.004465 -0.000798 -0.009938 -0.003194 -0.000815  0.000244 -0.001297
                                -0.000297 -0.001779  0.001484 -0.003281 -0.033889 -0.108829 -0.177970 -0.191017 -0.001820  0.000867
                                -0.133186 -0.001948 -0.003232 -0.000082  0.004744  0.001132 -0.000654  0.000229 -0.001008

   4.2   0     0.0300   -3.0602  0.000000 -0.000000  0.000000 -0.000000  0.000000 -0.000000  0.000000 -0.000000  0.000000 -0.000001
                                 0.000002 -0.000007  0.000019 -0.000047  0.000115 -0.000268  0.000593 -0.001344  0.002980 -0.008690
                                 0.030203 -0.308932  0.379804 -0.189308  3.904067 -3.844726  0.125994 -0.127498  0.091763 -1.032811
                                 1.480773  0.000000 -0.000000  0.000000 -0.000000  0.000002 -0.000007  0.000020 -0.000057  0.000146
                                -0.000452  0.000889 -0.004609  0.005429 -0.004832 -0.010512  0.089269 -0.040063  0.153414  0.091633
                                 0.102718 -0.084423 -0.183875  0.000000  0.000000 -0.000001 -0.000000  0.000004  0.000000 -0.000013
                                -0.000001  0.000038  0.000003 -0.000097 -0.000009  0.000276  0.000024 -0.000785 -0.000073  0.005458
                                 0.000470 -0.016505 -0.001221  0.025735  0.002003 -0.031346 -0.002227  0.021199  0.001755 -0.027830
                                -0.001505  0.013923  0.001256 -0.057992 -0.004106 -0.072033  0.007225 -0.000312  0.000101 -0.001328
                                -0.000006  0.000062  0.000525 -0.001750 -0.019216 -0.064993 -0.099070 -0.140390 -0.001445  0.000447
                                 0.315618 -0.001167  0.000740 -0.000029 -0.007344 -0.000073 -0.000401  0.001293 -0.000489

                                   1 2py     1 2py     1 2py     1 2py     1 2py     1 2py     1 2py     1 2py     1 2py     1 2py  
                                   1 2py     1 2py     1 2py     1 2py     1 2py     1 2py     1 2py     1 2py     1 2py     1 2py  
                                   1 2py     1 2py     1 2py     1 2py     1 2py     1 2py     1 2py     1 2py     1 2py     1 2py  
                                   1 2py     1 3d1-    1 3d1-    1 3d1-    1 3d1-    1 3d1-    1 3d1-    1 3d1-    1 3d1-    1 3d1- 
                                   1 3d1-    1 3d1-    1 3d1-    1 3d1-    1 3d1-    1 3d1-    1 3d1-    1 3d1-    1 3d1-    1 3d1- 
                                   1 3d1-    1 3d1-    1 3d1-    1 4f1-    1 4f3-    1 4f1-    1 4f3-    1 4f1-    1 4f3-    1 4f1- 
                                   1 4f3-    1 4f1-    1 4f3-    1 4f1-    1 4f3-    1 4f1-    1 4f3-    1 4f1-    1 4f3-    1 4f1- 
                                   1 4f3-    1 4f1-    1 4f3-    1 4f1-    1 4f3-    1 4f1-    1 4f3-    1 4f1-    1 4f3-    1 4f1- 
                                   1 4f3-    1 4f1-    1 4f3-    1 4f1-    1 4f3-    1 4f1-    1 4f3-    1 5g1-    1 5g3-    1 5g1- 
                                   1 5g3-    1 5g1-    1 5g3-    2 2py     2 2py     2 2py     2 2py     2 2py     2 2py     2 2py  
                                   2 2py     2 3d1-    2 3d1-    2 3d1-    2 3d1-    2 4f1-    2 4f3-    2 4f1-    2 4f3- 

   1.3   2    -2.5087  -16.9895 -0.000000  0.000000 -0.000000  0.000000 -0.000000  0.000000 -0.000000  0.000000 -0.000001  0.000005
                                -0.000014  0.000041 -0.000111  0.000281 -0.000663  0.001453 -0.003174  0.005231 -0.008891 -0.018358
                                 0.147508 -1.483076  1.336216  0.033231  2.725458 -2.074461  0.292454  0.024267  0.002295  0.000126
                                 0.000049  0.000000 -0.000000  0.000000 -0.000000  0.000000 -0.000000  0.000000 -0.000001  0.000003
                                -0.000009  0.000017 -0.000117  0.000143 -0.000468  0.000378  0.003464 -0.003397  0.004744 -0.004610
                                -0.002642  0.000262  0.000137 -0.000000  0.000000  0.000000 -0.000000 -0.000000  0.000000 -0.000000
                                -0.000001 -0.000001  0.000004 -0.000002 -0.000011 -0.000025  0.000038 -0.000023 -0.000111 -0.000025
                                -0.000018  0.002872  0.000060 -0.000801  0.000907  0.005489 -0.000989  0.002781 -0.000430 -0.000186
                                -0.001658 -0.000309 -0.000489  0.000077  0.000104  0.000145 -0.000045 -0.000096  0.000060 -0.000190
                                -0.000460 -0.000939  0.000174  0.000087  0.000887  0.002666  0.004842  0.002414  0.000054 -0.000023
                                -0.000933 -0.000810 -0.002632 -0.000038 -0.000968  0.000823  0.000035  0.000621  0.000062

   2.3   2    -0.6436  -10.9286  0.000000 -0.000000  0.000000 -0.000000  0.000000 -0.000000  0.000000 -0.000000  0.000000 -0.000000
                                 0.000001 -0.000003  0.000008 -0.000020  0.000047 -0.000104  0.000229 -0.000412  0.000793  0.000224
                                -0.005795  0.071420 -0.063468 -0.007510  0.019369 -0.062680 -0.002209 -0.027277 -0.013112  0.002469
                                -0.001419  0.000000 -0.000000  0.000000 -0.000002  0.000007 -0.000024  0.000072 -0.000197  0.000483
                                -0.001318  0.002677 -0.011434  0.020109 -0.036132  0.005774  0.153641 -0.019782  0.249917  0.196622
                                 0.055598  0.007031 -0.000095 -0.000000 -0.000000  0.000001  0.000000 -0.000003 -0.000000  0.000011
                                 0.000000 -0.000034 -0.000001  0.000085  0.000002 -0.000254 -0.000003  0.000709  0.000016 -0.005348
                                -0.000077  0.016673  0.000031 -0.022154 -0.000224  0.021856 -0.000067  0.000338 -0.000293  0.004086
                                 0.000461 -0.014386  0.000513  0.000213  0.000016  0.000641  0.000013  0.001084  0.000405  0.007712
                                 0.001032  0.003800  0.001408  0.006699  0.069438  0.222442  0.354361  0.263868  0.003777 -0.001769
                                 0.016786 -0.007287 -0.027031 -0.000350 -0.024744  0.004874  0.001520  0.007012  0.001684

   3.3   2    -0.3755  -10.5251 -0.000000  0.000000 -0.000000  0.000000 -0.000000  0.000000 -0.000000  0.000000 -0.000000  0.000001
                                -0.000002  0.000007 -0.000019  0.000048 -0.000114  0.000254 -0.000563  0.001035 -0.002067  0.000195
                                 0.010966 -0.155234  0.137539  0.023780  0.010809  0.086299  0.013936 -0.070024 -0.080357 -0.003253
                                 0.000060  0.000000 -0.000000  0.000000 -0.000002  0.000009 -0.000031  0.000091 -0.000251  0.000619
                                -0.001732  0.003501 -0.015692  0.026598 -0.048414  0.007348  0.223180 -0.018152  0.346048  0.285052
                                 0.176864  0.028383  0.004143  0.000000  0.000000 -0.000000 -0.000000  0.000002  0.000000 -0.000007
                                -0.000000  0.000022  0.000001 -0.000049 -0.000002  0.000181  0.000006 -0.000432 -0.000024  0.003902
                                 0.000035 -0.015400  0.000011  0.021295  0.000436 -0.029683 -0.000111  0.009497 -0.000076 -0.032312
                                -0.000667 -0.003940 -0.000612 -0.010039 -0.000063  0.002668 -0.000025  0.000223  0.000668  0.000189
                                 0.001149  0.001761  0.001549 -0.005678 -0.058512 -0.187342 -0.300477 -0.285118 -0.002967  0.001505
                                -0.056190 -0.001788  0.001204 -0.000065  0.015654  0.000324 -0.001167 -0.002271 -0.001267

   4.3   0     0.0244   -2.4280  0.000000 -0.000000  0.000000 -0.000000  0.000000 -0.000000  0.000000 -0.000000  0.000000 -0.000001
                                 0.000003 -0.000009  0.000025 -0.000065  0.000156 -0.000357  0.000789 -0.001642  0.003499 -0.006703
                                 0.016315 -0.143322  0.208642 -0.158707  2.971330 -2.983381  0.080879 -0.055287  0.170608 -0.690441
                                 1.334014  0.000000 -0.000000  0.000000 -0.000000  0.000000 -0.000000  0.000001 -0.000004  0.000013
                                -0.000063  0.000112 -0.000920  0.000170  0.002269 -0.006272  0.027720 -0.021558  0.051140  0.017675
                                 0.029963 -0.097503 -0.195770  0.000000  0.000000 -0.000001 -0.000000  0.000003  0.000000 -0.000011
                                -0.000001  0.000033  0.000003 -0.000086 -0.000008  0.000234  0.000021 -0.000684 -0.000061  0.004538
                                 0.000398 -0.012783 -0.001098  0.020360  0.001598 -0.023896 -0.001884  0.017935  0.001593 -0.017644
                                -0.000416  0.019535  0.003441 -0.047351 -0.003045 -0.042942  0.009611  0.000036  0.000096 -0.000436
                                 0.000406  0.000650 -0.000062 -0.000587 -0.007070 -0.025607 -0.034624 -0.066595 -0.000724  0.000142
                                 0.277684 -0.000563  0.001099 -0.000009 -0.006359 -0.000437 -0.000156  0.000730 -0.000105

   5.3   0     0.0742   -3.4301 -0.000000  0.000000 -0.000000  0.000000 -0.000000  0.000000 -0.000000  0.000000 -0.000000  0.000002
                                -0.000005  0.000013 -0.000036  0.000092 -0.000223  0.000521 -0.001149  0.002622 -0.005828  0.017425
                                -0.061437  0.633867 -0.776132  0.380555 -7.920211  7.796215 -0.264288  0.262545 -0.236707  1.764232
                                -1.144310  0.000000 -0.000000  0.000001 -0.000003  0.000011 -0.000038  0.000112 -0.000291  0.000681
                                -0.001553  0.003345 -0.009727  0.034582 -0.097263  0.092777 -0.047343  0.244472 -0.164687  0.144378
                                -0.129800  0.315068 -0.609627  0.000000 -0.000000 -0.000001  0.000000  0.000003 -0.000000 -0.000009
                                 0.000000  0.000028 -0.000001 -0.000070  0.000003  0.000200 -0.000008 -0.000560  0.000035  0.003784
                                -0.000187 -0.011384  0.000313  0.017288 -0.001045 -0.021270  0.000798  0.013916 -0.000695 -0.019200
                                 0.002480 -0.017732  0.005079  0.012486  0.001722  0.107172  0.010156 -0.000539  0.000171  0.001676
                                 0.000955 -0.005941 -0.000413 -0.001197 -0.012104 -0.038241 -0.063976 -0.030174 -0.000513  0.000321
                                -0.320464 -0.001379 -0.002959 -0.000061 -0.026199  0.000114 -0.000225  0.001626 -0.000179

                                   1 3d2-    1 3d2-    1 3d2-    1 3d2-    1 3d2-    1 3d2-    1 3d2-    1 3d2-    1 3d2-    1 3d2- 
                                   1 3d2-    1 3d2-    1 3d2-    1 3d2-    1 3d2-    1 3d2-    1 3d2-    1 3d2-    1 3d2-    1 3d2- 
                                   1 3d2-    1 3d2-    1 4f2-    1 4f2-    1 4f2-    1 4f2-    1 4f2-    1 4f2-    1 4f2-    1 4f2- 
                                   1 4f2-    1 4f2-    1 4f2-    1 4f2-    1 4f2-    1 4f2-    1 4f2-    1 4f2-    1 4f2-    1 5g2- 
                                   1 5g4-    1 5g2-    1 5g4-    1 5g2-    1 5g4-    2 3d2-    2 3d2-    2 3d2-    2 3d2-    2 4f2- 
                                   2 4f2- 

   1.4   +    -0.5161  -11.4939  0.000000 -0.000000  0.000001 -0.000003  0.000012 -0.000040  0.000117 -0.000321  0.000790 -0.002189
                                 0.004437 -0.019508  0.033566 -0.060328  0.008296  0.270088 -0.015335  0.420808  0.348636  0.163221
                                 0.022031 -0.000551  0.000000 -0.000000  0.000000 -0.000002  0.000005 -0.000013  0.000040 -0.000107
                                 0.000856 -0.002904  0.004794 -0.006964  0.003668 -0.008008 -0.004821 -0.000041 -0.000271 -0.000526
                                 0.001734  0.000272  0.002954  0.001536  0.003871  0.001609  0.005959  0.000082  0.002448 -0.001348
                                -0.001606

   2.4   0     0.0818   -2.6170 -0.000000  0.000000 -0.000001  0.000005 -0.000019  0.000063 -0.000186  0.000478 -0.001107  0.002437
                                -0.005310  0.013903 -0.057404  0.168381 -0.171047  0.149869 -0.460723  0.402952 -0.188703  0.215187
                                -0.484715  1.261224 -0.000000  0.000001 -0.000005  0.000019 -0.000055  0.000146 -0.000379  0.001143
                                -0.007209  0.018502 -0.030408  0.033350 -0.029254  0.021162 -0.030912  0.073783 -0.142104  0.000020
                                -0.000065 -0.000009 -0.000332 -0.000022  0.000189  0.000429 -0.000666  0.000002  0.005622 -0.000167
                                 0.000508

   3.4   0     0.1472   -2.5519 -0.000000  0.000000 -0.000000  0.000001 -0.000003  0.000010 -0.000028  0.000073 -0.000169  0.000367
                                -0.000804  0.002041 -0.008799  0.026104 -0.026934  0.025924 -0.073414  0.067654 -0.027558  0.036392
                                -0.076209  0.134044  0.000002 -0.000014  0.000067 -0.000238  0.000700 -0.001851  0.004807 -0.014474
                                 0.091191 -0.233954  0.383447 -0.419218  0.365899 -0.260958  0.370414 -1.005313  1.629065 -0.000006
                                -0.000010  0.000039  0.000016  0.000030 -0.000054  0.000875  0.001807  0.000023 -0.001235 -0.000441
                                 0.000028

 HOMO      6.1    -0.343454 =      -9.3459eV
 LUMO      3.2    -0.009174 =      -0.2496eV
 LUMO-HOMO         0.334280 =       9.0962eV

 No convergence



 **********************************************************************************************************************************
 DATASETS  * FILE   NREC   LENGTH (MB)   RECORD NAMES
              1      19       22.57       500      610      700      900      950      970     1000      129      960     1100   
                                          VAR    BASINP    GEOM    SYMINP    ZMAT    AOBASIS   BASIS     P2S    ABASIS      S 
                                         1400     1410     1420     1200     1210     1080     1600     1650     1700   
                                           T        V       ECP      H0       H01     AOSYM     SMH    MOLCAS    OPER   

              2       4        4.55       700     1000      520     2100   
                                         GEOM     BASIS   MCVARS     RHF  

 PROGRAMS   *        TOTAL       RHF       INT
 CPU TIMES  *       245.32     42.47    202.48
 REAL TIME  *       289.94 SEC
 DISK USED  *        11.82 GB      
 SF USED    *         0.25 MB      
 GA USED    *         0.00 MB       (max)       0.00 MB       (current)
 **********************************************************************************************************************************
 Number of singly external CSFs:              3275
 Number of doubly external CSFs:           9817564
 Total number of CSFs:                     9820839

 Molecular orbitals read from record     2100.2  Type=RHF/CANONICAL (state 1.4)

 ?Error: RHF not converged. This error exit can be avoided using the IGNORE_ERROR option on the ORBITAL directive
