
 Primary working directories    : /global/cscratch1/sd/bkincaid
 Secondary working directories  : /global/cscratch1/sd/bkincaid
 Wavefunction directory         : /global/homes/b/bkincaid/wfu/
 Main file repository           : /global/cscratch1/sd/bkincaid/

 SHA1      : 19cd028119e0e09f93f0674bd8af7968d9b3eff6
 NAME      : 2015.1.36
 ARCHNAME  : linux/x86_64
 FC        : /opt/cray/pe/craype/2.5.14/bin/ftn
 BLASLIB   : -L/opt/intel/compilers_and_libraries_2018.1.163/linux/mkl/lib/intel64 -Wl,-_start-group -lmkl_intel_ilp64 -lmkl_intel_thread -lmkl_core -Wl,-_end-group -liomp5
 id        : lbl

 Nodes     nprocs
 nid00747    23
 Number of processes for MPI-2 version of Molpro:   nprocs(total)=   24   nprocs(compute)=   23   nprocs(helper)=    1

 Using customized tuning parameters: mindgm=7; mindgv=16; mindgc=1; mindgr=1; noblas=0; minvec=7
 default implementation of scratch files=sf  

 ***,Calculation for Ag atom, singlet and triplet
 memory,512,m
 
 set,dkroll=1,dkho=10,dkhp=4
 
 geometry={
 1
 Pd
 Pd  0.0 0.0 0.0
 }
 
 basis={
 Including file /global/u1/b/bkincaid/molpro/Pd/atoms/ecps/UC/basis/aug-cc-pwCVTZ.basis
 }
 
 Including file /global/u1/b/bkincaid/molpro/Pd/atoms/ecps/UC/basis/states.proc
 
 do i=1,13
     if (i.eq.1) then
         Idten
     else if (i.eq.2) then
         EAs2d9
     else if (i.eq.3) then
         Is1d9
     else if (i.eq.4) then
         Is2d8
     else if (i.eq.5) then
         IId9
     else if (i.eq.6) then
         IIs1d8
     else if (i.eq.7) then
         IIId8
     else if (i.eq.8) then
         IVd7
     else if (i.eq.9) then
         Vd6
     else if (i.eq.10) then
         VId5
     else if (i.eq.11) then
         XIKr
     else if (i.eq.12) then
         XIVp3
     else if (i.eq.13) then
         XVIIs2
     endif
     scf(i)=energy
     _CC_NORM_MAX=2.0
    {rccsd(t),maxit=100;core,5,2,2,1,2,1,1,0}
     ccsd(i)=energy
 enddo
 
 table,scf,ccsd
 type,csv
 save

 Variables initialized (889), CPU time= 0.01 sec
 Commands  initialized (702), CPU time= 0.01 sec, 572 directives.
 Default parameters read. Elapsed time= 0.39 sec

 Checking input...
 Passed
1


                                         ***  PROGRAM SYSTEM MOLPRO  ***
                                       Copyright, TTI GmbH Stuttgart, 2015
                                    Version 2015.1 linked Dec 29 2018 15:55:43


 **********************************************************************************************************************************
 LABEL *   Calculation for Ag atom, singlet and triplet                                  
  64 bit mpp version                                                                     DATE: 05-Apr-21          TIME: 12:20:29  
 **********************************************************************************************************************************

 SHA1:             19cd028119e0e09f93f0674bd8af7968d9b3eff6
 **********************************************************************************************************************************
 SETTING DKROLL         =         1.00000000                                  
 SETTING DKHO           =        10.00000000                                  
 SETTING DKHP           =         4.00000000                                  

Geometry recognized as XYZ


 Variable memory set to  512000000 words,  buffer space   230000 words

 SETTING BASIS          =    USERDEF

 DO I                   =         1.00000000   

 Running procedure=IDTEN


 Recomputing integrals since basis changed


 Using spherical harmonics



 PROGRAM * SEWARD (Integral evaluation for generally contracted gaussian basis sets)     Author: Roland Lindh, 1990

 Geometry written to block  1 of record 700

 Orientation using atomic masses  
 Molecule type: Atom
 Symmetry elements: X,Y,Z
 Rotational constants:       0.0000000      0.0000000      0.0000000 GHz  (calculated with average atomic masses)

 Point group  D2h 



 ATOMIC COORDINATES

 NR  ATOM    CHARGE       X              Y              Z

   1  PD     46.00    0.000000000    0.000000000    0.000000000

 NUCLEAR CHARGE:                   46
 NUMBER OF PRIMITIVE AOS:         289
 NUMBER OF SYMMETRY AOS:          242
 NUMBER OF CONTRACTIONS:          242   (  73Ag  +  32B3u +  32B2u +  23B1g +  32B1u +  23B2g +  23B3g +   4Au  )
 NUMBER OF CORE ORBITALS:          18   (   6Ag  +   3B3u +   3B2u +   1B1g +   3B1u +   1B2g +   1B3g +   0Au  )
 NUMBER OF VALENCE ORBITALS:        6   (   3Ag  +   0B3u +   0B2u +   1B1g +   0B1u +   1B2g +   1B3g +   0Au  )


 NUCLEAR REPULSION ENERGY    0.00000000

 One-electron integrals computed with SEWARD

 10nd-order Douglas-Kroll-Hess method activated. McWeeny DKH parametrization is used.

 Computing Douglas-Kroll / X2C integrals

 AO integral compression algorithm  1   Integral accuracy      1.0D-11

     301.728 MB (compressed) written to integral file ( 33.4%)

     Node minimum: 3.408 MB, node maximum: 49.545 MB


 NUMBER OF SORTED TWO-ELECTRON INTEGRALS:    2444547.     BUFFER LENGTH:  32768
 NUMBER OF SEGMENTS:   1  SEGMENT LENGTH:    2444547      RECORD LENGTH: 524288

 Memory used in sort:       3.00 MW

 SORT1 READ   112766326. AND WROTE     1396683. INTEGRALS IN      4 RECORDS. CPU TIME:     3.97 SEC, REAL TIME:     4.05 SEC
 SORT2 READ    33471887. AND WROTE    56960207. INTEGRALS IN    690 RECORDS. CPU TIME:     0.41 SEC, REAL TIME:     0.55 SEC

 Node minimum:     2444547.  Node maximum:     2491187. integrals

 OPERATOR DM      FOR CENTER  0  COORDINATES:    0.000000    0.000000    0.000000

 EXTRA SYMMETRY OF AOS IN SYMMETRY 1:   1 1 1 1 1 1 1 1 1 1   1 1 1 1 1 1 1 1 1 1   1 1 1 1 1 1 1 1 1 1   2 3 2 3 2 3 2 3 2 3
                                        2 3 2 3 2 3 2 3 2 3   2 3 2 3 2 3 2 3 2 3   2 3 2 3 4 5 6 4 5 6   4 5 6
 EXTRA SYMMETRY OF AOS IN SYMMETRY 2:   1 1 1 1 1 1 1 1 1 1   1 1 1 1 1 1 1 1 1 1   1 1 1 1 2 3 2 3 2 3   2 3
 EXTRA SYMMETRY OF AOS IN SYMMETRY 3:   1 1 1 1 1 1 1 1 1 1   1 1 1 1 1 1 1 1 1 1   1 1 1 1 2 3 2 3 2 3   2 3
 EXTRA SYMMETRY OF AOS IN SYMMETRY 4:   1 1 1 1 1 1 1 1 1 1   1 1 1 1 1 1 1 2 3 2   3 2 3
 EXTRA SYMMETRY OF AOS IN SYMMETRY 5:   1 1 1 1 1 1 1 1 1 1   1 1 1 1 1 1 1 1 1 1   1 1 1 1 2 3 2 3 2 3   2 3
 EXTRA SYMMETRY OF AOS IN SYMMETRY 6:   1 1 1 1 1 1 1 1 1 1   1 1 1 1 1 1 1 2 3 2   3 2 3
 EXTRA SYMMETRY OF AOS IN SYMMETRY 7:   1 1 1 1 1 1 1 1 1 1   1 1 1 1 1 1 1 2 3 2   3 2 3

 Eigenvalues of metric

         1 0.198E-05 0.951E-05 0.951E-05 0.291E-04 0.121E-03 0.307E-03 0.307E-03 0.363E-03
         2 0.982E-06 0.471E-03 0.163E-02 0.406E-02 0.938E-02 0.172E-01 0.270E-01 0.454E-01
         3 0.982E-06 0.471E-03 0.163E-02 0.406E-02 0.938E-02 0.172E-01 0.270E-01 0.454E-01
         4 0.951E-05 0.307E-03 0.302E-02 0.107E-01 0.287E-01 0.531E-01 0.105E+00 0.148E+00
         5 0.982E-06 0.471E-03 0.163E-02 0.406E-02 0.938E-02 0.172E-01 0.270E-01 0.454E-01
         6 0.951E-05 0.307E-03 0.302E-02 0.107E-01 0.287E-01 0.531E-01 0.105E+00 0.148E+00
         7 0.951E-05 0.307E-03 0.302E-02 0.107E-01 0.287E-01 0.531E-01 0.105E+00 0.148E+00
         8 0.941E-01 0.387E+00 0.119E+01 0.233E+01


 **********************************************************************************************************************************
 DATASETS  * FILE   NREC   LENGTH (MB)   RECORD NAMES
              1      22       20.64       500      610      700      900      950      970     1000      129      960     1700   
                                          VAR    BASINP    GEOM    SYMINP    ZMAT    AOBASIS   BASIS     P2S    ABASIS    OPER   
                                         1101     1401     1411     1412     1650     1100     1400     1410     1200     1210   
                                          SR      EKINR    POTR     PVPR    MOLCAS      S      EKIN      POT      H0       H01  
                                         1080     1600   
                                         AOSYM     SMH  

 PROGRAMS   *        TOTAL       INT
 CPU TIMES  *        31.25     30.71
 REAL TIME  *        34.18 SEC
 DISK USED  *       749.13 MB      
 GA USED    *         0.00 MB       (max)       0.00 MB       (current)
 **********************************************************************************************************************************


 PROGRAM * RHF-SCF (CLOSED SHELL)       Authors: W. Meyer, H.-J. Werner


 NUMBER OF ELECTRONS:      23+   23-    SPACE SYMMETRY=1    SPIN SYMMETRY: Singlet 
 CONVERGENCE THRESHOLDS:    1.00E-05 (Density)    1.00E-07 (Energy)
 MAX. NUMBER OF ITERATIONS:       60
 INTERPOLATION TYPE:            DIIS
 INTERPOLATION STEPS:              2 (START)      1 (STEP)
 LEVEL SHIFTS:                  0.00 (CLOSED)  0.00 (OPEN) 

 Number of closed-shell orbitals:   23 (   8   3   3   2   3   2   2   0 )


 
 Extra symmetries of mos in symmetry 1:   1   1   1   3   2   1   3   2
 Orbital guess generated from atomic densities. Full valence occupancy:    9   3   3   2   3   2   2   0


 Molecular orbital dump at record        4202.2

 ITERATION    DDIFF          GRAD             ENERGY        2-EL.EN.            DIPOLE MOMENTS         DIIS   ORB.
    1      0.000D+00      0.000D+00     -5023.93119945   3356.127893    0.00000    0.00000    0.00000    0    start
    2      0.000D+00      0.105D+00     -5035.79573669   4131.493270    0.00000    0.00000    0.00000    1    diag
    3      0.500D+00      0.157D+00     -5040.72425959   3992.985495    0.00000    0.00000    0.00000    2    diag
    4      0.219D-01      0.677D-01     -5042.70938663   3875.251448    0.00000    0.00000    0.00000    3    diag
    5      0.216D-01      0.124D-01     -5042.83610172   3835.517337    0.00000    0.00000    0.00000    4    diag
    6      0.901D-02      0.392D-02     -5042.83943315   3837.237858    0.00000    0.00000    0.00000    5    diag
    7      0.160D-02      0.193D-02     -5042.84075960   3840.440569    0.00000    0.00000    0.00000    6    diag
    8      0.642D-03      0.403D-03     -5042.84082563   3841.231771    0.00000    0.00000    0.00000    7    diag
    9      0.126D-03      0.248D-04     -5042.84082795   3841.270184    0.00000    0.00000    0.00000    8    diag
   10      0.273D-04      0.950D-05     -5042.84082868   3841.279746    0.00000    0.00000    0.00000    9    orth
   11      0.166D-04      0.523D-05     -5042.84082903   3841.279102    0.00000    0.00000    0.00000    9    diag
   12      0.146D-04      0.263D-05     -5042.84082912   3841.277486    0.00000    0.00000    0.00000    9    diag
   13      0.108D-04      0.275D-06     -5042.84082912   3841.277361    0.00000    0.00000    0.00000    9    diag
   14      0.665D-06      0.457D-07     -5042.84082912   3841.277371    0.00000    0.00000    0.00000    0    orth

 Final occupancy:   8   3   3   2   3   2   2   0

 !RHF STATE 1.1 Energy              -5042.840829121146
 Nuclear energy                         0.00000000
 One-electron energy                -6963.47951458
 Two-electron energy                 1920.63868546
 Virial quotient                       -0.88522941
 !RHF STATE 1.1 Dipole moment           0.00000000     0.00000000     0.00000000
 Dipole moment /Debye                   0.00000000     0.00000000     0.00000000

 ELECTRON ORBITALS
 =================


   Orb  Occ    Energy  Couls-En    Coefficients

                                   1 1s      1 1s      1 1s      1 1s      1 1s      1 1s      1 1s      1 1s      1 1s      1 1s   
                                   1 1s      1 1s      1 1s      1 1s      1 1s      1 1s      1 1s      1 1s      1 1s      1 1s   
                                   1 1s      1 1s      1 1s      1 1s      1 1s      1 1s      1 1s      1 1s      1 1s      1 1s   
                                   1 3d0     1 3d2+    1 3d0     1 3d2+    1 3d0     1 3d2+    1 3d0     1 3d2+    1 3d0     1 3d2+ 
                                   1 3d0     1 3d2+    1 3d0     1 3d2+    1 3d0     1 3d2+    1 3d0     1 3d2+    1 3d0     1 3d2+ 
                                   1 3d0     1 3d2+    1 3d0     1 3d2+    1 3d0     1 3d2+    1 3d0     1 3d2+    1 3d0     1 3d2+ 
                                   1 3d0     1 3d2+    1 3d0     1 3d2+    1 5g0     1 5g4+    1 5g2+    1 5g0     1 5g4+    1 5g2+ 
                                   1 5g0     1 5g4+    1 5g2+ 

   1.1   2  -899.4216-1988.8300  0.000046  0.000124  0.000340  0.000773  0.001639  0.003295  0.006546  0.013057  0.026532  0.054579
                                 0.110501  0.205002  0.307349  0.298274  0.132330  0.014616  0.001276 -0.000744  0.000703 -0.001329
                                -0.001274  0.000637  0.000084 -0.000010  0.000007 -0.000004  0.001930 -0.000457  0.000002 -0.000000
                                -0.000000 -0.000000 -0.000000 -0.000000 -0.000000  0.000000 -0.000000 -0.000000 -0.000000  0.000000
                                 0.000000 -0.000000 -0.000000  0.000000  0.000000 -0.000000 -0.000000  0.000000 -0.000000  0.000000
                                -0.000000  0.000000  0.000000 -0.000000 -0.000000  0.000000  0.000000 -0.000000  0.000000 -0.000000
                                 0.000000 -0.000000 -0.000000  0.000000 -0.000000 -0.000000 -0.000000  0.000000  0.000000  0.000000
                                -0.000000 -0.000000 -0.000000

   2.1   2  -134.3793 -406.2875 -0.000016 -0.000042 -0.000115 -0.000262 -0.000556 -0.001121 -0.002240 -0.004506 -0.009296 -0.019598
                                -0.041574 -0.084086 -0.149193 -0.189652 -0.071667  0.299490  0.551628  0.287947  0.038645  0.001549
                                -0.000554  0.000285  0.000037 -0.000011  0.000008 -0.000004  0.000598 -0.000320  0.000002 -0.000000
                                -0.000000  0.000000 -0.000000 -0.000000 -0.000000  0.000000 -0.000000 -0.000000 -0.000000  0.000000
                                -0.000000 -0.000000 -0.000000  0.000000  0.000000 -0.000000 -0.000000  0.000000 -0.000000  0.000000
                                -0.000000  0.000000  0.000000 -0.000000 -0.000000  0.000000  0.000000 -0.000000  0.000000 -0.000000
                                 0.000000 -0.000000 -0.000000  0.000000  0.000000 -0.000000  0.000000 -0.000000 -0.000000 -0.000000
                                 0.000000  0.000000  0.000000

   3.1   2   -25.5319 -138.1960  0.000007  0.000018  0.000050  0.000113  0.000241  0.000486  0.000972  0.001956  0.004047  0.008552
                                 0.018291  0.037402  0.068264  0.090460  0.036102 -0.198033 -0.491063 -0.313974  0.426310  0.791478
                                 0.249347 -0.043210 -0.006114  0.000981 -0.000706  0.000382 -0.071119  0.037935 -0.000166  0.000042
                                 0.000000  0.000000 -0.000000 -0.000000  0.000000  0.000000 -0.000000  0.000000  0.000000  0.000000
                                -0.000000  0.000000  0.000000  0.000000 -0.000000  0.000000  0.000000 -0.000000  0.000000 -0.000000
                                 0.000000 -0.000000 -0.000000  0.000000  0.000000  0.000000 -0.000000  0.000000 -0.000000  0.000000
                                -0.000000  0.000000  0.000000 -0.000000  0.000000 -0.000000 -0.000000 -0.000000 -0.000000 -0.000000
                                 0.000000  0.000000  0.000000

   4.1   2   -13.1941 -117.5156  0.000000 -0.000000  0.000000 -0.000000  0.000000 -0.000000  0.000000  0.000000  0.000000  0.000000
                                 0.000000  0.000000 -0.000000  0.000000 -0.000000 -0.000000  0.000000 -0.000000  0.000000 -0.000000
                                -0.000000  0.000000  0.000000 -0.000000  0.000000 -0.000000  0.000000 -0.000000 -0.000000  0.000000
                                -0.000000  0.000149 -0.000000  0.001306 -0.000000  0.007849 -0.000001  0.032020 -0.000002  0.097065
                                -0.000004  0.216170 -0.000006  0.332340 -0.000006  0.338168 -0.000003  0.182682 -0.000001  0.044664
                                -0.000000  0.004849  0.000000 -0.000070 -0.000000  0.000061  0.000000 -0.000017  0.000000 -0.005881
                                 0.000000 -0.004761 -0.000000  0.000005  0.000000 -0.000000 -0.000000 -0.000000  0.000000  0.000000
                                 0.000000 -0.000000 -0.000000

   5.1   2   -13.1941 -117.5156  0.000000  0.000000  0.000000  0.000000  0.000000  0.000000  0.000000  0.000000  0.000000  0.000000
                                 0.000000  0.000000  0.000000  0.000000  0.000000 -0.000000 -0.000000 -0.000000  0.000000  0.000000
                                -0.000000 -0.000000 -0.000000  0.000000 -0.000000 -0.000000  0.000000  0.000000  0.000000 -0.000000
                                 0.000149  0.000000  0.001306  0.000000  0.007849  0.000000  0.032020  0.000001  0.097065  0.000002
                                 0.216170  0.000004  0.332340  0.000006  0.338168  0.000006  0.182682  0.000003  0.044664  0.000001
                                 0.004849  0.000000 -0.000070 -0.000000  0.000061  0.000000 -0.000017 -0.000000 -0.005881 -0.000000
                                -0.004761 -0.000000  0.000005  0.000000 -0.000000 -0.000000 -0.000000  0.000000  0.000000  0.000000
                                -0.000000  0.000000 -0.000000

   6.1   2    -3.8403  -54.6068 -0.000003 -0.000007 -0.000021 -0.000047 -0.000099 -0.000200 -0.000400 -0.000806 -0.001669 -0.003526
                                -0.007561 -0.015475 -0.028449 -0.037900 -0.015559  0.089162  0.232816  0.161792 -0.272111 -0.746915
                                -0.059746  0.829100  0.527040  0.038953 -0.018597  0.009164 -0.046013 -0.021145 -0.003849  0.000954
                                -0.000000 -0.000000  0.000000 -0.000000 -0.000000 -0.000000  0.000000 -0.000000 -0.000000  0.000000
                                 0.000000 -0.000000 -0.000000  0.000000  0.000000 -0.000000 -0.000000  0.000000 -0.000000  0.000000
                                -0.000000  0.000000  0.000000  0.000000 -0.000000 -0.000000  0.000000  0.000000  0.000000 -0.000000
                                 0.000000 -0.000000 -0.000000 -0.000000 -0.000000  0.000000 -0.000000 -0.000000 -0.000000  0.000000
                                 0.000000  0.000000  0.000000

   7.1   2    -0.3279  -34.7056  0.000000  0.000000  0.000000  0.000000  0.000000  0.000000  0.000000  0.000000  0.000000  0.000000
                                 0.000000  0.000000  0.000000  0.000000 -0.000000  0.000000 -0.000000  0.000000 -0.000000  0.000000
                                 0.000000 -0.000000 -0.000000  0.000000 -0.000000  0.000000 -0.000000  0.000000 -0.000000  0.000000
                                 0.000000 -0.000044  0.000000 -0.000389  0.000000 -0.002344  0.000000 -0.009628  0.000001 -0.029512
                                 0.000002 -0.066365  0.000002 -0.098771  0.000002 -0.088964 -0.000001  0.038088 -0.000006  0.244608
                                -0.000008  0.360822 -0.000008  0.327661 -0.000005  0.217388 -0.000002  0.076488 -0.000000  0.006498
                                -0.000000  0.004537 -0.000000  0.002772 -0.000000 -0.000000 -0.000000  0.000000  0.000000 -0.000000
                                -0.000000  0.000000  0.000000

   8.1   2    -0.3279  -34.7056 -0.000000 -0.000000 -0.000000 -0.000000 -0.000000 -0.000000 -0.000000 -0.000000 -0.000000 -0.000000
                                -0.000000 -0.000000 -0.000000 -0.000000 -0.000000  0.000000  0.000000  0.000000 -0.000000 -0.000000
                                -0.000000  0.000001  0.000000 -0.000000 -0.000001 -0.000000  0.000000 -0.000000  0.000000 -0.000000
                                -0.000044 -0.000000 -0.000389 -0.000000 -0.002344 -0.000000 -0.009628 -0.000000 -0.029512 -0.000001
                                -0.066365 -0.000002 -0.098771 -0.000002 -0.088964 -0.000002  0.038088  0.000001  0.244608  0.000006
                                 0.360822  0.000008  0.327661  0.000008  0.217388  0.000005  0.076487  0.000002  0.006498  0.000000
                                 0.004537  0.000000  0.002772  0.000000 -0.000000  0.000000 -0.000000 -0.000000 -0.000000  0.000000
                                 0.000000  0.000000 -0.000000

   9.1   0     0.0040   -5.5439  0.000000  0.000000  0.000001  0.000003  0.000006  0.000012  0.000024  0.000049  0.000100  0.000215
                                 0.000453  0.000945  0.001698  0.002358  0.000792 -0.005082 -0.015274 -0.007909  0.011464  0.080958
                                 0.085293 -0.206000 -0.129208  0.078569 -0.107809  0.435574 -0.074709  0.152992 -0.591630  1.267843
                                -0.000000 -0.000000 -0.000000 -0.000000 -0.000000 -0.000000 -0.000000 -0.000000 -0.000000 -0.000000
                                -0.000000 -0.000000 -0.000000 -0.000000 -0.000000 -0.000000  0.000000 -0.000000  0.000000 -0.000000
                                 0.000000  0.000000  0.000000  0.000000  0.000000  0.000000  0.000000 -0.000000 -0.000000  0.000000
                                -0.000000  0.000000  0.000000 -0.000000  0.000000  0.000000 -0.000000 -0.000000 -0.000000  0.000000
                                 0.000000 -0.000000 -0.000000

  10.1   0     0.0234   -6.7467 -0.000000 -0.000001 -0.000002 -0.000004 -0.000009 -0.000018 -0.000037 -0.000074 -0.000155 -0.000320
                                -0.000706 -0.001393 -0.002692 -0.003302 -0.001909  0.009451  0.019059  0.022164 -0.045144  0.008148
                                 0.248664 -0.274231 -0.081790  0.203223 -0.679830  1.218477 -0.239239  0.435301 -2.961111  1.952878
                                 0.000000 -0.000000  0.000000 -0.000000  0.000000 -0.000000  0.000000 -0.000000  0.000000 -0.000000
                                 0.000000 -0.000000  0.000000 -0.000000  0.000000 -0.000000 -0.000000  0.000000 -0.000000  0.000000
                                -0.000000  0.000000 -0.000000 -0.000000 -0.000000  0.000000 -0.000000 -0.000000 -0.000000 -0.000000
                                 0.000000 -0.000000 -0.000000  0.000000 -0.000000  0.000000 -0.000000  0.000000 -0.000000  0.000000
                                -0.000000 -0.000000 -0.000000

                                   1 2px     1 2px     1 2px     1 2px     1 2px     1 2px     1 2px     1 2px     1 2px     1 2px  
                                   1 2px     1 2px     1 2px     1 2px     1 2px     1 2px     1 2px     1 2px     1 2px     1 2px  
                                   1 2px     1 2px     1 2px     1 2px     1 4f1+    1 4f3+    1 4f1+    1 4f3+    1 4f1+    1 4f3+ 
                                   1 4f1+    1 4f3+ 

   1.2   2  -120.2707 -386.0291  0.000016  0.000054  0.000200  0.000696  0.002412  0.008101  0.025348  0.070735  0.164495  0.293932
                                 0.350425  0.217597  0.052916  0.004357 -0.004352 -0.000352 -0.000044  0.000006 -0.000005  0.000003
                                 0.004602  0.000043 -0.000001  0.000000 -0.000000 -0.000000  0.000000  0.000000 -0.000000 -0.000000
                                 0.000000 -0.000000

   2.2   2   -20.7666 -129.7018 -0.000007 -0.000024 -0.000090 -0.000314 -0.001093 -0.003696 -0.011697 -0.033437 -0.080738 -0.152269
                                -0.187117 -0.037728  0.293516  0.498939  0.346660  0.048594  0.000626  0.000031  0.000028 -0.000011
                                -0.060352  0.002002  0.000005 -0.000002 -0.000000 -0.000000  0.000000  0.000000 -0.000000 -0.000000
                                 0.000000  0.000000

   3.2   2    -2.4021  -48.8739  0.000003  0.000009  0.000035  0.000122  0.000424  0.001434  0.004557  0.013049  0.031820  0.060420
                                 0.075275  0.005221 -0.154201 -0.303801 -0.095938  0.356429  0.295630  0.043371 -0.004952  0.002900
                                -0.043401  0.531348 -0.001343  0.000430 -0.000000  0.000000  0.000000 -0.000000  0.000000  0.000000
                                -0.000000 -0.000000

   4.2   0     0.0111   -2.9763 -0.000000 -0.000000 -0.000000 -0.000001 -0.000003 -0.000009 -0.000036 -0.000084 -0.000263 -0.000352
                                -0.000768  0.000521 -0.000291  0.007030 -0.108104 -0.018787 -0.017582  0.030724 -0.068802  0.208964
                                 0.114844  0.008198 -0.565114  1.336871 -0.000000  0.000000 -0.000000 -0.000000 -0.000000  0.000000
                                 0.000000 -0.000000

   5.2   0     0.0407   -4.8592 -0.000000 -0.000000 -0.000001 -0.000004 -0.000012 -0.000045 -0.000126 -0.000418 -0.000855 -0.002041
                                -0.001618 -0.001679  0.008790 -0.003895  0.310684  0.031335  0.031768 -0.074471  0.240419 -0.621195
                                -0.323022 -0.056373  2.090165 -1.174488 -0.000000 -0.000000 -0.000000  0.000000 -0.000000 -0.000000
                                 0.000000  0.000000

                                   1 2py     1 2py     1 2py     1 2py     1 2py     1 2py     1 2py     1 2py     1 2py     1 2py  
                                   1 2py     1 2py     1 2py     1 2py     1 2py     1 2py     1 2py     1 2py     1 2py     1 2py  
                                   1 2py     1 2py     1 2py     1 2py     1 4f1-    1 4f3-    1 4f1-    1 4f3-    1 4f1-    1 4f3- 
                                   1 4f1-    1 4f3- 

   1.3   2  -120.2707 -386.0291  0.000016  0.000054  0.000200  0.000696  0.002412  0.008101  0.025348  0.070735  0.164495  0.293932
                                 0.350425  0.217597  0.052916  0.004357 -0.004352 -0.000352 -0.000044  0.000006 -0.000005  0.000003
                                 0.004602  0.000043 -0.000001  0.000000 -0.000000  0.000000  0.000000 -0.000000 -0.000000  0.000000
                                 0.000000  0.000000

   2.3   2   -20.7666 -129.7018 -0.000007 -0.000024 -0.000090 -0.000314 -0.001093 -0.003696 -0.011697 -0.033437 -0.080738 -0.152269
                                -0.187117 -0.037728  0.293516  0.498939  0.346660  0.048594  0.000626  0.000031  0.000028 -0.000011
                                -0.060352  0.002002  0.000005 -0.000002 -0.000000  0.000000  0.000000 -0.000000 -0.000000  0.000000
                                 0.000000 -0.000000

   3.3   2    -2.4021  -48.8739  0.000003  0.000009  0.000035  0.000122  0.000424  0.001434  0.004557  0.013049  0.031820  0.060420
                                 0.075275  0.005221 -0.154201 -0.303801 -0.095938  0.356429  0.295630  0.043371 -0.004952  0.002900
                                -0.043401  0.531348 -0.001343  0.000430 -0.000000 -0.000000  0.000000  0.000000  0.000000 -0.000000
                                -0.000000  0.000000

   4.3   0     0.0111   -2.9763 -0.000000 -0.000000 -0.000000 -0.000001 -0.000003 -0.000009 -0.000036 -0.000084 -0.000263 -0.000352
                                -0.000768  0.000521 -0.000291  0.007030 -0.108104 -0.018787 -0.017582  0.030724 -0.068802  0.208964
                                 0.114844  0.008198 -0.565114  1.336871 -0.000000 -0.000000 -0.000000  0.000000 -0.000000 -0.000000
                                 0.000000  0.000000

   5.3   0     0.0407   -4.8592 -0.000000 -0.000000 -0.000001 -0.000004 -0.000012 -0.000045 -0.000126 -0.000418 -0.000855 -0.002041
                                -0.001618 -0.001679  0.008790 -0.003895  0.310684  0.031335  0.031768 -0.074471  0.240419 -0.621195
                                -0.323022 -0.056373  2.090165 -1.174488 -0.000000  0.000000 -0.000000 -0.000000 -0.000000  0.000000
                                 0.000000 -0.000000

                                   1 3d2-    1 3d2-    1 3d2-    1 3d2-    1 3d2-    1 3d2-    1 3d2-    1 3d2-    1 3d2-    1 3d2- 
                                   1 3d2-    1 3d2-    1 3d2-    1 3d2-    1 3d2-    1 3d2-    1 3d2-    1 5g2-    1 5g4-    1 5g2- 
                                   1 5g4-    1 5g2-    1 5g4- 

   1.4   2   -13.1941 -117.5156  0.000149  0.001306  0.007849  0.032020  0.097065  0.216170  0.332340  0.338168  0.182682  0.044664
                                 0.004849 -0.000070  0.000061 -0.000017 -0.005881 -0.004761  0.000005 -0.000000 -0.000000  0.000000
                                 0.000000 -0.000000 -0.000000

   2.4   2    -0.3279  -34.7056 -0.000044 -0.000389 -0.002344 -0.009628 -0.029512 -0.066365 -0.098771 -0.088964  0.038088  0.244608
                                 0.360822  0.327661  0.217388  0.076488  0.006498  0.004537  0.002772 -0.000000 -0.000000 -0.000000
                                 0.000000  0.000000  0.000000

   3.4   0     0.1009   -6.0470  0.000005  0.000027  0.000237  0.000699  0.003012  0.004411  0.012395 -0.004382  0.058068  0.535991
                                 0.448809 -0.190623  0.186163 -0.477014 -0.400111 -0.606857  1.256291  0.000000 -0.000000 -0.000000
                                 0.000000 -0.000000  0.000000

   4.4   0     0.3434  -10.0512 -0.000010 -0.000129 -0.000548 -0.003117 -0.006797 -0.022803 -0.015333 -0.063234  0.208741  1.870111
                                 1.678490 -0.455388  0.826990 -1.896770 -1.284376 -1.974601  0.890604 -0.000000  0.000000  0.000000
                                -0.000000  0.000000 -0.000000

                                   1 2pz     1 2pz     1 2pz     1 2pz     1 2pz     1 2pz     1 2pz     1 2pz     1 2pz     1 2pz  
                                   1 2pz     1 2pz     1 2pz     1 2pz     1 2pz     1 2pz     1 2pz     1 2pz     1 2pz     1 2pz  
                                   1 2pz     1 2pz     1 2pz     1 2pz     1 4f0     1 4f2+    1 4f0     1 4f2+    1 4f0     1 4f2+ 
                                   1 4f0     1 4f2+ 

   1.5   2  -120.2707 -386.0291  0.000016  0.000054  0.000200  0.000696  0.002412  0.008101  0.025348  0.070735  0.164495  0.293932
                                 0.350425  0.217597  0.052916  0.004357 -0.004352 -0.000352 -0.000044  0.000006 -0.000005  0.000003
                                 0.004602  0.000043 -0.000001  0.000000 -0.000000  0.000000  0.000000  0.000000 -0.000000 -0.000000
                                 0.000000  0.000000

   2.5   2   -20.7666 -129.7018 -0.000007 -0.000024 -0.000090 -0.000314 -0.001093 -0.003696 -0.011697 -0.033437 -0.080738 -0.152269
                                -0.187117 -0.037728  0.293516  0.498939  0.346660  0.048594  0.000626  0.000031  0.000028 -0.000011
                                -0.060352  0.002002  0.000005 -0.000002 -0.000000 -0.000000  0.000000 -0.000000 -0.000000  0.000000
                                 0.000000 -0.000000

   3.5   2    -2.4021  -48.8739  0.000003  0.000009  0.000035  0.000122  0.000424  0.001434  0.004557  0.013049  0.031820  0.060420
                                 0.075275  0.005221 -0.154201 -0.303801 -0.095938  0.356429  0.295630  0.043371 -0.004952  0.002900
                                -0.043401  0.531348 -0.001343  0.000430 -0.000000 -0.000000 -0.000000 -0.000000 -0.000000  0.000000
                                 0.000000 -0.000000

   4.5   0     0.0111   -2.9763 -0.000000 -0.000000 -0.000000 -0.000001 -0.000003 -0.000009 -0.000036 -0.000084 -0.000263 -0.000352
                                -0.000768  0.000521 -0.000291  0.007030 -0.108104 -0.018787 -0.017582  0.030724 -0.068802  0.208964
                                 0.114845  0.008198 -0.565114  1.336871 -0.000000  0.000000  0.000000 -0.000000 -0.000000  0.000000
                                 0.000000 -0.000000

   5.5   0     0.0407   -4.8592 -0.000000 -0.000000 -0.000001 -0.000004 -0.000012 -0.000045 -0.000126 -0.000418 -0.000855 -0.002041
                                -0.001618 -0.001680  0.008790 -0.003895  0.310685  0.031335  0.031768 -0.074471  0.240419 -0.621195
                                -0.323023 -0.056373  2.090164 -1.174488 -0.000000  0.000000  0.000000  0.000000 -0.000000 -0.000000
                                 0.000000  0.000000

                                   1 3d1+    1 3d1+    1 3d1+    1 3d1+    1 3d1+    1 3d1+    1 3d1+    1 3d1+    1 3d1+    1 3d1+ 
                                   1 3d1+    1 3d1+    1 3d1+    1 3d1+    1 3d1+    1 3d1+    1 3d1+    1 5g1+    1 5g3+    1 5g1+ 
                                   1 5g3+    1 5g1+    1 5g3+ 

   1.6   2   -13.1941 -117.5156  0.000149  0.001306  0.007849  0.032020  0.097065  0.216170  0.332340  0.338168  0.182682  0.044664
                                 0.004849 -0.000070  0.000061 -0.000017 -0.005881 -0.004761  0.000005 -0.000000 -0.000000  0.000000
                                 0.000000 -0.000000 -0.000000

   2.6   2    -0.3279  -34.7056 -0.000044 -0.000389 -0.002344 -0.009628 -0.029512 -0.066365 -0.098771 -0.088964  0.038088  0.244608
                                 0.360822  0.327662  0.217388  0.076487  0.006498  0.004537  0.002771 -0.000000 -0.000000 -0.000000
                                -0.000000  0.000000 -0.000000

   3.6   0     0.1009   -6.0470  0.000005  0.000027  0.000237  0.000699  0.003012  0.004410  0.012395 -0.004382  0.058068  0.535991
                                 0.448809 -0.190623  0.186163 -0.477014 -0.400111 -0.606857  1.256291  0.000000 -0.000000 -0.000000
                                 0.000000 -0.000000 -0.000000

   4.6   0     0.3434  -10.0512 -0.000010 -0.000129 -0.000548 -0.003117 -0.006797 -0.022803 -0.015333 -0.063234  0.208741  1.870111
                                 1.678490 -0.455388  0.826990 -1.896770 -1.284376 -1.974600  0.890604 -0.000000  0.000000  0.000000
                                -0.000000 -0.000000 -0.000000

                                   1 3d1-    1 3d1-    1 3d1-    1 3d1-    1 3d1-    1 3d1-    1 3d1-    1 3d1-    1 3d1-    1 3d1- 
                                   1 3d1-    1 3d1-    1 3d1-    1 3d1-    1 3d1-    1 3d1-    1 3d1-    1 5g1-    1 5g3-    1 5g1- 
                                   1 5g3-    1 5g1-    1 5g3- 

   1.7   2   -13.1941 -117.5156  0.000149  0.001306  0.007849  0.032020  0.097065  0.216170  0.332340  0.338168  0.182682  0.044664
                                 0.004849 -0.000070  0.000061 -0.000017 -0.005881 -0.004761  0.000005 -0.000000  0.000000  0.000000
                                -0.000000 -0.000000  0.000000

   2.7   2    -0.3279  -34.7056 -0.000044 -0.000389 -0.002344 -0.009628 -0.029512 -0.066365 -0.098771 -0.088964  0.038088  0.244608
                                 0.360822  0.327662  0.217388  0.076487  0.006498  0.004537  0.002771 -0.000000  0.000000 -0.000000
                                 0.000000  0.000000  0.000000

   3.7   0     0.1009   -6.0470  0.000005  0.000027  0.000237  0.000699  0.003012  0.004410  0.012395 -0.004382  0.058068  0.535991
                                 0.448809 -0.190623  0.186163 -0.477014 -0.400111 -0.606857  1.256291  0.000000  0.000000 -0.000000
                                -0.000000 -0.000000  0.000000

   4.7   0     0.3434  -10.0512 -0.000010 -0.000129 -0.000548 -0.003117 -0.006797 -0.022803 -0.015333 -0.063234  0.208741  1.870111
                                 1.678490 -0.455388  0.826990 -1.896770 -1.284376 -1.974600  0.890604 -0.000000 -0.000000  0.000000
                                 0.000000 -0.000000  0.000000

                                   1 4f2-    1 4f2-    1 4f2-    1 4f2- 

   1.8   0     0.8890  -13.9317 -0.007431  0.133505 -0.231442  1.116873

   2.8   0     2.0927  -22.4945 -0.211509  0.058044 -1.278779  0.768299

 HOMO      2.4    -0.327851 =      -8.9213eV
 LUMO      9.1     0.004027 =       0.1096eV
 LUMO-HOMO         0.331878 =       9.0309eV


 **********************************************************************************************************************************
 DATASETS  * FILE   NREC   LENGTH (MB)   RECORD NAMES
              1      22       20.64       500      610      700      900      950      970     1000      129      960     1700   
                                          VAR    BASINP    GEOM    SYMINP    ZMAT    AOBASIS   BASIS     P2S    ABASIS    OPER   
                                         1101     1401     1411     1412     1650     1100     1400     1410     1200     1210   
                                          SR      EKINR    POTR     PVPR    MOLCAS      S      EKIN      POT      H0       H01  
                                         1080     1600   
                                         AOSYM     SMH  

              2       5        5.58       200      700     1000      520     4202   
                                        OPTIONS   GEOM     BASIS   MCVARS     RHF  

 PROGRAMS   *        TOTAL       RHF       INT
 CPU TIMES  *        31.82      0.57     30.71
 REAL TIME  *        35.90 SEC
 DISK USED  *         1.37 GB      
 SF USED    *         0.04 MB      
 GA USED    *         0.00 MB       (max)       0.00 MB       (current)
 **********************************************************************************************************************************
 SETTING SCF(1)         =     -5042.84082912  AU                              
 SETTING _CC_NORM_MAX   =         2.00000000                                  


 PROGRAM * CCSD (Restricted open-shell coupled cluster)     Authors: C. Hampel, H.-J. Werner, 1991, M. Deegan, P.J. Knowles, 1992


 Convergence thresholds:  THRVAR = 1.00D-08  THRDEN = 1.00D-06

 CCSD(T)     terms to be evaluated (factor= 1.000)


 Number of core orbitals:          14 (   5   2   2   1   2   1   1   0 )
 Number of closed-shell orbitals:   9 (   3   1   1   1   1   1   1   0 )
 Number of external orbitals:     219 (  65  29  29  21  29  21  21   4 )

 Memory could be reduced to 24.62 Mwords without degradation in triples

 Number of N-1 electron functions:              18
 Number of N-2 electron functions:             153
 Number of singly external CSFs:               690
 Number of doubly external CSFs:            717975
 Total number of CSFs:                      718665

 Molecular orbitals read from record     4202.2  Type=RHF/CANONICAL (state 1.1)

 Integral transformation finished. Total CPU:   1.03 sec, npass=  1  Memory used:   4.80 MW

 Starting RMP2 calculation

 Wavefunction is spin-projected

 ITER.      SQ.NORM     CORR.ENERGY   TOTAL ENERGY   ENERGY CHANGE        DEN1      VAR(S)    VAR(P)  DIIS     TIME
   1      1.14115077    -0.74729874 -5043.58812786    -0.74729874    -0.00136722  0.36D-13  0.52D-03  1  1     1.38
   2      1.14237354    -0.74874177 -5043.58957089    -0.00144303    -0.00000355  0.14D-14  0.24D-05  2  2     1.93
   3      1.14244231    -0.74878226 -5043.58961138    -0.00004049    -0.00000001  0.43D-16  0.11D-07  3  3     2.59
   4      1.14244418    -0.74878259 -5043.58961171    -0.00000033    -0.00000000  0.12D-17  0.57D-10  4  4     3.42

 Norm of t1 vector:      0.00000112      S-energy:    -0.00000000      T1 diagnostic:  0.00000019
 Norm of t2 vector:      0.37741778      P-energy:    -0.74878259
                                         Alpha-Beta:  -0.50941235
                                         Alpha-Alpha: -0.11968512
                                         Beta-Beta:   -0.11968512

 Spin contamination <S**2-Sz**2-Sz>     0.00000000
  Reference energy                  -5042.840829121138
  RHF-RMP2 correlation energy          -0.748782586009
 !RHF-RMP2 energy                   -5043.589611707147
 (NB above energy spin projected)

 Starting RCCSD calculation

 ITER.      SQ.NORM     CORR.ENERGY   TOTAL ENERGY   ENERGY CHANGE        DEN1      VAR(S)    VAR(P)  DIIS     TIME
   1      1.10929504    -0.68008163 -5043.52091075    -0.68008163    -0.01936090  0.27D-02  0.37D-02  1  1     4.66
   2      1.11701495    -0.69570243 -5043.53653155    -0.01562079    -0.00084738  0.31D-04  0.30D-03  2  2     6.24
   3      1.11801028    -0.69577450 -5043.53660362    -0.00007207    -0.00009215  0.65D-04  0.19D-04  3  3     6.72
   4      1.11868038    -0.69610382 -5043.53693294    -0.00032932    -0.00000980  0.39D-05  0.35D-05  4  4     8.34
   5      1.11907395    -0.69619831 -5043.53702743    -0.00009449    -0.00000093  0.73D-06  0.28D-06  5  5     9.22
   6      1.11916992    -0.69620955 -5043.53703867    -0.00001124    -0.00000011  0.44D-07  0.41D-07  6  6    10.31
   7      1.11919619    -0.69621074 -5043.53703986    -0.00000119    -0.00000002  0.24D-07  0.23D-08  6  1    11.67
   8      1.11920223    -0.69621173 -5043.53704085    -0.00000099    -0.00000000  0.21D-08  0.24D-09  6  2    12.86

 Norm of t1 vector:      0.05356579      S-energy:    -0.00000000      T1 diagnostic:  0.00892763
                                                                       D1 diagnostic:  0.01671756
 Norm of t2 vector:      0.34107614      P-energy:    -0.69621173
                                         Alpha-Beta:  -0.49253284
                                         Alpha-Alpha: -0.10183945
                                         Beta-Beta:   -0.10183945

 Spin contamination <S**2-Sz**2-Sz>     0.00000000

 Memory could be reduced to 25.43 Mwords without degradation in triples
 

  Correlated core orbitals:             6.1       3.2       3.3       3.5
  Orbital energies:                    -3.8403   -2.4021   -2.4021   -2.4021
 
  RCCSD core-core energy               -0.103629483568
  RCCSD core-valence energy            -0.248641623542
  RCCSD valence correlation energy     -0.343940626711
 

 RESULTS
 =======

  Reference energy                  -5042.840829121138
  RCCSD singles energy                 -0.000000000143
  RCCSD pair energy                    -0.696211733678
  RCCSD correlation energy             -0.696211733821
  Triples (T) contribution             -0.028338260116
  Total correlation energy             -0.724549993937
 
  RHF-RCCSD energy                  -5043.537040854959
  RHF-RCCSD[T] energy               -5043.566538339757
  RHF-RCCSD-T energy                -5043.565226498849
 !RHF-RCCSD(T) energy               -5043.565379115075

 Program statistics:

 Available memory in ccsd:               511999162
 Min. memory needed in ccsd:               2185003
 Max. memory used in ccsd:                 3045010
 Max. memory used in cckext:               2682751 ( 8 integral passes)
 Max. memory used in cckint:               4801231 ( 1 integral passes)



 **********************************************************************************************************************************
 DATASETS  * FILE   NREC   LENGTH (MB)   RECORD NAMES
              1      22       20.64       500      610      700      900      950      970     1000      129      960     1700   
                                          VAR    BASINP    GEOM    SYMINP    ZMAT    AOBASIS   BASIS     P2S    ABASIS    OPER   
                                         1101     1401     1411     1412     1650     1100     1400     1410     1200     1210   
                                          SR      EKINR    POTR     PVPR    MOLCAS      S      EKIN      POT      H0       H01  
                                         1080     1600   
                                         AOSYM     SMH  

              2       5        5.58       200      700     1000      520     4202   
                                        OPTIONS   GEOM     BASIS   MCVARS     RHF  

 PROGRAMS   *        TOTAL  RCCSD(T)       RHF       INT
 CPU TIMES  *        49.63     17.81      0.57     30.71
 REAL TIME  *        66.78 SEC
 DISK USED  *         3.42 GB      
 SF USED    *       380.64 MB      
 GA USED    *         0.00 MB       (max)       0.00 MB       (current)
 **********************************************************************************************************************************
 SETTING CCSD(1)        =     -5043.56537912  AU                              

 DO I                   =         2.00000000   

 Running procedure=EAS2D9


 PROGRAM * RHF-SCF (OPEN SHELL)       Authors: W. Meyer, H.-J. Werner


 NUMBER OF ELECTRONS:      24+   23-    SPACE SYMMETRY=1    SPIN SYMMETRY: Doublet 
 CONVERGENCE THRESHOLDS:    1.00E-05 (Density)    1.00E-07 (Energy)
 MAX. NUMBER OF ITERATIONS:       60
 INTERPOLATION TYPE:            DIIS
 INTERPOLATION STEPS:              2 (START)      1 (STEP)
 LEVEL SHIFTS:                 -0.60 (CLOSED) -0.30 (OPEN) 

 Number of closed-shell orbitals:   23 (   8   3   3   2   3   2   2   0 )
 Number of open-shell orbitals:      1 (   1   0   0   0   0   0   0   0 )


 
 Extra symmetries of mos in symmetry 1:   1   1   1   1   3   2   1   3   2
 Orbital guess generated from atomic densities. Full valence occupancy:    9   3   3   2   3   2   2   0


 Molecular orbital dump at record        4202.2

 ITERATION    DDIFF          GRAD             ENERGY        2-EL.EN.            DIPOLE MOMENTS         DIIS   ORB.
    1      0.000D+00      0.000D+00     -5022.93500383   3342.044611    0.00000    0.00000    0.00000    0    start
    2      0.000D+00      0.954D-01     -5035.05597990   4154.238881    0.00000    0.00000    0.00000    1    diag,B
    3      0.148D+01      0.146D+00     -5039.94783671   4025.218550    0.00000    0.00000    0.00000    2    diag,B
    4      0.641D+00      0.696D-01     -5042.22491653   3921.163291    0.00000    0.00000    0.00000    3    diag,B
    5      0.761D+00      0.234D-01     -5042.69222142   3871.312519    0.00000    0.00000    0.00000    4    diag,B
    6      0.829D-01      0.593D-02     -5042.77787901   3851.896095    0.00000    0.00000    0.00000    5    diag,B
    7      0.507D-01      0.320D-02     -5042.80421721   3850.842287    0.00000    0.00000    0.00000    6    fixocc
    8      0.236D-01      0.193D-02     -5042.82402991   3850.529124    0.00000    0.00000    0.00000    7    diag,B
    9      0.153D-01      0.100D-02     -5042.83352480   3849.280871    0.00000    0.00000    0.00000    8    diag,B
   10      0.139D-01      0.557D-03     -5042.83705819   3848.071466    0.00000    0.00000    0.00000    9    orth
   11      0.465D-02      0.370D-03     -5042.83865780   3847.412562    0.00000    0.00000    0.00000    9    diag,B
   12      0.744D-02      0.272D-03     -5042.84011859   3846.283777    0.00000    0.00000    0.00000    9    diag,B
   13      0.109D-01      0.114D-03     -5042.84026384   3846.150381    0.00000    0.00000    0.00000    9    diag,B
   14      0.143D-02      0.908D-04     -5042.84037598   3846.024284    0.00000    0.00000    0.00000    9    diag,B
   15      0.723D-03      0.776D-04     -5042.84058536   3845.810684    0.00000    0.00000    0.00000    9    diag,B
   16      0.287D-02      0.451D-04     -5042.84066219   3845.615613    0.00000    0.00000    0.00000    9    diag,B
   17      0.272D-02      0.140D-04     -5042.84066473   3845.600213    0.00000    0.00000    0.00000    9    diag,B
   18      0.551D-03      0.473D-05     -5042.84066495   3845.573429    0.00000    0.00000    0.00000    9    diag,B
   19      0.109D-03      0.172D-05     -5042.84066497   3845.581005    0.00000    0.00000    0.00000    9    diag,B
   20      0.159D-04      0.100D-05     -5042.84066497   3845.580322    0.00000    0.00000    0.00000    9    orth
   21      0.702D-05      0.491D-06     -5042.84066476   3845.579835    0.00000    0.00000    0.00000    0    orth

 Final alpha occupancy:   9   3   3   2   3   2   2   0
 Final beta  occupancy:   8   3   3   2   3   2   2   0

 !RHF STATE 1.1 Energy              -5042.840664760806
 Nuclear energy                         0.00000000
 One-electron energy                -6965.63058229
 Two-electron energy                 1922.78991753
 Virial quotient                       -0.88520955
 !RHF STATE 1.1 Dipole moment           0.00000000     0.00000000     0.00000000
 Dipole moment /Debye                   0.00000000     0.00000000     0.00000000

 ELECTRON ORBITALS
 =================


   Orb  Occ    Energy  Couls-En    Coefficients

                                   1 1s      1 1s      1 1s      1 1s      1 1s      1 1s      1 1s      1 1s      1 1s      1 1s   
                                   1 1s      1 1s      1 1s      1 1s      1 1s      1 1s      1 1s      1 1s      1 1s      1 1s   
                                   1 1s      1 1s      1 1s      1 1s      1 1s      1 1s      1 1s      1 1s      1 1s      1 1s   
                                   1 3d0     1 3d2+    1 3d0     1 3d2+    1 3d0     1 3d2+    1 3d0     1 3d2+    1 3d0     1 3d2+ 
                                   1 3d0     1 3d2+    1 3d0     1 3d2+    1 3d0     1 3d2+    1 3d0     1 3d2+    1 3d0     1 3d2+ 
                                   1 3d0     1 3d2+    1 3d0     1 3d2+    1 3d0     1 3d2+    1 3d0     1 3d2+    1 3d0     1 3d2+ 
                                   1 3d0     1 3d2+    1 3d0     1 3d2+    1 5g0     1 5g4+    1 5g2+    1 5g0     1 5g4+    1 5g2+ 
                                   1 5g0     1 5g4+    1 5g2+ 

   1.1   2  -899.3802-1988.7885  0.000046  0.000124  0.000340  0.000773  0.001639  0.003295  0.006546  0.013057  0.026532  0.054579
                                 0.110500  0.205002  0.307349  0.298273  0.132332  0.014617  0.001276 -0.000744  0.000703 -0.001329
                                -0.001273  0.000637  0.000084 -0.000010  0.000007 -0.000004  0.001929 -0.000456  0.000002 -0.000000
                                 0.000000  0.000000  0.000000  0.000000  0.000001  0.000000  0.000001  0.000000 -0.000000 -0.000000
                                -0.000000 -0.000000 -0.000000 -0.000000  0.000000  0.000000 -0.000000 -0.000000 -0.000000 -0.000000
                                -0.000000 -0.000000  0.000000 -0.000000  0.000000 -0.000000  0.000000 -0.000000  0.000000  0.000000
                                 0.000000  0.000000 -0.000000 -0.000000 -0.000000 -0.000000  0.000000  0.000000  0.000000  0.000000
                                -0.000000 -0.000000  0.000000

   2.1   2  -134.3452 -406.2535 -0.000016 -0.000042 -0.000115 -0.000262 -0.000556 -0.001121 -0.002240 -0.004506 -0.009296 -0.019598
                                -0.041574 -0.084086 -0.149194 -0.189651 -0.071675  0.299497  0.551641  0.287930  0.038651  0.001536
                                -0.000569  0.000293  0.000039 -0.000011  0.000007 -0.000004  0.000620 -0.000327  0.000002 -0.000000
                                 0.000000  0.000000  0.000000  0.000000  0.000000  0.000000  0.000004  0.000000  0.000023  0.000000
                                 0.000019  0.000000  0.000001  0.000000  0.000004  0.000000 -0.000002 -0.000000 -0.000009 -0.000000
                                 0.000000 -0.000000  0.000003 -0.000000  0.000001 -0.000000  0.000000 -0.000000  0.000011  0.000000
                                 0.000005  0.000000  0.000000 -0.000000  0.000004 -0.000000 -0.000000 -0.000001 -0.000000  0.000000
                                 0.000001  0.000000 -0.000000

   3.1   2   -25.4990 -138.1666  0.000007  0.000018  0.000050  0.000113  0.000241  0.000486  0.000972  0.001956  0.004047  0.008553
                                 0.018293  0.037406  0.068271  0.090468  0.036112 -0.198060 -0.491160 -0.313991  0.426647  0.791292
                                 0.249510 -0.043267 -0.006174  0.000964 -0.000701  0.000380 -0.071289  0.037989 -0.000164  0.000042
                                 0.000000  0.000000  0.000001  0.000000  0.000005  0.000000  0.000020  0.000000  0.000047  0.000000
                                 0.000148  0.000000  0.000265  0.000000  0.000388  0.000000  0.000448  0.000000  0.000285  0.000000
                                 0.000037  0.000000 -0.000035  0.000000 -0.000012  0.000000 -0.000003  0.000000 -0.000287 -0.000000
                                -0.000153 -0.000000  0.000000 -0.000000  0.000054 -0.000000 -0.000000 -0.000091 -0.000000  0.000000
                                 0.000021  0.000000 -0.000000

   4.1   2    -3.8007  -54.7046 -0.000003 -0.000008 -0.000021 -0.000047 -0.000100 -0.000201 -0.000402 -0.000809 -0.001677 -0.003542
                                -0.007596 -0.015543 -0.028582 -0.038057 -0.015665  0.089652  0.233726  0.163014 -0.274840 -0.745284
                                -0.044519  0.809835  0.507849  0.033200 -0.016248  0.007992 -0.061071  0.017114 -0.003317  0.000845
                                -0.000000 -0.000000 -0.000001 -0.000000 -0.000004 -0.000000 -0.000017 -0.000000 -0.000042 -0.000000
                                -0.000126 -0.000000 -0.000186 -0.000000 -0.000278 -0.000000 -0.000378 -0.000000  0.000682  0.000000
                                -0.000466  0.000000 -0.001897  0.000000 -0.001136  0.000000 -0.000204  0.000000  0.000332  0.000000
                                 0.000874  0.000000 -0.000011  0.000000 -0.000159 -0.000000  0.000000 -0.000470  0.000000  0.000000
                                -0.000700 -0.000000  0.000000

   5.1   2   -13.1533 -117.4882 -0.000000 -0.000000 -0.000000 -0.000000 -0.000000 -0.000000 -0.000000 -0.000000 -0.000000 -0.000000
                                -0.000000 -0.000000 -0.000000 -0.000000 -0.000000  0.000000  0.000000  0.000000 -0.000000 -0.000000
                                 0.000000  0.000000 -0.000000 -0.000000  0.000000 -0.000000  0.000000 -0.000000  0.000000  0.000000
                                 0.000000  0.000149  0.000000  0.001306  0.000000  0.007852  0.000000  0.032032  0.000000  0.097106
                                 0.000000  0.216256  0.000000  0.332467  0.000000  0.338151  0.000000  0.182432  0.000000  0.044323
                                 0.000000  0.004716 -0.000000 -0.000089  0.000000  0.000055 -0.000000 -0.000017 -0.000000 -0.005625
                                -0.000000 -0.004657  0.000000  0.000005  0.000000  0.000000  0.000165 -0.000000 -0.000000 -0.000034
                                 0.000000  0.000000  0.000034

   6.1   2   -13.1543 -117.4105 -0.000000 -0.000000 -0.000000 -0.000000 -0.000000 -0.000001 -0.000001 -0.000002 -0.000005 -0.000011
                                -0.000023 -0.000046 -0.000085 -0.000113 -0.000047  0.000263  0.000639  0.000493 -0.000741 -0.001748
                                 0.000275  0.000583 -0.000024 -0.000007  0.000008 -0.000006  0.000372 -0.000280 -0.000001 -0.000002
                                 0.000149 -0.000000  0.001303 -0.000000  0.007834 -0.000000  0.031959 -0.000000  0.096870 -0.000000
                                 0.215761 -0.000000  0.331815 -0.000000  0.338069 -0.000000  0.183635 -0.000000  0.045261 -0.000000
                                 0.005053 -0.000000  0.000060  0.000000  0.000143 -0.000000  0.000000  0.000000 -0.005767  0.000000
                                -0.004856  0.000000  0.000006 -0.000000  0.000430  0.000000  0.000000 -0.000283 -0.000000 -0.000000
                                 0.000097  0.000000  0.000000

   7.1   2    -0.0229  -12.5916  0.000000  0.000001  0.000004  0.000008  0.000017  0.000035  0.000071  0.000142  0.000294  0.000622
                                 0.001333  0.002732  0.005020  0.006709  0.002737 -0.015879 -0.042101 -0.029264  0.050407  0.158372
                                 0.020835 -0.251056 -0.223143  0.105442  0.318539  0.350151 -0.005237  0.039724  0.295650  0.126267
                                 0.000000  0.000000  0.000003  0.000000  0.000018  0.000000  0.000075  0.000000  0.000228  0.000000
                                 0.000517  0.000000  0.000772  0.000000  0.000700  0.000000 -0.000207 -0.000000 -0.001767 -0.000000
                                -0.002584 -0.000000 -0.000677 -0.000000  0.003911 -0.000000  0.004720  0.000000 -0.000467  0.000000
                                -0.000757  0.000000  0.004043 -0.000000 -0.000123 -0.000000  0.000000 -0.000282  0.000000  0.000000
                                 0.000172 -0.000000 -0.000000

   8.1   2    -0.2530  -35.5945  0.000000  0.000000  0.000000  0.000000  0.000000  0.000000  0.000000  0.000000  0.000000  0.000000
                                 0.000000  0.000000  0.000000  0.000000  0.000000 -0.000000 -0.000000 -0.000000  0.000000  0.000000
                                -0.000000 -0.000000  0.000000  0.000000  0.000000  0.000000  0.000000 -0.000000 -0.000000  0.000000
                                -0.000000 -0.000046 -0.000000 -0.000402 -0.000000 -0.002425 -0.000000 -0.009961 -0.000000 -0.030542
                                -0.000000 -0.068661 -0.000000 -0.102224 -0.000000 -0.091843  0.000000  0.039778  0.000000  0.251137
                                 0.000000  0.372668  0.000000  0.332536  0.000000  0.190939  0.000000  0.053471  0.000000  0.009159
                                 0.000000  0.008183  0.000000  0.002865  0.000000  0.000000  0.000827  0.000000  0.000000  0.001146
                                 0.000000  0.000000  0.002485

   9.1   +    -0.3319  -36.2486  0.000000  0.000000  0.000000  0.000000  0.000001  0.000002  0.000004  0.000007  0.000015  0.000031
                                 0.000067  0.000134  0.000257  0.000322  0.000173 -0.000889 -0.001921 -0.002053  0.004014  0.002902
                                -0.021188  0.015395  0.015586  0.024827 -0.002540 -0.003801  0.018079 -0.039063 -0.007601 -0.002323
                                -0.000047  0.000000 -0.000410  0.000000 -0.002474  0.000000 -0.010162  0.000000 -0.031152  0.000000
                                -0.070061  0.000000 -0.104283  0.000000 -0.093734  0.000000  0.039179 -0.000000  0.256645 -0.000000
                                 0.384015 -0.000000  0.335602 -0.000000  0.173093 -0.000000  0.037265 -0.000000  0.008328 -0.000000
                                 0.007903 -0.000000  0.000880 -0.000000  0.001963  0.000000  0.000000  0.003987 -0.000000  0.000000
                                 0.005488  0.000000  0.000000

  10.1   0     0.0766   -3.1140 -0.000000 -0.000000 -0.000001 -0.000002 -0.000004 -0.000007 -0.000015 -0.000029 -0.000063 -0.000122
                                -0.000294 -0.000520 -0.001159 -0.001093 -0.001314  0.005121  0.004331  0.016804 -0.039793  0.106032
                                 0.395222 -0.566392 -0.245088  0.298819 -0.892946  1.695603 -0.371936  0.693799 -3.018170  2.419811
                                -0.000000 -0.000000 -0.000002 -0.000000 -0.000015 -0.000000 -0.000061 -0.000000 -0.000188 -0.000000
                                -0.000425 -0.000000 -0.000633 -0.000000 -0.000564 -0.000000  0.000194  0.000000  0.001280  0.000000
                                 0.001991  0.000000  0.001414  0.000000 -0.000348 -0.000000 -0.000895 -0.000000  0.000350 -0.000000
                                 0.000559 -0.000000 -0.000469  0.000000  0.000043  0.000000 -0.000000  0.000069 -0.000000 -0.000000
                                -0.000350 -0.000000  0.000000

  11.1   0     0.1607   -6.0412 -0.000000 -0.000001 -0.000002 -0.000005 -0.000010 -0.000020 -0.000039 -0.000081 -0.000158 -0.000361
                                -0.000699 -0.001627 -0.002514 -0.004430  0.000226  0.004545  0.033743 -0.008914  0.040815 -0.414569
                                -0.953189  1.604536  0.822605 -0.867551  1.963542 -4.708212  0.880445 -1.686657  4.826468 -1.496850
                                -0.000001 -0.000000 -0.000006 -0.000000 -0.000036 -0.000000 -0.000148 -0.000000 -0.000447 -0.000000
                                -0.001022 -0.000000 -0.001490 -0.000000 -0.001423 -0.000000  0.000869  0.000000  0.006933  0.000000
                                 0.008002  0.000000  0.002173 -0.000000 -0.000481  0.000000 -0.003447 -0.000000 -0.001883 -0.000000
                                -0.002801 -0.000000  0.001680  0.000000  0.000113  0.000000 -0.000000  0.000174 -0.000000 -0.000000
                                -0.000970  0.000000  0.000000

                                   1 2px     1 2px     1 2px     1 2px     1 2px     1 2px     1 2px     1 2px     1 2px     1 2px  
                                   1 2px     1 2px     1 2px     1 2px     1 2px     1 2px     1 2px     1 2px     1 2px     1 2px  
                                   1 2px     1 2px     1 2px     1 2px     1 4f1+    1 4f3+    1 4f1+    1 4f3+    1 4f1+    1 4f3+ 
                                   1 4f1+    1 4f3+ 

   1.2   2  -120.2335 -385.9918  0.000016  0.000054  0.000200  0.000696  0.002412  0.008101  0.025348  0.070734  0.164492  0.293933
                                 0.350429  0.217592  0.052923  0.004354 -0.004323 -0.000353 -0.000043  0.000007 -0.000005  0.000003
                                 0.004571  0.000042 -0.000001  0.000000 -0.000003  0.000000 -0.000005 -0.000000  0.000001  0.000000
                                -0.000001 -0.000000

   2.2   2   -20.7264 -129.6658 -0.000007 -0.000024 -0.000090 -0.000314 -0.001093 -0.003696 -0.011699 -0.033441 -0.080746 -0.152291
                                -0.187144 -0.037725  0.293632  0.499027  0.345405  0.048599  0.000586  0.000005  0.000021 -0.000012
                                -0.059274  0.002014  0.000005 -0.000002  0.000318  0.000000 -0.000105 -0.000000  0.000091  0.000000
                                -0.000026 -0.000000

   3.2   2    -2.3475  -48.9819  0.000003  0.000010  0.000035  0.000122  0.000426  0.001441  0.004581  0.013122  0.031988  0.060766
                                 0.075654  0.005324 -0.155336 -0.304991 -0.111597  0.357060  0.288478  0.037969 -0.003633  0.002659
                                -0.027527  0.539718 -0.001084  0.000362  0.002314  0.000000  0.003847  0.000000  0.002887  0.000000
                                 0.000341 -0.000000

   4.2   0     0.0691   -2.5024 -0.000000 -0.000000 -0.000000 -0.000000 -0.000001 -0.000001 -0.000018  0.000001 -0.000151  0.000099
                                -0.000737  0.001433 -0.003436  0.013033 -0.284272 -0.041729 -0.039328  0.073142 -0.177968  0.486334
                                 0.299603  0.032263 -1.204994  1.637526 -0.000004  0.000000 -0.000000 -0.000000 -0.000006  0.000000
                                 0.000056 -0.000000

   5.2   0     0.1305   -4.5744  0.000000  0.000000  0.000001  0.000003  0.000009  0.000038  0.000090  0.000363  0.000584  0.001873
                                 0.000635  0.002948 -0.011206  0.016951 -0.565995 -0.070684 -0.068572  0.138334 -0.417271  1.033044
                                 0.592698  0.083084 -2.232331  0.891178  0.000045  0.000000 -0.000031 -0.000000  0.000111  0.000000
                                -0.000736 -0.000000

                                   1 2py     1 2py     1 2py     1 2py     1 2py     1 2py     1 2py     1 2py     1 2py     1 2py  
                                   1 2py     1 2py     1 2py     1 2py     1 2py     1 2py     1 2py     1 2py     1 2py     1 2py  
                                   1 2py     1 2py     1 2py     1 2py     1 4f1-    1 4f3-    1 4f1-    1 4f3-    1 4f1-    1 4f3- 
                                   1 4f1-    1 4f3- 

   1.3   2  -120.2335 -385.9918  0.000016  0.000054  0.000200  0.000696  0.002412  0.008101  0.025348  0.070734  0.164492  0.293933
                                 0.350429  0.217592  0.052923  0.004354 -0.004323 -0.000353 -0.000043  0.000007 -0.000005  0.000003
                                 0.004571  0.000042 -0.000001  0.000000 -0.000003  0.000000 -0.000005 -0.000000  0.000001  0.000000
                                -0.000001 -0.000000

   2.3   2   -20.7264 -129.6658 -0.000007 -0.000024 -0.000090 -0.000314 -0.001093 -0.003696 -0.011699 -0.033441 -0.080746 -0.152291
                                -0.187144 -0.037725  0.293632  0.499027  0.345405  0.048599  0.000586  0.000005  0.000021 -0.000012
                                -0.059274  0.002014  0.000005 -0.000002  0.000318  0.000000 -0.000105 -0.000000  0.000091  0.000000
                                -0.000026 -0.000000

   3.3   2    -2.3475  -48.9819  0.000003  0.000010  0.000035  0.000122  0.000426  0.001441  0.004581  0.013122  0.031988  0.060766
                                 0.075654  0.005324 -0.155336 -0.304991 -0.111597  0.357060  0.288478  0.037969 -0.003633  0.002659
                                -0.027527  0.539718 -0.001084  0.000362  0.002314  0.000000  0.003847  0.000000  0.002887  0.000000
                                 0.000341 -0.000000

   4.3   0     0.0691   -2.5024 -0.000000 -0.000000 -0.000000 -0.000000 -0.000001 -0.000001 -0.000018  0.000001 -0.000151  0.000099
                                -0.000737  0.001433 -0.003436  0.013033 -0.284272 -0.041729 -0.039328  0.073142 -0.177968  0.486334
                                 0.299603  0.032263 -1.204994  1.637526 -0.000004 -0.000000 -0.000000  0.000000 -0.000006 -0.000000
                                 0.000056  0.000000

   5.3   0     0.1305   -4.5744  0.000000  0.000000  0.000001  0.000003  0.000009  0.000038  0.000090  0.000363  0.000584  0.001873
                                 0.000635  0.002948 -0.011206  0.016951 -0.565995 -0.070684 -0.068572  0.138334 -0.417271  1.033044
                                 0.592698  0.083084 -2.232331  0.891178  0.000045  0.000000 -0.000031  0.000000  0.000111 -0.000000
                                -0.000736 -0.000000

                                   1 3d2-    1 3d2-    1 3d2-    1 3d2-    1 3d2-    1 3d2-    1 3d2-    1 3d2-    1 3d2-    1 3d2- 
                                   1 3d2-    1 3d2-    1 3d2-    1 3d2-    1 3d2-    1 3d2-    1 3d2-    1 5g2-    1 5g4-    1 5g2- 
                                   1 5g4-    1 5g2-    1 5g4- 

   1.4   2   -13.1533 -117.4882  0.000149  0.001306  0.007852  0.032032  0.097106  0.216256  0.332467  0.338151  0.182432  0.044323
                                 0.004716 -0.000089  0.000055 -0.000017 -0.005625 -0.004657  0.000005  0.000165  0.000000 -0.000034
                                -0.000000  0.000034  0.000000

   2.4   2    -0.2530  -35.5945 -0.000046 -0.000402 -0.002425 -0.009961 -0.030542 -0.068661 -0.102224 -0.091843  0.039778  0.251137
                                 0.372668  0.332536  0.190939  0.053471  0.009159  0.008183  0.002865  0.000827  0.000000  0.001146
                                 0.000000  0.002485  0.000000

   3.4   0     0.2168   -5.7629  0.000004  0.000018  0.000201  0.000477  0.002579  0.002764  0.011611 -0.009534  0.076342  0.699244
                                 0.591022 -0.228777  0.249071 -0.564660 -0.513856 -0.778495  1.294708 -0.000016 -0.000000 -0.000050
                                -0.000000 -0.000025 -0.000000

   4.4   0     0.4811   -9.8251 -0.000009 -0.000122 -0.000499 -0.002945 -0.006180 -0.021668 -0.013012 -0.062776  0.214833  1.924824
                                 1.720478 -0.476311  0.802668 -1.869917 -1.327013 -2.036588  0.838524  0.000042  0.000000  0.000248
                                 0.000000 -0.000088 -0.000000

                                   1 2pz     1 2pz     1 2pz     1 2pz     1 2pz     1 2pz     1 2pz     1 2pz     1 2pz     1 2pz  
                                   1 2pz     1 2pz     1 2pz     1 2pz     1 2pz     1 2pz     1 2pz     1 2pz     1 2pz     1 2pz  
                                   1 2pz     1 2pz     1 2pz     1 2pz     1 4f0     1 4f2+    1 4f0     1 4f2+    1 4f0     1 4f2+ 
                                   1 4f0     1 4f2+ 

   1.5   2  -120.2385 -385.9968  0.000016  0.000054  0.000200  0.000696  0.002412  0.008101  0.025348  0.070733  0.164490  0.293928
                                 0.350441  0.217599  0.052902  0.004355 -0.004349 -0.000346 -0.000041  0.000008 -0.000005  0.000003
                                 0.004604  0.000047 -0.000001  0.000000  0.000018 -0.000000  0.000001 -0.000000  0.000004  0.000000
                                -0.000000 -0.000000

   2.5   2   -20.7447 -129.6740 -0.000007 -0.000024 -0.000090 -0.000314 -0.001092 -0.003695 -0.011695 -0.033431 -0.080721 -0.152240
                                -0.187106 -0.037735  0.293481  0.498735  0.345668  0.048702  0.000542 -0.000010  0.000021 -0.000014
                                -0.059096  0.001893  0.000005 -0.000002  0.000600  0.000000 -0.000514 -0.000000  0.000157  0.000000
                                -0.000077 -0.000000

   3.5   2    -2.3523  -49.0335  0.000003  0.000010  0.000035  0.000123  0.000427  0.001443  0.004586  0.013138  0.032025  0.060840
                                 0.075743  0.005357 -0.155605 -0.305001 -0.115529  0.356919  0.286633  0.035665 -0.003640  0.002501
                                -0.024200  0.542991 -0.001024  0.000341 -0.000754  0.000000 -0.000945  0.000000 -0.002985  0.000000
                                -0.001063  0.000000

   4.5   0     0.0691   -2.5038 -0.000000 -0.000000 -0.000000 -0.000000 -0.000002 -0.000001 -0.000019 -0.000001 -0.000156  0.000089
                                -0.000747  0.001428 -0.003401  0.013047 -0.283532 -0.041708 -0.039332  0.073268 -0.177501  0.486264
                                 0.298856  0.032073 -1.203156  1.636709 -0.000009 -0.000000 -0.000010  0.000000  0.000004 -0.000000
                                 0.000118  0.000000

   5.5   0     0.1298   -4.6265  0.000000  0.000000  0.000001  0.000003  0.000010  0.000041  0.000100  0.000390  0.000654  0.001993
                                 0.000812  0.002914 -0.011434  0.015924 -0.558095 -0.068594 -0.066800  0.133969 -0.416340  1.011083
                                 0.584062  0.083898 -2.214551  0.887046  0.000120  0.000000  0.000033 -0.000000  0.000055  0.000000
                                -0.001578 -0.000000

                                   1 3d1+    1 3d1+    1 3d1+    1 3d1+    1 3d1+    1 3d1+    1 3d1+    1 3d1+    1 3d1+    1 3d1+ 
                                   1 3d1+    1 3d1+    1 3d1+    1 3d1+    1 3d1+    1 3d1+    1 3d1+    1 5g1+    1 5g3+    1 5g1+ 
                                   1 5g3+    1 5g1+    1 5g3+ 

   1.6   2   -13.1659 -117.4944  0.000149  0.001306  0.007851  0.032027  0.097090  0.216237  0.332427  0.338077  0.182502  0.044431
                                 0.004758 -0.000080  0.000056 -0.000017 -0.005589 -0.004646  0.000005  0.000351  0.000000 -0.000206
                                -0.000000  0.000077  0.000000

   2.6   2    -0.2813  -35.8318 -0.000046 -0.000405 -0.002442 -0.010028 -0.030747 -0.069127 -0.102914 -0.092493  0.039763  0.252729
                                 0.375890  0.333800  0.185105  0.047331  0.009408  0.008640  0.001943  0.000855  0.000000  0.001529
                                 0.000000  0.002446  0.000000

   3.6   0     0.2163   -5.7606  0.000004  0.000017  0.000193  0.000445  0.002474  0.002544  0.011241 -0.009753  0.076039  0.696120
                                 0.588865 -0.226528  0.248870 -0.559788 -0.510983 -0.774226  1.292526 -0.000067 -0.000000 -0.000237
                                -0.000000 -0.000055 -0.000000

   4.6   0     0.4780   -9.7787  0.000009  0.000119  0.000486  0.002882  0.006013  0.021217  0.012532  0.061839 -0.212559 -1.905032
                                -1.702414  0.472745 -0.790484  1.865156  1.313928  2.016429 -0.840100 -0.000218 -0.000000 -0.001115
                                -0.000000  0.000361  0.000000

                                   1 3d1-    1 3d1-    1 3d1-    1 3d1-    1 3d1-    1 3d1-    1 3d1-    1 3d1-    1 3d1-    1 3d1- 
                                   1 3d1-    1 3d1-    1 3d1-    1 3d1-    1 3d1-    1 3d1-    1 3d1-    1 5g1-    1 5g3-    1 5g1- 
                                   1 5g3-    1 5g1-    1 5g3- 

   1.7   2   -13.1659 -117.4944  0.000149  0.001306  0.007851  0.032027  0.097090  0.216237  0.332427  0.338077  0.182502  0.044431
                                 0.004758 -0.000080  0.000056 -0.000017 -0.005589 -0.004646  0.000005  0.000351  0.000000 -0.000206
                                -0.000000  0.000077  0.000000

   2.7   2    -0.2813  -35.8318 -0.000046 -0.000405 -0.002442 -0.010028 -0.030747 -0.069127 -0.102914 -0.092493  0.039763  0.252729
                                 0.375890  0.333800  0.185105  0.047331  0.009408  0.008640  0.001943  0.000855  0.000000  0.001529
                                 0.000000  0.002446  0.000000

   3.7   0     0.2163   -5.7606  0.000004  0.000017  0.000193  0.000445  0.002474  0.002544  0.011241 -0.009753  0.076039  0.696120
                                 0.588865 -0.226528  0.248870 -0.559788 -0.510983 -0.774226  1.292526 -0.000067 -0.000000 -0.000237
                                -0.000000 -0.000055  0.000000

   4.7   0     0.4780   -9.7787  0.000009  0.000119  0.000486  0.002882  0.006013  0.021217  0.012532  0.061839 -0.212559 -1.905032
                                -1.702414  0.472745 -0.790484  1.865156  1.313928  2.016429 -0.840100 -0.000218 -0.000000 -0.001115
                                -0.000000  0.000361  0.000000

                                   1 4f2-    1 4f2-    1 4f2-    1 4f2- 

   1.8   0     1.0337  -13.9457 -0.003446  0.132719 -0.207981  1.102533

   2.8   0     2.1793  -22.5159 -0.213316  0.040818 -1.261659  0.780751

 HOMO      2.4    -0.252991 =      -6.8842eV
 LUMO      4.5     0.069087 =       1.8800eV
 LUMO-HOMO         0.322078 =       8.7642eV


 **********************************************************************************************************************************
 DATASETS  * FILE   NREC   LENGTH (MB)   RECORD NAMES
              1      22       20.64       500      610      700      900      950      970     1000      129      960     1700   
                                          VAR    BASINP    GEOM    SYMINP    ZMAT    AOBASIS   BASIS     P2S    ABASIS    OPER   
                                         1101     1401     1411     1412     1650     1100     1400     1410     1200     1210   
                                          SR      EKINR    POTR     PVPR    MOLCAS      S      EKIN      POT      H0       H01  
                                         1080     1600   
                                         AOSYM     SMH  

              2       5        5.66       200      700     1000      520     4202   
                                        OPTIONS   GEOM     BASIS   MCVARS     RHF  

 PROGRAMS   *        TOTAL       RHF  RCCSD(T)       RHF       INT
 CPU TIMES  *        50.61      0.97     17.81      0.57     30.71
 REAL TIME  *        68.31 SEC
 DISK USED  *         3.42 GB      
 SF USED    *       380.64 MB      
 GA USED    *         0.00 MB       (max)       0.00 MB       (current)
 **********************************************************************************************************************************


 PROGRAM * POP (Mulliken population analysis)

 
 Density matrix read from record         4202.2  Type=RHF/CHARGE (state 1.1)
 
 Population analysis by basis function type

 Unique atom        s        p        d        f        g    Total    Charge
   1  PD     10.00012 17.99971 18.99966  0.00029  0.00022 47.00000  - 1.00000


 **********************************************************************************************************************************
 DATASETS  * FILE   NREC   LENGTH (MB)   RECORD NAMES
              1      22       20.64       500      610      700      900      950      970     1000      129      960     1700   
                                          VAR    BASINP    GEOM    SYMINP    ZMAT    AOBASIS   BASIS     P2S    ABASIS    OPER   
                                         1101     1401     1411     1412     1650     1100     1400     1410     1200     1210   
                                          SR      EKINR    POTR     PVPR    MOLCAS      S      EKIN      POT      H0       H01  
                                         1080     1600   
                                         AOSYM     SMH  

              2       5        5.66       200      700     1000      520     4202   
                                        OPTIONS   GEOM     BASIS   MCVARS     RHF  

 PROGRAMS   *        TOTAL       POP       RHF  RCCSD(T)       RHF       INT
 CPU TIMES  *        50.61      0.00      0.97     17.81      0.57     30.71
 REAL TIME  *        68.71 SEC
 DISK USED  *         3.42 GB      
 SF USED    *       380.64 MB      
 GA USED    *         0.00 MB       (max)       0.00 MB       (current)
 **********************************************************************************************************************************


 PROGRAM * MULTI (Direct Multiconfiguration SCF)       Authors: P.J. Knowles, H.-J. Werner (1984)     S.T. Elbert (1988)


 Number of closed-shell orbitals:  19 (   7   3   3   1   3   1   1   0 )
 Number of active  orbitals:        5 (   2   0   0   1   0   1   1   0 )
 Number of external orbitals:     218 (  64  29  29  21  29  21  21   4 )

 State symmetry 1

 Number of electrons:     9    Spin symmetry=Doublet   Space symmetry=1
 Number of states:        2
 Number of CSFs:          2   (2 determinants, 5 intermediate states)

 State symmetry 2

 Number of electrons:     9    Spin symmetry=Doublet   Space symmetry=4
 Number of states:        1
 Number of CSFs:          1   (1 determinants, 5 intermediate states)

 State symmetry 3

 Number of electrons:     9    Spin symmetry=Doublet   Space symmetry=6
 Number of states:        1
 Number of CSFs:          1   (1 determinants, 5 intermediate states)

 State symmetry 4

 Number of electrons:     9    Spin symmetry=Doublet   Space symmetry=7
 Number of states:        1
 Number of CSFs:          1   (1 determinants, 5 intermediate states)

 Molecular orbitals read from record     4202.2  Type=RHF/CANONICAL (state 1.1)
 *** IN SYMMETRY 1 ORBITAL  2 SYMMETRY CONTAMINATION OF 0.510D-04 HAS BEEN REMOVED
 *** IN SYMMETRY 1 ORBITAL  3 SYMMETRY CONTAMINATION OF 0.793D-03 HAS BEEN REMOVED
 *** IN SYMMETRY 1 ORBITAL  4 SYMMETRY CONTAMINATION OF 0.254D-02 HAS BEEN REMOVED
 *** IN SYMMETRY 1 ORBITAL  5 SYMMETRY CONTAMINATION OF 0.184D-03 HAS BEEN REMOVED
 *** IN SYMMETRY 1 ORBITAL  6 SYMMETRY CONTAMINATION OF 0.517D-02 HAS BEEN REMOVED
 *** IN SYMMETRY 1 ORBITAL  7 SYMMETRY CONTAMINATION OF 0.106D-01 HAS BEEN REMOVED
 *** IN SYMMETRY 1 ORBITAL  8 SYMMETRY CONTAMINATION OF 0.284D-02 HAS BEEN REMOVED
 *** IN SYMMETRY 1 ORBITAL  9 SYMMETRY CONTAMINATION OF 0.101D+00 HAS BEEN REMOVED

 EXTRA SYMMETRY OF MOS IN SYMMETRY 1:   1 1 1 1 3 2 1 3 2 1   1 2 3 1 2 3 1 2 3 1   2 3 4 6 5 2 3 1 4 6   5 2 3 1 4 6 5 2 3 1
                                        2 3 2 3 1 2 3 1 2 3   1 2 3 1 2 3 1 2 3 1   1 2 3 1 1 1 1 1 1 1   1 1 1
 *** IN SYMMETRY 2 ORBITAL  2 SYMMETRY CONTAMINATION OF 0.308D-03 HAS BEEN REMOVED
 *** IN SYMMETRY 2 ORBITAL  3 SYMMETRY CONTAMINATION OF 0.462D-02 HAS BEEN REMOVED
 EXTRA SYMMETRY OF MOS IN SYMMETRY 2:   1 1 1 1 1 1 1 1 2 3   2 3 1 2 3 1 2 3 1 1   1 1 1 1 1 1 1 1 1 1   1 1
 *** IN SYMMETRY 3 ORBITAL  2 SYMMETRY CONTAMINATION OF 0.308D-03 HAS BEEN REMOVED
 *** IN SYMMETRY 3 ORBITAL  3 SYMMETRY CONTAMINATION OF 0.462D-02 HAS BEEN REMOVED
 EXTRA SYMMETRY OF MOS IN SYMMETRY 3:   1 1 1 1 1 1 1 1 2 3   2 3 1 2 3 1 2 3 1 1   1 1 1 1 1 1 1 1 1 1   1 1
 *** IN SYMMETRY 4 ORBITAL  1 SYMMETRY CONTAMINATION OF 0.184D-03 HAS BEEN REMOVED
 *** IN SYMMETRY 4 ORBITAL  2 SYMMETRY CONTAMINATION OF 0.284D-02 HAS BEEN REMOVED
 EXTRA SYMMETRY OF MOS IN SYMMETRY 4:   1 1 1 1 1 1 2 3 1 2   3 1 2 3 1 1 1 1 1 1   1 1 1
 *** IN SYMMETRY 5 ORBITAL  1 SYMMETRY CONTAMINATION OF 0.196D-04 HAS BEEN REMOVED
 *** IN SYMMETRY 5 ORBITAL  2 SYMMETRY CONTAMINATION OF 0.767D-03 HAS BEEN REMOVED
 *** IN SYMMETRY 5 ORBITAL  3 SYMMETRY CONTAMINATION OF 0.283D-02 HAS BEEN REMOVED
 EXTRA SYMMETRY OF MOS IN SYMMETRY 5:   1 1 1 1 1 1 1 1 2 3   2 3 1 2 3 1 2 3 1 1   1 1 1 1 1 1 1 1 1 1   1 1
 *** IN SYMMETRY 6 ORBITAL  1 SYMMETRY CONTAMINATION OF 0.500D-03 HAS BEEN REMOVED
 *** IN SYMMETRY 6 ORBITAL  2 SYMMETRY CONTAMINATION OF 0.308D-02 HAS BEEN REMOVED
 EXTRA SYMMETRY OF MOS IN SYMMETRY 6:   1 1 1 1 1 1 2 3 1 2   3 1 2 3 1 1 1 1 1 1   1 1 1
 *** IN SYMMETRY 7 ORBITAL  1 SYMMETRY CONTAMINATION OF 0.500D-03 HAS BEEN REMOVED
 *** IN SYMMETRY 7 ORBITAL  2 SYMMETRY CONTAMINATION OF 0.308D-02 HAS BEEN REMOVED
 EXTRA SYMMETRY OF MOS IN SYMMETRY 7:   1 1 1 1 1 1 2 3 1 2   3 1 2 3 1 1 1 1 1 1   1 1 1

 Wavefunction dump at record             5202.2

[...]
 **********************************************************************************************************************************
 SETTING SCF(12)        =     -4985.78181323  AU                              
 SETTING _CC_NORM_MAX   =         2.00000000                                  


 PROGRAM * CCSD (Restricted open-shell coupled cluster)     Authors: C. Hampel, H.-J. Werner, 1991, M. Deegan, P.J. Knowles, 1992


 Convergence thresholds:  THRVAR = 1.00D-08  THRDEN = 1.00D-06

 CCSD(T)     terms to be evaluated (factor= 1.000)


 Number of core orbitals:          14 (   5   2   2   1   2   1   1   0 )
 Number of closed-shell orbitals:   1 (   1   0   0   0   0   0   0   0 )
 Number of active  orbitals:        3 (   0   1   1   0   1   0   0   0 )
 Number of external orbitals:     224 (  67  29  29  22  29  22  22   4 )

 Memory could be reduced to 16.87 Mwords without degradation in triples

 Number of N-1 electron functions:               5
 Number of N-2 electron functions:              10
 Number of singly external CSFs:               224
 Number of doubly external CSFs:             48353
 Total number of CSFs:                       48577

 Molecular orbitals read from record     2120.2  Type=RHF/CANONICAL (state 1.8)

 Integral transformation finished. Total CPU:   0.39 sec, npass=  1  Memory used:   2.45 MW

 Starting RMP2 calculation

 Wavefunction is spin-projected

 ITER.      SQ.NORM     CORR.ENERGY   TOTAL ENERGY   ENERGY CHANGE        DEN1      VAR(S)    VAR(P)  DIIS     TIME
   1      1.01667151    -0.12146105 -4985.90327428    -0.12146105    -0.00009805  0.46D-08  0.15D-04  1  1     0.54
   2      1.01670829    -0.12156299 -4985.90337622    -0.00010194    -0.00000001  0.16D-11  0.13D-08  2  2     0.63
   3      1.01670847    -0.12156333 -4985.90337656    -0.00000035    -0.00000000  0.25D-15  0.14D-12  3  3     0.76

 Norm of t1 vector:      0.00572506      S-energy:    -0.00031816      T1 diagnostic:  0.00007794
 Norm of t2 vector:      0.12913441      P-energy:    -0.12124517
                                         Alpha-Beta:  -0.09098421
                                         Alpha-Alpha: -0.03026096
                                         Beta-Beta:    0.00000000

 Spin contamination <S**2-Sz**2-Sz>     0.00000000
  Reference energy                  -4985.781813231612
  RHF-RMP2 correlation energy          -0.121563333120
 !RHF-RMP2 energy                   -4985.903376564731
 (NB above energy spin projected)

 Starting RCCSD calculation

 ITER.      SQ.NORM     CORR.ENERGY   TOTAL ENERGY   ENERGY CHANGE        DEN1      VAR(S)    VAR(P)  DIIS     TIME
   1      1.02106926    -0.13401398 -4985.91582721    -0.13401398    -0.00278980  0.35D-05  0.43D-03  1  1     0.97
   2      1.02240411    -0.13709252 -4985.91890575    -0.00307854    -0.00002962  0.16D-07  0.39D-05  2  2     1.03
   3      1.02250626    -0.13724362 -4985.91905685    -0.00015110    -0.00000044  0.25D-09  0.59D-07  3  3     1.18
   4      1.02251715    -0.13726090 -4985.91907413    -0.00001727    -0.00000000  0.96D-11  0.19D-09  4  4     1.39
   5      1.02251715    -0.13726065 -4985.91907388     0.00000024    -0.00000000  0.26D-13  0.85D-12  5  5     1.52

 Norm of t1 vector:      0.00608464      S-energy:    -0.00030835      T1 diagnostic:  0.00068342
                                                                       D1 diagnostic:  0.00096897
 Norm of t2 vector:      0.14993376      P-energy:    -0.13695231
                                         Alpha-Beta:  -0.10521620
                                         Alpha-Alpha: -0.03173611
                                         Beta-Beta:    0.00000000

 Spin contamination <S**2-Sz**2-Sz>     0.00000000

 Memory could be reduced to 17.04 Mwords without degradation in triples
 

  Correlated core orbitals:             6.1       3.2       3.3       3.5
  Orbital energies:                   -13.3639  -11.6337  -11.6337  -11.6337
 
  RCCSD core-core energy               -0.137260652572
 

 RESULTS
 =======

  Reference energy                  -4985.781813231612
  RCCSD singles energy                 -0.000308345530
  RCCSD pair energy                    -0.136952307042
  RCCSD correlation energy             -0.137260652572
  Triples (T) contribution             -0.002116139869
  Total correlation energy             -0.139376792441
 
  RHF-RCCSD energy                  -4985.919073884183
  RHF-RCCSD[T] energy               -4985.921188965885
  RHF-RCCSD-T energy                -4985.921189363176
 !RHF-RCCSD(T) energy               -4985.921190024053

 Program statistics:

 Available memory in ccsd:               511999732
 Min. memory needed in ccsd:                405804
 Max. memory used in ccsd:                  444878
 Max. memory used in cckext:                505306 ( 5 integral passes)
 Max. memory used in cckint:               2450277 ( 1 integral passes)



 **********************************************************************************************************************************
 DATASETS  * FILE   NREC   LENGTH (MB)   RECORD NAMES
              1      23       49.05       500      610      700      900      950      970     1000      129      960     1700   
                                          VAR    BASINP    GEOM    SYMINP    ZMAT    AOBASIS   BASIS     P2S    ABASIS    OPER   
                                         1101     1401     1411     1412     1650     1100     1400     1410     1200     1210   
                                          SR      EKINR    POTR     PVPR    MOLCAS      S      EKIN      POT      H0       H01  
                                         1080     1600     1380   
                                         AOSYM     SMH     JKOP   

              2      17       37.89       200      700     1000      520     4202     5202     2102     2105     5202(1)  2107   
                                        OPTIONS   GEOM     BASIS   MCVARS     RHF     MCSCF     RHF      RHF     MCSCF     RHF  
                                         2109     2111     2113     2115     2117     2119     2120   
                                          RHF      RHF      RHF      RHF      RHF      RHF      RHF  

 PROGRAMS   *        TOTAL  RCCSD(T)       RHF  RCCSD(T)       RHF  RCCSD(T)       RHF  RCCSD(T)       RHF     MULTI       POP
 CPU TIMES  *       220.53      2.21      0.62      2.99      0.64      8.16      0.72      8.89      0.10      3.39      0.00
 REAL TIME  *       458.40 SEC
 DISK USED  *         4.47 GB      
 SF USED    *       429.22 MB      
 GA USED    *         0.00 MB       (max)       0.00 MB       (current)
 **********************************************************************************************************************************
 SETTING CCSD(12)       =     -4985.92119002  AU                              

 DO I                   =        13.00000000   

 Running procedure=XVIIS2


 PROGRAM * RHF-SCF (CLOSED SHELL)       Authors: W. Meyer, H.-J. Werner


 NUMBER OF ELECTRONS:      15+   15-    SPACE SYMMETRY=1    SPIN SYMMETRY: Singlet 
 CONVERGENCE THRESHOLDS:    1.00E-05 (Density)    1.00E-07 (Energy)
 MAX. NUMBER OF ITERATIONS:       60
 INTERPOLATION TYPE:            DIIS
 INTERPOLATION STEPS:              2 (START)      1 (STEP)
 LEVEL SHIFTS:                  0.00 (CLOSED)  0.00 (OPEN) 



 Orbital guess generated from atomic densities. Full valence occupancy:    9   3   3   2   3   2   2   0


 Molecular orbital dump at record        2121.2

 Initial occupancy:   6   2   2   1   2   1   1   0

 ITERATION    DDIFF          GRAD             ENERGY        2-EL.EN.            DIPOLE MOMENTS         DIIS   ORB.
    1      0.000D+00      0.000D+00     -4947.21690322   2782.518565    0.00000    0.00000    0.00000    0    start
    2      0.000D+00      0.104D+00     -4948.24293252   2841.706904    0.00000    0.00000    0.00000    1    diag
    3      0.430D-01      0.338D-01     -4948.27684781   2830.668733    0.00000    0.00000    0.00000    2    diag
    4      0.378D-02      0.203D-02     -4948.27715631   2831.143971    0.00000    0.00000    0.00000    3    diag
    5      0.137D-02      0.193D-03     -4948.27715793   2831.210795    0.00000    0.00000    0.00000    4    diag
    6      0.801D-04      0.492D-05     -4948.27715793   2831.210550    0.00000    0.00000    0.00000    5    diag
    7      0.371D-05      0.197D-06     -4948.27715793   2831.210514    0.00000    0.00000    0.00000    0    orth

 Final occupancy:   6   2   2   1   2   1   1   0

 !RHF STATE 1.1 Energy              -4948.277157928764
 Nuclear energy                         0.00000000
 One-electron energy                -6363.88241480
 Two-electron energy                 1415.60525687
 Virial quotient                       -0.88330338
 !RHF STATE 1.1 Dipole moment           0.00000000     0.00000000     0.00000000
 Dipole moment /Debye                   0.00000000     0.00000000     0.00000000

 Orbital energies:

         1.1          2.1          3.1          4.1          5.1          6.1          7.1          8.1
   -914.540003  -149.210797   -39.709931   -27.414307   -27.414307   -15.707616   -10.974113   -10.974113

         1.2          2.2          3.2          4.2
   -135.125193   -34.906831   -13.380372    -8.299321

         1.3          2.3          3.3          4.3
   -135.125193   -34.906831   -13.380372    -8.299321

         1.4          2.4          3.4
    -27.414307   -10.974113    -6.453686

         1.5          2.5          3.5          4.5
   -135.125193   -34.906831   -13.380372    -8.299321

         1.6          2.6          3.6
    -27.414307   -10.974113    -6.453686

         1.7          2.7          3.7
    -27.414307   -10.974113    -6.453686

         1.8          2.8
     -8.299321    -5.240431

 HOMO      6.1   -15.707616 =    -427.4260eV
 LUMO      3.2   -13.380372 =    -364.0985eV
 LUMO-HOMO         2.327243 =      63.3275eV


 **********************************************************************************************************************************
 DATASETS  * FILE   NREC   LENGTH (MB)   RECORD NAMES
              1      23       49.05       500      610      700      900      950      970     1000      129      960     1700   
                                          VAR    BASINP    GEOM    SYMINP    ZMAT    AOBASIS   BASIS     P2S    ABASIS    OPER   
                                         1101     1401     1411     1412     1650     1100     1400     1410     1200     1210   
                                          SR      EKINR    POTR     PVPR    MOLCAS      S      EKIN      POT      H0       H01  
                                         1080     1600     1380   
                                         AOSYM     SMH     JKOP   

              2      18       40.71       200      700     1000      520     4202     5202     2102     2105     5202(1)  2107   
                                        OPTIONS   GEOM     BASIS   MCVARS     RHF     MCSCF     RHF      RHF     MCSCF     RHF  
                                         2109     2111     2113     2115     2117     2119     2120     2121   
                                          RHF      RHF      RHF      RHF      RHF      RHF      RHF      RHF  

 PROGRAMS   *        TOTAL       RHF  RCCSD(T)       RHF  RCCSD(T)       RHF  RCCSD(T)       RHF  RCCSD(T)       RHF     MULTI
 CPU TIMES  *       221.21      0.68      2.21      0.62      2.99      0.64      8.16      0.72      8.89      0.10      3.39
 REAL TIME  *       459.36 SEC
 DISK USED  *         4.47 GB      
 SF USED    *       429.22 MB      
 GA USED    *         0.00 MB       (max)       0.00 MB       (current)
 **********************************************************************************************************************************
 SETTING SCF(13)        =     -4948.27715793  AU                              
 SETTING _CC_NORM_MAX   =         2.00000000                                  


 PROGRAM * CCSD (Restricted open-shell coupled cluster)     Authors: C. Hampel, H.-J. Werner, 1991, M. Deegan, P.J. Knowles, 1992


 Convergence thresholds:  THRVAR = 1.00D-08  THRDEN = 1.00D-06

 CCSD(T)     terms to be evaluated (factor= 1.000)


 Number of core orbitals:          14 (   5   2   2   1   2   1   1   0 )
 Number of closed-shell orbitals:   1 (   1   0   0   0   0   0   0   0 )
 Number of external orbitals:     227 (  67  30  30  22  30  22  22   4 )

 Memory could be reduced to 12.42 Mwords without degradation in triples

 Number of N-1 electron functions:               2
 Number of N-2 electron functions:               1
 Number of singly external CSFs:               134
 Number of doubly external CSFs:              8657
 Total number of CSFs:                        8791

 Molecular orbitals read from record     2121.2  Type=RHF/CANONICAL (state 1.1)

 Integral transformation finished. Total CPU:   0.08 sec, npass=  1  Memory used:   0.97 MW

 Starting RMP2 calculation

 Wavefunction is spin-projected

 ITER.      SQ.NORM     CORR.ENERGY   TOTAL ENERGY   ENERGY CHANGE        DEN1      VAR(S)    VAR(P)  DIIS     TIME
   1      1.00897207    -0.04975896 -4948.32691689    -0.04975896    -0.00006399  0.11D-16  0.13D-04  1  1     0.15
   2      1.00899980    -0.04982551 -4948.32698343    -0.00006655    -0.00000000  0.76D-21  0.23D-09  2  2     0.15
   3      1.00899986    -0.04982562 -4948.32698355    -0.00000011    -0.00000000  0.28D-24  0.36D-14  3  3     0.16

 Norm of t1 vector:      0.00000011      S-energy:    -0.00000000      T1 diagnostic:  0.00000006
 Norm of t2 vector:      0.09486761      P-energy:    -0.04982562
                                         Alpha-Beta:  -0.04982562
                                         Alpha-Alpha:  0.00000000
                                         Beta-Beta:    0.00000000

 Spin contamination <S**2-Sz**2-Sz>     0.00000000
  Reference energy                  -4948.277157928767
  RHF-RMP2 correlation energy          -0.049825618555
 !RHF-RMP2 energy                   -4948.326983547323
 (NB above energy spin projected)

 Starting RCCSD calculation

 ITER.      SQ.NORM     CORR.ENERGY   TOTAL ENERGY   ENERGY CHANGE        DEN1      VAR(S)    VAR(P)  DIIS     TIME
   1      1.01285306    -0.05718468 -4948.33434261    -0.05718468    -0.00290114  0.13D-05  0.57D-03  1  1     0.19
   2      1.01531057    -0.06117147 -4948.33832940    -0.00398679    -0.00002610  0.59D-08  0.31D-05  2  2     0.21
   3      1.01546915    -0.06137963 -4948.33853756    -0.00020816    -0.00000013  0.12D-09  0.11D-07  3  3     0.23
   4      1.01547064    -0.06138006 -4948.33853799    -0.00000043    -0.00000000  0.24D-12  0.39D-10  4  4     0.25

 Norm of t1 vector:      0.00152817      S-energy:    -0.00000000      T1 diagnostic:  0.00076409
                                                                       D1 diagnostic:  0.00108058
 Norm of t2 vector:      0.12437166      P-energy:    -0.06138006
                                         Alpha-Beta:  -0.06138006
                                         Alpha-Alpha:  0.00000000
                                         Beta-Beta:    0.00000000

 Doubles amplitudes (print threshold =  0.500E-01):

         I         J         SYM. A    SYM. B    A         B      T(IJ, AB) [Alpha-Beta]

         1         1         2         2         1         1     -0.06989169
         1         1         3         3         1         1     -0.06989169
         1         1         5         5         1         1     -0.06989169

 Spin contamination <S**2-Sz**2-Sz>     0.00000000

 Memory could be reduced to 12.08 Mwords without degradation in triples
 

  Correlated core orbitals:             6.1
  Orbital energies:                   -15.7076
 
  RCCSD core-core energy               -0.061380062893
 

 RESULTS
 =======

  Reference energy                  -4948.277157928767
  RCCSD singles energy                 -0.000000000098
  RCCSD pair energy                    -0.061380062795
  RCCSD correlation energy             -0.061380062893
  Triples (T) contribution              0.000000000000
  Total correlation energy             -0.061380062893
 
  RHF-RCCSD energy                  -4948.338537991661
  RHF-RCCSD[T] energy               -4948.338537991661
  RHF-RCCSD-T energy                -4948.338537991661
 !RHF-RCCSD(T) energy               -4948.338537991661

 Program statistics:

 Available memory in ccsd:               511999882
 Min. memory needed in ccsd:                261813
 Max. memory used in ccsd:                  261813
 Max. memory used in cckext:                367353 ( 4 integral passes)
 Max. memory used in cckint:                974234 ( 1 integral passes)



 **********************************************************************************************************************************
 DATASETS  * FILE   NREC   LENGTH (MB)   RECORD NAMES
              1      23       49.05       500      610      700      900      950      970     1000      129      960     1700   
                                          VAR    BASINP    GEOM    SYMINP    ZMAT    AOBASIS   BASIS     P2S    ABASIS    OPER   
                                         1101     1401     1411     1412     1650     1100     1400     1410     1200     1210   
                                          SR      EKINR    POTR     PVPR    MOLCAS      S      EKIN      POT      H0       H01  
                                         1080     1600     1380   
                                         AOSYM     SMH     JKOP   

              2      18       40.71       200      700     1000      520     4202     5202     2102     2105     5202(1)  2107   
                                        OPTIONS   GEOM     BASIS   MCVARS     RHF     MCSCF     RHF      RHF     MCSCF     RHF  
                                         2109     2111     2113     2115     2117     2119     2120     2121   
                                          RHF      RHF      RHF      RHF      RHF      RHF      RHF      RHF  

 PROGRAMS   *        TOTAL  RCCSD(T)       RHF  RCCSD(T)       RHF  RCCSD(T)       RHF  RCCSD(T)       RHF  RCCSD(T)       RHF
 CPU TIMES  *       221.64      0.42      0.68      2.21      0.62      2.99      0.64      8.16      0.72      8.89      0.10
 REAL TIME  *       460.15 SEC
 DISK USED  *         4.47 GB      
 SF USED    *       429.22 MB      
 GA USED    *         0.00 MB       (max)       0.00 MB       (current)
 **********************************************************************************************************************************
 SETTING CCSD(13)       =     -4948.33853799  AU                              
 Output type csv         
                                                                                                                                                                                                                                                                

         SCF,CCSD
   -5042.840829,   -5043.565379
   -5042.837259,   -5043.577248
   -5042.837154,   -5043.532983
   -5042.760373,   -5043.449579
   -5042.604115,   -5043.257257
   -5042.500281,   -5043.144529
   -5041.960693,   -5042.546272
   -5040.815644,   -5041.344307
   -5039.120012,   -5039.598686
   -5036.876885,   -5037.299819
   -5014.631522,   -5014.910051
   -4985.781813,   -4985.921190
   -4948.277158,   -4948.338538
                                                  

 RCCSD(T)/USERDEF energy=  -4948.338537991661

        RCCSD(T)        RHF-SCF         RCCSD(T)        RHF-SCF         RCCSD(T)        RHF-SCF         RCCSD(T)        RHF-SCF 
  -4948.33853799  -4948.27715793  -4985.92119002  -4985.78181323  -5014.91005141  -5014.63152205  -5037.29981903  -5036.87688490
 **********************************************************************************************************************************
 Molpro calculation terminated
 Variable memory released
