
 Primary working directories    : /global/cscratch1/sd/bkincaid
 Secondary working directories  : /global/cscratch1/sd/bkincaid
 Wavefunction directory         : /global/homes/b/bkincaid/wfu/
 Main file repository           : /global/cscratch1/sd/bkincaid/

 SHA1      : 19cd028119e0e09f93f0674bd8af7968d9b3eff6
 NAME      : 2015.1.36
 ARCHNAME  : linux/x86_64
 FC        : /opt/cray/pe/craype/2.5.14/bin/ftn
 BLASLIB   : -L/opt/intel/compilers_and_libraries_2018.1.163/linux/mkl/lib/intel64 -Wl,-_start-group -lmkl_intel_ilp64 -lmkl_intel_thread -lmkl_core -Wl,-_end-group -liomp5
 id        : lbl

 Nodes     nprocs
 nid00963    11
 Number of processes for MPI-2 version of Molpro:   nprocs(total)=   12   nprocs(compute)=   11   nprocs(helper)=    1

 Using customized tuning parameters: mindgm=7; mindgv=16; mindgc=1; mindgr=1; noblas=0; minvec=7
 default implementation of scratch files=sf  

 ***,Calculation for Pt atom, singlet and triplet
 memory,1024,m
 gthresh,twoint=1.e-15
 gthresh,oneint=1.e-15
 
 geometry={
 1
 Pt
 Pt  0.0 0.0 0.0
 }
 
 basis={
 Including file /global/u1/b/bkincaid/molpro/Pt/atoms/bk2.4/basis/ecp
 Including file /global/u1/b/bkincaid/molpro/Pt/atoms/bk2.4/basis/aug-cc-pwCVTZ.basis
 }
 
 Including file /global/u1/b/bkincaid/molpro/Pt/atoms/bk2.4/basis/states.proc
 
 do i=1,15
     if (i.eq.1) then
         Is1d9
     else if (i.eq.2) then
         EAs2d9
     else if (i.eq.3) then
         Is2d8
     else if (i.eq.4) then
         Idten
     else if (i.eq.5) then
         IId9
     else if (i.eq.6) then
         IIs1d8
     else if (i.eq.7) then
         IIId8
     else if (i.eq.8) then
         IVd7
     else if (i.eq.9) then
         Vd6
     else if (i.eq.10) then
         Vd5f1
     else if (i.eq.11) then
         VId5
     else if (i.eq.12) then
         Xf1
     else if (i.eq.13) then
         XIKr
     else if (i.eq.14) then
         XIVp3
     else if (i.eq.15) then
         XVIIs2
     endif
     scf(i)=energy
     _CC_NORM_MAX=2.0
    {rccsd(t),maxit=100;core}
     ccsd(i)=energy
 enddo
 
 table,scf,ccsd
 type,csv
 save

 Variables initialized (889), CPU time= 0.01 sec
 Commands  initialized (702), CPU time= 0.01 sec, 572 directives.
 Default parameters read. Elapsed time= 0.21 sec

 Checking input...
 Passed
1


                                         ***  PROGRAM SYSTEM MOLPRO  ***
                                       Copyright, TTI GmbH Stuttgart, 2015
                                    Version 2015.1 linked Dec 29 2018 15:55:43


 **********************************************************************************************************************************
 LABEL *   Calculation for Pt atom, singlet and triplet                                  
  64 bit mpp version                                                                     DATE: 13-Sep-21          TIME: 23:01:23  
 **********************************************************************************************************************************

 SHA1:             19cd028119e0e09f93f0674bd8af7968d9b3eff6
 **********************************************************************************************************************************

 THRESHOLDS:

 ZERO    =  1.00D-12  ONEINT  =  1.00D-12  TWOINT  =  1.00D-15  PREFAC  =  1.00D-14  LOCALI  =  1.00D-09  EORDER  =  1.00D-04
 ENERGY  =  0.00D+00  ETEST   =  0.00D+00  EDENS   =  0.00D+00  THRDEDEF=  1.00D-06  GRADIENT=  1.00D-02  STEP    =  1.00D-03
 ORBITAL =  1.00D-05  CIVEC   =  1.00D-05  COEFF   =  1.00D-04  PRINTCI =  5.00D-02  PUNCHCI =  9.90D+01  OPTGRAD =  3.00D-04
 OPTENERG=  1.00D-06  OPTSTEP =  3.00D-04  THRGRAD =  1.00D-10  COMPRESS=  1.00D-11  VARMIN  =  1.00D-07  VARMAX  =  1.00D-03
 THRDOUB =  0.00D+00  THRDIV  =  1.00D-05  THRRED  =  1.00D-07  THRPSP  =  1.00D+00  THRDC   =  1.00D-10  THRCS   =  1.00D-10
 THRNRM  =  1.00D-08  THREQ   =  0.00D+00  THRDE   =  1.00D+00  THRREF  =  1.00D-05  SPARFAC =  1.00D+00  THRDLP  =  1.00D-07
 THRDIA  =  1.00D-10  THRDLS  =  1.00D-07  THRGPS  =  0.00D+00  THRKEX  =  0.00D+00  THRDIS  =  2.00D-01  THRVAR  =  1.00D-10
 THRLOC  =  1.00D-06  THRGAP  =  1.00D-06  THRLOCT = -1.00D+00  THRGAPT = -1.00D+00  THRORB  =  1.00D-06  THRMLTP =  0.00D+00
 THRCPQCI=  1.00D-10  KEXTA   =  0.00D+00  THRCOARS=  0.00D+00  SYMTOL  =  1.00D-06  GRADTOL =  1.00D-06  THROVL  =  1.00D-08
 THRORTH =  1.00D-08  GRID    =  1.00D-06  GRIDMAX =  1.00D-03  DTMAX   =  0.00D+00  THROCCDE=  1.00D-01  THROCCDE=  1.00D-01



 THRESHOLDS:

 ZERO    =  1.00D-12  ONEINT  =  1.00D-15  TWOINT  =  1.00D-15  PREFAC  =  1.00D-14  LOCALI  =  1.00D-09  EORDER  =  1.00D-04
 ENERGY  =  0.00D+00  ETEST   =  0.00D+00  EDENS   =  0.00D+00  THRDEDEF=  1.00D-06  GRADIENT=  1.00D-02  STEP    =  1.00D-03
 ORBITAL =  1.00D-05  CIVEC   =  1.00D-05  COEFF   =  1.00D-04  PRINTCI =  5.00D-02  PUNCHCI =  9.90D+01  OPTGRAD =  3.00D-04
 OPTENERG=  1.00D-06  OPTSTEP =  3.00D-04  THRGRAD =  1.00D-10  COMPRESS=  1.00D-11  VARMIN  =  1.00D-07  VARMAX  =  1.00D-03
 THRDOUB =  0.00D+00  THRDIV  =  1.00D-05  THRRED  =  1.00D-07  THRPSP  =  1.00D+00  THRDC   =  1.00D-10  THRCS   =  1.00D-10
 THRNRM  =  1.00D-08  THREQ   =  0.00D+00  THRDE   =  1.00D+00  THRREF  =  1.00D-05  SPARFAC =  1.00D+00  THRDLP  =  1.00D-07
 THRDIA  =  1.00D-10  THRDLS  =  1.00D-07  THRGPS  =  0.00D+00  THRKEX  =  0.00D+00  THRDIS  =  2.00D-01  THRVAR  =  1.00D-10
 THRLOC  =  1.00D-06  THRGAP  =  1.00D-06  THRLOCT = -1.00D+00  THRGAPT = -1.00D+00  THRORB  =  1.00D-06  THRMLTP =  0.00D+00
 THRCPQCI=  1.00D-10  KEXTA   =  0.00D+00  THRCOARS=  0.00D+00  SYMTOL  =  1.00D-06  GRADTOL =  1.00D-06  THROVL  =  1.00D-08
 THRORTH =  1.00D-08  GRID    =  1.00D-06  GRIDMAX =  1.00D-03  DTMAX   =  0.00D+00  THROCCDE=  1.00D-01  THROCCDE=  1.00D-01



Geometry recognized as XYZ


 Variable memory set to 1024000000 words,  buffer space   230000 words

 SETTING BASIS          =    USERDEF

 DO I                   =         1.00000000   

 Running procedure=IS1D9


 Recomputing integrals since basis changed


 Using spherical harmonics



 PROGRAM * SEWARD (Integral evaluation for generally contracted gaussian basis sets)     Author: Roland Lindh, 1990

 Geometry written to block  1 of record 700

 Orientation using atomic masses  
 Molecule type: Atom
 Symmetry elements: X,Y,Z
 Rotational constants:       0.0000000      0.0000000      0.0000000 GHz  (calculated with average atomic masses)

 Point group  D2h 



 ATOMIC COORDINATES

 NR  ATOM    CHARGE       X              Y              Z

   1  PT     18.00    0.000000000    0.000000000    0.000000000

 NUCLEAR CHARGE:                   18
 NUMBER OF PRIMITIVE AOS:         434
 NUMBER OF SYMMETRY AOS:          347
 NUMBER OF CONTRACTIONS:          347   (  78Ag  +  60B3u +  60B2u +  24B1g +  60B1u +  24B2g +  24B3g +  17Au  )
 NUMBER OF CORE ORBITALS:           4   (   1Ag  +   1B3u +   1B2u +   0B1g +   1B1u +   0B2g +   0B3g +   0Au  )
 NUMBER OF VALENCE ORBITALS:        6   (   3Ag  +   0B3u +   0B2u +   1B1g +   0B1u +   1B2g +   1B3g +   0Au  )


 NUCLEAR REPULSION ENERGY    0.00000000

 EXTRA SYMMETRY OF AOS IN SYMMETRY 1:   1 1 1 1 1 1 1 1 1 1   1 1 1 1 1 1 1 1 1 1   1 1 1 1 1 1 1 1 1 1   1 1 1 2 3 2 3 2 3 2
                                        3 2 3 2 3 2 3 2 3 2   3 2 3 2 3 2 3 2 3 2   3 2 3 2 3 2 3 2 3 4   5 6 4 5 6 4 5 6
 EXTRA SYMMETRY OF AOS IN SYMMETRY 2:   1 1 1 1 1 1 1 1 1 1   1 1 1 1 1 1 1 1 1 1   1 1 1 1 1 1 2 3 2 3   2 3 2 3 2 3 2 3 2 3
                                        2 3 2 3 2 3 2 3 2 3   2 3 2 3 2 3 2 3 2 3
 EXTRA SYMMETRY OF AOS IN SYMMETRY 3:   1 1 1 1 1 1 1 1 1 1   1 1 1 1 1 1 1 1 1 1   1 1 1 1 1 1 2 3 2 3   2 3 2 3 2 3 2 3 2 3
                                        2 3 2 3 2 3 2 3 2 3   2 3 2 3 2 3 2 3 2 3
 EXTRA SYMMETRY OF AOS IN SYMMETRY 4:   1 1 1 1 1 1 1 1 1 1   1 1 1 1 1 1 1 1 2 3   2 3 2 3
 EXTRA SYMMETRY OF AOS IN SYMMETRY 5:   1 1 1 1 1 1 1 1 1 1   1 1 1 1 1 1 1 1 1 1   1 1 1 1 1 1 2 3 2 3   2 3 2 3 2 3 2 3 2 3
                                        2 3 2 3 2 3 2 3 2 3   2 3 2 3 2 3 2 3 2 3
 EXTRA SYMMETRY OF AOS IN SYMMETRY 6:   1 1 1 1 1 1 1 1 1 1   1 1 1 1 1 1 1 1 2 3   2 3 2 3
 EXTRA SYMMETRY OF AOS IN SYMMETRY 7:   1 1 1 1 1 1 1 1 1 1   1 1 1 1 1 1 1 1 2 3   2 3 2 3

 Eigenvalues of metric

         1 0.632E-05 0.391E-04 0.662E-04 0.117E-03 0.187E-03 0.332E-03 0.599E-03 0.825E-03
         2 0.139E-04 0.272E-03 0.963E-03 0.191E-02 0.191E-02 0.243E-02 0.243E-02 0.245E-02
         3 0.139E-04 0.272E-03 0.963E-03 0.191E-02 0.191E-02 0.243E-02 0.243E-02 0.245E-02
         4 0.825E-03 0.217E-02 0.713E-02 0.171E-01 0.337E-01 0.649E-01 0.119E+00 0.188E+00
         5 0.139E-04 0.272E-03 0.963E-03 0.191E-02 0.191E-02 0.243E-02 0.243E-02 0.245E-02
         6 0.825E-03 0.217E-02 0.713E-02 0.171E-01 0.337E-01 0.649E-01 0.119E+00 0.188E+00
         7 0.825E-03 0.217E-02 0.713E-02 0.171E-01 0.337E-01 0.649E-01 0.119E+00 0.188E+00
         8 0.191E-02 0.243E-02 0.658E-02 0.118E-01 0.266E-01 0.456E-01 0.920E-01 0.173E+00


 Contracted 2-electron integrals neglected if value below      1.0D-15
 AO integral compression algorithm  1   Integral accuracy      1.0D-15

     1918.894 MB (compressed) written to integral file ( 47.7%)

     Node minimum: 106.955 MB, node maximum: 291.766 MB


 NUMBER OF SORTED TWO-ELECTRON INTEGRALS:   21372670.     BUFFER LENGTH:  32768
 NUMBER OF SEGMENTS:   1  SEGMENT LENGTH:   21372670      RECORD LENGTH: 524288

 Memory used in sort:      21.93 MW

 SORT1 READ   502828645. AND WROTE    14003921. INTEGRALS IN     41 RECORDS. CPU TIME:    10.52 SEC, REAL TIME:    11.09 SEC
 SORT2 READ   153399602. AND WROTE   235142862. INTEGRALS IN   6688 RECORDS. CPU TIME:     0.52 SEC, REAL TIME:     1.00 SEC

 Node minimum:    21275732.  Node maximum:    21480371. integrals

 OPERATOR DM      FOR CENTER  0  COORDINATES:    0.000000    0.000000    0.000000


 **********************************************************************************************************************************
 DATASETS  * FILE   NREC   LENGTH (MB)   RECORD NAMES
              1      19       20.77       500      610      700      900      950      970     1000      129      960     1100   
                                          VAR    BASINP    GEOM    SYMINP    ZMAT    AOBASIS   BASIS     P2S    ABASIS      S 
                                         1400     1410     1420     1200     1210     1080     1600     1650     1700   
                                           T        V       ECP      H0       H01     AOSYM     SMH    MOLCAS    OPER   

 PROGRAMS   *        TOTAL       INT
 CPU TIMES  *        75.00     74.69
 REAL TIME  *       137.59 SEC
 DISK USED  *         3.76 GB      
 GA USED    *         0.00 MB       (max)       0.00 MB       (current)
 **********************************************************************************************************************************


 PROGRAM * RHF-SCF (OPEN SHELL)       Authors: W. Meyer, H.-J. Werner


 NUMBER OF ELECTRONS:      10+    8-    SPACE SYMMETRY=1    SPIN SYMMETRY: Triplet 
 CONVERGENCE THRESHOLDS:    1.00E-05 (Density)    1.00E-07 (Energy)
 MAX. NUMBER OF ITERATIONS:       60
 INTERPOLATION TYPE:            DIIS
 INTERPOLATION STEPS:              2 (START)      1 (STEP)
 LEVEL SHIFTS:                 -0.60 (CLOSED) -0.30 (OPEN) 

 Number of closed-shell orbitals:    8 (   2   1   1   1   1   1   1   0 )
 Number of open-shell orbitals:      2 (   2   0   0   0   0   0   0   0 )


 
 Extra symmetries of mos in symmetry 1:   1   3   2   1
 Orbital guess generated from atomic densities. Full valence occupancy:    4   1   1   1   1   1   1   0


 Molecular orbital dump at record        4202.2

 ITERATION    DDIFF          GRAD             ENERGY        2-EL.EN.            DIPOLE MOMENTS         DIIS   ORB.
    1      0.000D+00      0.000D+00      -119.04255427    187.282198    0.00000    0.00000    0.00000    0    start
    2      0.000D+00      0.143D-01      -119.10620425    181.296644    0.00000    0.00000    0.00000    1    diag,B
    3      0.436D-02      0.438D-02      -119.11028505    182.120975    0.00000    0.00000    0.00000    2    diag,B
    4      0.989D-03      0.564D-03      -119.11060247    181.997419    0.00000    0.00000    0.00000    3    diag,B
    5      0.299D-03      0.187D-03      -119.11067467    181.942430    0.00000    0.00000    0.00000    4    diag,B
    6      0.184D-03      0.578D-04      -119.11068537    181.921282    0.00000    0.00000    0.00000    5    diag,B
    7      0.133D-03      0.175D-04      -119.11068650    181.918606    0.00000    0.00000    0.00000    6    fixocc
    8      0.394D-04      0.677D-05      -119.11068674    181.917298    0.00000    0.00000    0.00000    7    diag,B
    9      0.160D-04      0.303D-05      -119.11068681    181.917268    0.00000    0.00000    0.00000    8    diag,B
   10      0.547D-05      0.259D-05      -119.11068691    181.917223    0.00000    0.00000    0.00000    0    orth

 Final alpha occupancy:   4   1   1   1   1   1   1   0
 Final beta  occupancy:   2   1   1   1   1   1   1   0

 !RHF STATE 1.1 Energy               -119.110686910979
 Nuclear energy                         0.00000000
 One-electron energy                 -210.06929859
 Two-electron energy                   90.95861168
 Virial quotient                       -2.91305947
 !RHF STATE 1.1 Dipole moment           0.00000000     0.00000000     0.00000000
 Dipole moment /Debye                   0.00000000     0.00000000     0.00000000

 ELECTRON ORBITALS
 =================


   Orb  Occ    Energy  Couls-En    Coefficients

                                   1 1s      1 1s      1 1s      1 1s      1 1s      1 1s      1 1s      1 1s      1 1s      1 1s   
                                   1 1s      1 1s      1 1s      1 1s      1 1s      1 1s      1 1s      1 1s      1 1s      1 1s   
                                   1 1s      1 1s      1 1s      1 1s      1 1s      1 1s      1 1s      1 1s      1 1s      1 1s   
                                   1 1s      1 1s      1 1s      1 3d0     1 3d2+    1 3d0     1 3d2+    1 3d0     1 3d2+    1 3d0  
                                   1 3d2+    1 3d0     1 3d2+    1 3d0     1 3d2+    1 3d0     1 3d2+    1 3d0     1 3d2+    1 3d0  
                                   1 3d2+    1 3d0     1 3d2+    1 3d0     1 3d2+    1 3d0     1 3d2+    1 3d0     1 3d2+    1 3d0  
                                   1 3d2+    1 3d0     1 3d2+    1 3d0     1 3d2+    1 3d0     1 3d2+    1 3d0     1 3d2+    1 5g0  
                                   1 5g4+    1 5g2+    1 5g0     1 5g4+    1 5g2+    1 5g0     1 5g4+    1 5g2+ 

   1.1   2    -4.4019  -20.3661 -0.000000  0.000000 -0.000000  0.000000 -0.000000  0.000001 -0.000002  0.000005 -0.000010  0.000020
                                -0.000042  0.000092 -0.000214  0.000526 -0.001353  0.003555 -0.009200  0.022410 -0.049449  0.098574
                                -0.182572  0.266797  0.036021 -0.858046  0.181328  0.798269  0.457119  0.022217  0.012025 -0.013313
                                 0.004246 -0.001587  0.000453 -0.000000 -0.000000  0.000000  0.000000 -0.000000 -0.000000  0.000000
                                 0.000000 -0.000001 -0.000000  0.000002  0.000000 -0.000004 -0.000000  0.000010  0.000001 -0.000023
                                -0.000002  0.000103  0.000012 -0.000505 -0.000071  0.000748  0.000093  0.001852  0.000273 -0.000685
                                 0.000031 -0.001199  0.000068 -0.001399  0.000018 -0.000369  0.000013  0.000009 -0.000001 -0.000039
                                 0.000000  0.000002 -0.000763 -0.000001  0.000033 -0.000452 -0.000000  0.000018

   2.1   2    -0.3940  -10.3151  0.000000 -0.000000  0.000000 -0.000000  0.000000 -0.000000  0.000000 -0.000000  0.000000 -0.000000
                                 0.000000 -0.000000  0.000000 -0.000000  0.000000 -0.000000  0.000001 -0.000001  0.000002 -0.000004
                                 0.000004 -0.000003  0.000009 -0.000023 -0.000000 -0.000163  0.000587  0.000876 -0.000593 -0.000984
                                -0.001854 -0.000149 -0.000001 -0.000000 -0.000000  0.000000  0.000000 -0.000000 -0.000001  0.000000
                                 0.000002 -0.000000 -0.000008  0.000001  0.000022 -0.000001 -0.000042  0.000002  0.000064  0.000001
                                 0.000032  0.000353  0.010642 -0.002646 -0.079792  0.003120  0.094086  0.010155  0.306146  0.005338
                                 0.161095  0.010892  0.328590  0.008833  0.266888  0.003491  0.105525 -0.000053 -0.001605  0.000037
                                 0.000075  0.000996  0.000099  0.000169  0.001813  0.000096  0.000223  0.002806

   3.1   +    -0.4756  -10.4630  0.000000 -0.000000  0.000000 -0.000000  0.000000 -0.000000  0.000000 -0.000000  0.000000 -0.000001
                                 0.000001 -0.000003  0.000008 -0.000019  0.000048 -0.000127  0.000327 -0.000796  0.001752 -0.003479
                                 0.006458 -0.009761  0.000166  0.031198 -0.009202 -0.046476 -0.020861  0.044816  0.008155  0.035779
                                 0.004474  0.000436 -0.000140 -0.000000  0.000000  0.000000 -0.000000 -0.000001  0.000000  0.000003
                                -0.000000 -0.000008  0.000000  0.000022 -0.000001 -0.000044  0.000001  0.000069 -0.000002  0.000013
                                -0.000000  0.010759 -0.000356 -0.080194  0.002655  0.093277 -0.003092  0.309805 -0.010260  0.163313
                                -0.005388  0.335816 -0.011056  0.259689 -0.008529  0.087020 -0.002882 -0.003985  0.000128  0.002371
                                -0.000005  0.000053  0.005837 -0.000012  0.000117  0.006433 -0.000014  0.000131

   4.1   +    -0.2900   -6.6560  0.000000 -0.000000  0.000000 -0.000000  0.000000 -0.000000  0.000001 -0.000001  0.000003 -0.000006
                                 0.000014 -0.000030  0.000069 -0.000170  0.000438 -0.001152  0.002985 -0.007283  0.016115 -0.032297
                                 0.060596 -0.091606 -0.003669  0.301513 -0.083925 -0.370854 -0.308688  0.157115  0.193715  0.474908
                                 0.364200  0.022263  0.000235  0.000000 -0.000000 -0.000000  0.000000  0.000000 -0.000000 -0.000000
                                 0.000000  0.000001 -0.000000 -0.000002  0.000000  0.000004 -0.000000 -0.000007  0.000000  0.000001
                                -0.000000 -0.000899  0.000041  0.006724 -0.000300 -0.008035  0.000338 -0.027301  0.001052 -0.011960
                                 0.000733 -0.024055  0.001474 -0.010740  0.001790 -0.002075  0.000778  0.000365 -0.000025 -0.000640
                                 0.000000  0.000016  0.000441  0.000002 -0.000045  0.003110  0.000006 -0.000155

   5.1   0     0.0151   -1.5192  0.000000 -0.000000  0.000000 -0.000000  0.000000 -0.000000  0.000000 -0.000000  0.000001 -0.000001
                                 0.000002 -0.000005  0.000012 -0.000030  0.000077 -0.000196  0.000482 -0.001066  0.001950 -0.002587
                                 0.001642 -0.000005  0.016610 -0.061271  0.055816 -0.028884  0.141639 -0.486536  1.747567 -2.277316
                                 1.740666 -2.888024  2.711755 -0.000000 -0.000000  0.000000  0.000000 -0.000000 -0.000000  0.000000
                                 0.000000 -0.000000 -0.000000  0.000001  0.000000 -0.000002 -0.000000  0.000005  0.000000 -0.000009
                                -0.000001  0.000078  0.000003 -0.000484 -0.000015  0.000634  0.000022  0.001516  0.000028  0.001392
                                 0.000062  0.000588 -0.000041  0.000816 -0.000002 -0.001303 -0.000126  0.005084  0.000390  0.000070
                                 0.000000 -0.000002 -0.000100 -0.000000  0.000006 -0.000377 -0.000000  0.000018

   6.1   0     0.0745   -2.0308 -0.000000  0.000000 -0.000000  0.000000 -0.000000  0.000000 -0.000001  0.000002 -0.000004  0.000008
                                -0.000016  0.000036 -0.000083  0.000204 -0.000521  0.001353 -0.003425  0.008024 -0.016513  0.029077
                                -0.044801  0.060268 -0.048372 -0.011844 -0.114817  0.335656 -0.224042  1.444394 -5.769876  7.107125
                                -6.673795  7.139053 -3.132846 -0.000000 -0.000000  0.000000  0.000000 -0.000000 -0.000000  0.000000
                                 0.000000 -0.000001 -0.000000  0.000004  0.000000 -0.000011 -0.000001  0.000026  0.000002 -0.000052
                                -0.000004  0.000216  0.000009 -0.001048 -0.000031  0.001496  0.000056  0.001891 -0.000036  0.004399
                                 0.000228 -0.001192 -0.000257  0.002903  0.000064 -0.006791 -0.000560  0.027868  0.002005  0.000163
                                 0.000000 -0.000005 -0.000269 -0.000000  0.000014 -0.000901 -0.000001  0.000042

                                   1 2px     1 2px     1 2px     1 2px     1 2px     1 2px     1 2px     1 2px     1 2px     1 2px  
                                   1 2px     1 2px     1 2px     1 2px     1 2px     1 2px     1 2px     1 2px     1 2px     1 2px  
                                   1 2px     1 2px     1 2px     1 2px     1 2px     1 2px     1 4f1+    1 4f3+    1 4f1+    1 4f3+ 
                                   1 4f1+    1 4f3+    1 4f1+    1 4f3+    1 4f1+    1 4f3+    1 4f1+    1 4f3+    1 4f1+    1 4f3+ 
                                   1 4f1+    1 4f3+    1 4f1+    1 4f3+    1 4f1+    1 4f3+    1 4f1+    1 4f3+    1 4f1+    1 4f3+ 
                                   1 4f1+    1 4f3+    1 4f1+    1 4f3+    1 4f1+    1 4f3+    1 4f1+    1 4f3+    1 4f1+    1 4f3+ 


   1.2   2    -2.5526  -16.2579  0.000000 -0.000000  0.000000 -0.000000  0.000000 -0.000000  0.000000 -0.000002  0.000005 -0.000016
                                 0.000049 -0.000164  0.000743 -0.003039  0.006444 -0.006815 -0.002141  0.085526 -0.300616  0.003222
                                 0.523049  0.499744  0.147132 -0.000196  0.003466 -0.001037 -0.000000 -0.000000  0.000001  0.000000
                                -0.000004 -0.000000  0.000005  0.000000 -0.000008 -0.000000  0.000019  0.000001 -0.000031 -0.000002
                                 0.000131  0.000005 -0.000279 -0.000013  0.000978  0.000032  0.003412  0.000123  0.001859  0.000012
                                 0.002215  0.000016 -0.000164 -0.000029  0.000392  0.000003 -0.000172 -0.000006  0.000086  0.000003

   2.2   0     0.0287   -2.7202 -0.000000  0.000000 -0.000000  0.000000 -0.000000  0.000000 -0.000000  0.000002 -0.000005  0.000017
                                -0.000051  0.000166 -0.000688  0.002530 -0.004872  0.004879 -0.003649 -0.002872  0.021641  0.009602
                                -0.075097 -0.028840 -0.052433  0.217060 -0.124443  1.019040  0.000000  0.000000 -0.000000 -0.000000
                                 0.000001  0.000000 -0.000001 -0.000000  0.000001  0.000000 -0.000002 -0.000000  0.000005  0.000001
                                -0.000013 -0.000002  0.000029  0.000004 -0.000084 -0.000009  0.000017 -0.000007 -0.000218 -0.000014
                                 0.000947  0.000114 -0.000424 -0.000002  0.003231  0.000357 -0.003563 -0.000325  0.007323  0.000724

   3.2   0     0.1043   -3.4266  0.000000 -0.000000  0.000000 -0.000000  0.000000 -0.000000  0.000001 -0.000005  0.000016 -0.000050
                                 0.000152 -0.000486  0.001987 -0.007128  0.013374 -0.013099  0.012944 -0.031476  0.079730 -0.045900
                                -0.034229 -0.214590  0.171339 -0.213157  1.666297 -1.233290  0.000000  0.000000 -0.000000 -0.000000
                                 0.000000  0.000000 -0.000000 -0.000000  0.000001  0.000000 -0.000001 -0.000000  0.000003  0.000001
                                -0.000009 -0.000002  0.000025  0.000004 -0.000095 -0.000012 -0.000137 -0.000027  0.000009  0.000006
                                 0.001115  0.000173  0.000605  0.000089  0.003874  0.000519  0.001195  0.000004  0.003950  0.000585

                                   1 2py     1 2py     1 2py     1 2py     1 2py     1 2py     1 2py     1 2py     1 2py     1 2py  
                                   1 2py     1 2py     1 2py     1 2py     1 2py     1 2py     1 2py     1 2py     1 2py     1 2py  
                                   1 2py     1 2py     1 2py     1 2py     1 2py     1 2py     1 4f1-    1 4f3-    1 4f1-    1 4f3- 
                                   1 4f1-    1 4f3-    1 4f1-    1 4f3-    1 4f1-    1 4f3-    1 4f1-    1 4f3-    1 4f1-    1 4f3- 
                                   1 4f1-    1 4f3-    1 4f1-    1 4f3-    1 4f1-    1 4f3-    1 4f1-    1 4f3-    1 4f1-    1 4f3- 
                                   1 4f1-    1 4f3-    1 4f1-    1 4f3-    1 4f1-    1 4f3-    1 4f1-    1 4f3-    1 4f1-    1 4f3- 


   1.3   2    -2.5520  -16.2566  0.000000 -0.000000  0.000000 -0.000000  0.000000 -0.000000  0.000000 -0.000002  0.000005 -0.000016
                                 0.000049 -0.000164  0.000742 -0.003036  0.006440 -0.006810 -0.002144  0.085517 -0.300592  0.003294
                                 0.522866  0.499590  0.147418 -0.000084  0.003468 -0.001036 -0.000000 -0.000000  0.000001  0.000000
                                -0.000004 -0.000000  0.000005  0.000000 -0.000008 -0.000000  0.000018  0.000001 -0.000031 -0.000002
                                 0.000130  0.000005 -0.000277 -0.000013  0.000955  0.000034  0.003340  0.000128  0.001736  0.000017
                                 0.002076  0.000022 -0.000193 -0.000028  0.000368  0.000004 -0.000168 -0.000006  0.000083  0.000003

   2.3   0     0.0290   -2.7086 -0.000000  0.000000 -0.000000  0.000000 -0.000000  0.000000 -0.000000  0.000002 -0.000006  0.000017
                                -0.000052  0.000167 -0.000694  0.002550 -0.004908  0.004914 -0.003687 -0.002742  0.021265  0.009737
                                -0.074701 -0.027838 -0.053041  0.216404 -0.130208  1.023886  0.000000  0.000000 -0.000000 -0.000000
                                 0.000001  0.000000 -0.000001 -0.000000  0.000001  0.000000 -0.000003 -0.000000  0.000006  0.000001
                                -0.000014 -0.000002  0.000032  0.000004 -0.000091 -0.000009  0.000005 -0.000006 -0.000221 -0.000015
                                 0.001034  0.000112 -0.000405 -0.000005  0.003469  0.000353 -0.003775 -0.000327  0.007790  0.000723

   3.3   0     0.1049   -3.4304  0.000000 -0.000000  0.000000 -0.000000  0.000000 -0.000000  0.000001 -0.000005  0.000016 -0.000050
                                 0.000153 -0.000488  0.001995 -0.007158  0.013430 -0.013155  0.012992 -0.031526  0.079774 -0.046072
                                -0.033829 -0.214696  0.171745 -0.216462  1.669827 -1.230278  0.000000  0.000000 -0.000000 -0.000000
                                 0.000000  0.000000 -0.000001 -0.000000  0.000001  0.000000 -0.000002 -0.000000  0.000004  0.000001
                                -0.000011 -0.000002  0.000030  0.000004 -0.000107 -0.000012 -0.000162 -0.000026  0.000011  0.000005
                                 0.001306  0.000172  0.000638  0.000083  0.004381  0.000520  0.000916 -0.000009  0.004732  0.000601

                                   1 3d2-    1 3d2-    1 3d2-    1 3d2-    1 3d2-    1 3d2-    1 3d2-    1 3d2-    1 3d2-    1 3d2- 
                                   1 3d2-    1 3d2-    1 3d2-    1 3d2-    1 3d2-    1 3d2-    1 3d2-    1 3d2-    1 5g2-    1 5g4- 
                                   1 5g2-    1 5g4-    1 5g2-    1 5g4- 

   1.4   2    -0.3940  -10.3153 -0.000000  0.000000 -0.000001  0.000002 -0.000008  0.000022 -0.000042  0.000064  0.000032  0.010648
                                -0.079837  0.094139  0.306319  0.161186  0.328776  0.267031  0.105572 -0.001608  0.000995  0.000075
                                 0.001810  0.000169  0.002801  0.000223

   2.4   0     0.1122   -2.3717 -0.000000  0.000001 -0.000005  0.000021 -0.000071  0.000209 -0.000551  0.001286 -0.002727  0.004401
                                -0.002820  0.015101 -0.130680  0.166918 -0.234854  0.180815 -0.411394  1.214108 -0.000028 -0.000009
                                -0.000124 -0.000042  0.000014  0.000008

   3.4   0     0.3889   -3.5200  0.000000 -0.000003  0.000017 -0.000071  0.000242 -0.000715  0.001871 -0.004344  0.009087 -0.022240
                                 0.066457 -0.120380  0.226400 -0.701581  0.592821 -0.900763  1.825075 -0.840930 -0.000059 -0.000025
                                -0.000487 -0.000157  0.000452  0.000132

                                   1 2pz     1 2pz     1 2pz     1 2pz     1 2pz     1 2pz     1 2pz     1 2pz     1 2pz     1 2pz  
                                   1 2pz     1 2pz     1 2pz     1 2pz     1 2pz     1 2pz     1 2pz     1 2pz     1 2pz     1 2pz  
                                   1 2pz     1 2pz     1 2pz     1 2pz     1 2pz     1 2pz     1 4f0     1 4f2+    1 4f0     1 4f2+ 
                                   1 4f0     1 4f2+    1 4f0     1 4f2+    1 4f0     1 4f2+    1 4f0     1 4f2+    1 4f0     1 4f2+ 
                                   1 4f0     1 4f2+    1 4f0     1 4f2+    1 4f0     1 4f2+    1 4f0     1 4f2+    1 4f0     1 4f2+ 
                                   1 4f0     1 4f2+    1 4f0     1 4f2+    1 4f0     1 4f2+    1 4f0     1 4f2+    1 4f0     1 4f2+ 


   1.5   2    -2.5584  -16.2719  0.000000 -0.000000  0.000000 -0.000000  0.000000 -0.000000  0.000000 -0.000002  0.000005 -0.000016
                                 0.000049 -0.000166  0.000750 -0.003068  0.006498 -0.006866 -0.002117  0.085624 -0.300870  0.002329
                                 0.525261  0.501371  0.143950 -0.001367  0.003441 -0.001047 -0.000000 -0.000000  0.000000  0.000000
                                -0.000001 -0.000000  0.000001  0.000000 -0.000001 -0.000000  0.000003  0.000001 -0.000012 -0.000002
                                 0.000012  0.000008 -0.000084 -0.000017 -0.000083  0.000059 -0.000165  0.000211 -0.001895  0.000114
                                -0.002065  0.000133 -0.000684 -0.000012 -0.000339  0.000023  0.000020 -0.000011 -0.000016  0.000005

   2.5   0     0.0255   -2.8620 -0.000000  0.000000 -0.000000  0.000000 -0.000000  0.000000 -0.000000  0.000002 -0.000005  0.000015
                                -0.000046  0.000150 -0.000626  0.002307 -0.004460  0.004480 -0.003206 -0.004438  0.026189  0.008080
                                -0.080176 -0.041109 -0.044531  0.226506 -0.059279  0.961627  0.000000  0.000000 -0.000000 -0.000000
                                 0.000001  0.000000 -0.000002 -0.000000  0.000003  0.000000 -0.000006 -0.000000  0.000014  0.000000
                                -0.000036 -0.000001  0.000088  0.000002 -0.000203 -0.000006 -0.000377  0.000001  0.000062 -0.000015
                                 0.002383  0.000069  0.000961 -0.000018  0.006225  0.000247 -0.004273 -0.000229  0.010895  0.000514

   3.5   0     0.0977   -3.3796  0.000000 -0.000000  0.000000 -0.000000  0.000000 -0.000000  0.000001 -0.000005  0.000016 -0.000048
                                 0.000145 -0.000464  0.001896 -0.006799  0.012747 -0.012479  0.012408 -0.030951  0.079331 -0.043962
                                -0.038950 -0.213936  0.168237 -0.175334  1.622023 -1.266695  0.000000  0.000000 -0.000000 -0.000000
                                 0.000001  0.000000 -0.000002 -0.000000  0.000002  0.000000 -0.000006 -0.000000  0.000013  0.000000
                                -0.000036 -0.000000  0.000101  0.000001 -0.000246 -0.000005 -0.000813 -0.000013  0.000602  0.000005
                                 0.003654  0.000061  0.002812  0.000076  0.008798  0.000238  0.000974  0.000203  0.008060  0.000120

                                   1 3d1+    1 3d1+    1 3d1+    1 3d1+    1 3d1+    1 3d1+    1 3d1+    1 3d1+    1 3d1+    1 3d1+ 
                                   1 3d1+    1 3d1+    1 3d1+    1 3d1+    1 3d1+    1 3d1+    1 3d1+    1 3d1+    1 5g1+    1 5g3+ 
                                   1 5g1+    1 5g3+    1 5g1+    1 5g3+ 

   1.6   2    -0.4212  -10.3868 -0.000000  0.000000 -0.000001  0.000002 -0.000008  0.000022 -0.000042  0.000063  0.000032  0.010733
                                -0.080423  0.094560  0.309477  0.162274  0.332330  0.262984  0.097147 -0.002751  0.001026  0.000062
                                 0.002214  0.000128  0.002706  0.000182

   2.6   0     0.1109   -2.3743 -0.000000  0.000001 -0.000005  0.000020 -0.000070  0.000207 -0.000544  0.001270 -0.002692  0.004369
                                -0.002959  0.015131 -0.128464  0.165202 -0.231374  0.179850 -0.403004  1.210348 -0.000128 -0.000004
                                -0.000526 -0.000020  0.000102  0.000007

   3.6   0     0.3841   -3.5084  0.000000 -0.000003  0.000017 -0.000070  0.000239 -0.000706  0.001847 -0.004288  0.008969 -0.021937
                                 0.065490 -0.118676  0.223683 -0.692430  0.585039 -0.885574  1.821105 -0.844628 -0.000361 -0.000009
                                -0.001961 -0.000076  0.001583  0.000074

                                   1 3d1-    1 3d1-    1 3d1-    1 3d1-    1 3d1-    1 3d1-    1 3d1-    1 3d1-    1 3d1-    1 3d1- 
                                   1 3d1-    1 3d1-    1 3d1-    1 3d1-    1 3d1-    1 3d1-    1 3d1-    1 3d1-    1 5g1-    1 5g3- 
                                   1 5g1-    1 5g3-    1 5g1-    1 5g3- 

   1.7   2    -0.4191  -10.3815 -0.000000  0.000000 -0.000001  0.000002 -0.000008  0.000022 -0.000042  0.000063  0.000032  0.010727
                                -0.080381  0.094531  0.309247  0.162195  0.332062  0.263294  0.097763 -0.002676  0.001059  0.000063
                                 0.002299  0.000129  0.002807  0.000183

   2.7   0     0.1110   -2.3740 -0.000000  0.000001 -0.000005  0.000020 -0.000070  0.000207 -0.000544  0.001271 -0.002695  0.004373
                                -0.002953  0.015135 -0.128634  0.165360 -0.231651  0.179963 -0.403713  1.210670 -0.000135 -0.000004
                                -0.000556 -0.000020  0.000106  0.000006

   3.7   0     0.3845   -3.5092  0.000000 -0.000003  0.000017 -0.000070  0.000239 -0.000706  0.001849 -0.004292  0.008979 -0.021962
                                 0.065565 -0.118811  0.223931 -0.693190  0.585718 -0.886788  1.821431 -0.844308 -0.000381 -0.000009
                                -0.002072 -0.000075  0.001669  0.000073

                                   1 4f2-    1 4f2-    1 4f2-    1 4f2-    1 4f2-    1 4f2-    1 4f2-    1 4f2-    1 4f2-    1 4f2- 
                                   1 4f2-    1 4f2-    1 4f2-    1 4f2-    1 4f2-    1 4f2-    1 4f2- 

   1.8   0     0.1571   -1.9534  0.000003 -0.000049  0.000163 -0.000224  0.000330 -0.000746  0.001679 -0.003492  0.007006 -0.014759
                                 0.056505 -0.119586  0.272799 -0.483162  0.800400 -2.123161  2.506705

   2.8   0     0.3777   -2.4303 -0.000006  0.000091 -0.000300  0.000412 -0.000605  0.001372 -0.003063  0.006523 -0.012937  0.027729
                                -0.097486  0.229000 -0.493161  0.946034 -1.521101  4.007205 -2.600375

 HOMO      4.1    -0.289978 =      -7.8907eV
 LUMO      5.1     0.015146 =       0.4121eV
 LUMO-HOMO         0.305124 =       8.3028eV


 **********************************************************************************************************************************
 DATASETS  * FILE   NREC   LENGTH (MB)   RECORD NAMES
              1      19       20.81       500      610      700      900      950      970     1000      129      960     1100   
                                          VAR    BASINP    GEOM    SYMINP    ZMAT    AOBASIS   BASIS     P2S    ABASIS      S 
                                         1400     1410     1420     1200     1210     1080     1600     1650     1700   
                                           T        V       ECP      H0       H01     AOSYM     SMH    MOLCAS    OPER   

              2       5        5.93       200      700     1000      520     4202   
                                        OPTIONS   GEOM     BASIS   MCVARS     RHF  

 PROGRAMS   *        TOTAL       RHF       INT
 CPU TIMES  *        76.32      1.32     74.69
 REAL TIME  *       139.31 SEC
 DISK USED  *         4.08 GB      
 SF USED    *         0.08 MB      
 GA USED    *         0.00 MB       (max)       0.00 MB       (current)
 **********************************************************************************************************************************


 PROGRAM * POP (Mulliken population analysis)

 
 Density matrix read from record         4202.2  Type=RHF/CHARGE (state 1.1)
 
 Population analysis by basis function type

 Unique atom        s        p        d        f        g    Total    Charge
   1  PT      3.00024  5.99976  8.99941  0.00024  0.00035 18.00000  + 0.00000


 **********************************************************************************************************************************
 DATASETS  * FILE   NREC   LENGTH (MB)   RECORD NAMES
              1      19       20.81       500      610      700      900      950      970     1000      129      960     1100   
                                          VAR    BASINP    GEOM    SYMINP    ZMAT    AOBASIS   BASIS     P2S    ABASIS      S 
                                         1400     1410     1420     1200     1210     1080     1600     1650     1700   
                                           T        V       ECP      H0       H01     AOSYM     SMH    MOLCAS    OPER   

              2       5        5.93       200      700     1000      520     4202   
                                        OPTIONS   GEOM     BASIS   MCVARS     RHF  

 PROGRAMS   *        TOTAL       POP       RHF       INT
 CPU TIMES  *        76.32      0.00      1.32     74.69
 REAL TIME  *       139.32 SEC
 DISK USED  *         4.08 GB      
 SF USED    *         0.08 MB      
 GA USED    *         0.00 MB       (max)       0.00 MB       (current)
 **********************************************************************************************************************************


 PROGRAM * MULTI (Direct Multiconfiguration SCF)       Authors: P.J. Knowles, H.-J. Werner (1984)     S.T. Elbert (1988)


 Number of closed-shell orbitals:   4 (   1   1   1   0   1   0   0   0 )
 Number of active  orbitals:        6 (   3   0   0   1   0   1   1   0 )
 Number of external orbitals:     337 (  74  59  59  23  59  23  23  17 )

 State symmetry 1

 Orbital occupancy restrictions for symmetry 1
  1      1       002000                          

 Number of electrons:    10    Spin symmetry=Triplet   Space symmetry=1
 Number of states:        2
 Number of CSFs:          2

 State symmetry 2

 Orbital occupancy restrictions for symmetry 4
  1      1       002000                          

 Number of electrons:    10    Spin symmetry=Triplet   Space symmetry=4
 Number of states:        1
 Number of CSFs:          1

 State symmetry 3

 Orbital occupancy restrictions for symmetry 6
  1      1       002000                          

 Number of electrons:    10    Spin symmetry=Triplet   Space symmetry=6
 Number of states:        1
 Number of CSFs:          1

 State symmetry 4

 Orbital occupancy restrictions for symmetry 7
  1      1       002000                          

 Number of electrons:    10    Spin symmetry=Triplet   Space symmetry=7
 Number of states:        1
 Number of CSFs:          1
 
 Maximum number of shells:             3
 Maximum number of spin couplings:     9

 Storage for configuration lists      85, coupling coefficients    698, address lists    340

 Molecular orbitals read from record     4202.2  Type=RHF/CANONICAL (state 1.1)
 *** IN SYMMETRY 1 ORBITAL  1 SYMMETRY CONTAMINATION OF 0.291D-02 HAS BEEN REMOVED
 *** IN SYMMETRY 1 ORBITAL  2 SYMMETRY CONTAMINATION OF 0.400D-01 HAS BEEN REMOVED
 *** IN SYMMETRY 1 ORBITAL  3 SYMMETRY CONTAMINATION OF 0.174D+00 HAS BEEN REMOVED
 *** IN SYMMETRY 1 ORBITAL  4 SYMMETRY CONTAMINATION OF 0.397D-01 HAS BEEN REMOVED

 EXTRA SYMMETRY OF MOS IN SYMMETRY 1:   1 3 2 1 1 1 2 3 1 2   3 1 2 3 1 4 6 5 2 3   1 4 6 5 2 3 4 6 5 1   2 3 1 2 3 2 3 1 2 3
                                        1 2 3 1 2 3 1 1 2 3   1 1 2 3 1 2 3 1 1 2   3 1 2 3 1 1 2 3 1 1   1 1 1 1 1 1 1 1
 *** IN SYMMETRY 2 ORBITAL  1 SYMMETRY CONTAMINATION OF 0.628D-02 HAS BEEN REMOVED
 EXTRA SYMMETRY OF MOS IN SYMMETRY 2:   1 1 1 2 3 2 3 1 2 3   2 3 1 2 3 2 3 1 2 3   1 2 3 2 3 1 2 3 1 2   3 1 2 3 1 1 2 3 1 2
                                        3 1 2 3 1 1 2 3 1 2   3 1 1 1 1 1 1 1 1 1
 *** IN SYMMETRY 3 ORBITAL  1 SYMMETRY CONTAMINATION OF 0.606D-02 HAS BEEN REMOVED
 EXTRA SYMMETRY OF MOS IN SYMMETRY 3:   1 1 1 2 3 2 3 1 2 3   2 3 1 2 3 2 3 1 2 3   1 2 3 2 3 1 2 3 1 2   3 1 2 3 1 1 2 3 1 2
                                        3 1 2 3 1 1 2 3 1 2   3 1 1 1 1 1 1 1 1 1
 *** IN SYMMETRY 4 ORBITAL  1 SYMMETRY CONTAMINATION OF 0.446D-02 HAS BEEN REMOVED
 EXTRA SYMMETRY OF MOS IN SYMMETRY 4:   1 1 1 1 2 3 1 2 3 1   2 3 1 1 1 1 1 1 1 1   1 1 1 1
 *** IN SYMMETRY 5 ORBITAL  1 SYMMETRY CONTAMINATION OF 0.376D-02 HAS BEEN REMOVED
 EXTRA SYMMETRY OF MOS IN SYMMETRY 5:   1 1 1 2 3 2 3 3 2 3   2 3 1 2 3 2 3 1 2 3   1 2 3 2 3 1 2 3 1 2   3 1 2 3 1 1 2 3 1 2
                                        3 1 2 3 1 1 2 3 1 2   1 1 1 1 1 1 1 1 1 1
 *** IN SYMMETRY 6 ORBITAL  1 SYMMETRY CONTAMINATION OF 0.465D-02 HAS BEEN REMOVED
 EXTRA SYMMETRY OF MOS IN SYMMETRY 6:   1 1 1 1 2 3 1 2 3 1   2 3 1 1 1 1 1 1 1 1   1 1 1 1
 *** IN SYMMETRY 7 ORBITAL  1 SYMMETRY CONTAMINATION OF 0.481D-02 HAS BEEN REMOVED
 EXTRA SYMMETRY OF MOS IN SYMMETRY 7:   1 1 1 1 2 3 1 2 3 1   2 3 1 1 1 1 1 1 1 1   1 1 1 1

 Wavefunction dump at record             5202.2

 Convergence thresholds  0.10E-01 (gradient)  0.10E-05 (energy)  0.10E-02 (step length)

 Weight factors for state symmetry  1:    0.20000   0.20000
 Weight factors for state symmetry  2:    0.20000
 Weight factors for state symmetry  3:    0.20000
 Weight factors for state symmetry  4:    0.20000

 Eigenvalues of redundancy matrix
   1-  3    0.000000    3.000000    4.000000

 Non-redundant active-active orbital rotations:
     1  2  3  4  5
  2   
  3  +  +
  4         
  5            
  6               

 Number of orbital rotations:      547   (     3 Core/Active    251 Core/Virtual   2 Active/Active    291 Active/Virtual)
 Total number of variables:        554


 ITER. MIC  NCI  NEG     ENERGY(VAR)     ENERGY(PROJ)   ENERGY CHANGE     GRAD(0)  GRAD(ORB)   GRAD(CI)     STEP       TIME

   1   21   28    0    -119.10711662    -119.10756479   -0.00044817    0.03094447 0.00000001 0.00000000  0.20D-01      0.50
   2   48   24    0    -119.10756493    -119.10756494   -0.00000000    0.00008022 0.00000000 0.00000000  0.96D-04      0.94

 ** WVFN ****  CONVERGENCE REACHED, FINAL GRADIENT:  0.14D-08



 Results for state 1.1
 =====================

 !MCSCF STATE 1.1 Energy             -119.107564935558
 Nuclear energy                         0.00000000
 Kinetic energy                        40.88490878
 One electron energy                 -210.07216285
 Two electron energy                   90.96459791
 Virial ratio                           3.91324032

 !MCSCF STATE 1.1 Dipole moment         0.00000000     0.00000000     0.00000000
 Dipole moment /Debye                   0.00000000     0.00000000     0.00000000

 Results for state 2.1
 =====================

 !MCSCF STATE 2.1 Energy             -119.107564935541
 Nuclear energy                         0.00000000
 Kinetic energy                        40.88490878
 One electron energy                 -210.07216285
 Two electron energy                   90.96459791
 Virial ratio                           3.91324032

 !MCSCF STATE 2.1 Dipole moment         0.00000000     0.00000000     0.00000000
 Dipole moment /Debye                   0.00000000     0.00000000     0.00000000



 Results for state 1.4
 =====================

 !MCSCF STATE 1.4 Energy             -119.107564935541
 Nuclear energy                         0.00000000
 Kinetic energy                        40.88490878
 One electron energy                 -210.07216285
 Two electron energy                   90.96459791
 Virial ratio                           3.91324032

 !MCSCF STATE 1.4 Dipole moment         0.00000000     0.00000000     0.00000000
 Dipole moment /Debye                   0.00000000     0.00000000     0.00000000



 Results for state 1.6
 =====================

 !MCSCF STATE 1.6 Energy             -119.107564935554
 Nuclear energy                         0.00000000
 Kinetic energy                        40.88490878
 One electron energy                 -210.07216285
 Two electron energy                   90.96459791
 Virial ratio                           3.91324032

 !MCSCF STATE 1.6 Dipole moment         0.00000000     0.00000000     0.00000000
 Dipole moment /Debye                   0.00000000     0.00000000     0.00000000



 Results for state 1.7
 =====================

 !MCSCF STATE 1.7 Energy             -119.107564935554
 Nuclear energy                         0.00000000
 Kinetic energy                        40.88490878
 One electron energy                 -210.07216285
 Two electron energy                   90.96459791
 Virial ratio                           3.91324032

 !MCSCF STATE 1.7 Dipole moment         0.00000000     0.00000000     0.00000000
 Dipole moment /Debye                   0.00000000     0.00000000     0.00000000

 State-averaged charge density matrix saved on record  5202.2 (density set 1)


 NATURAL ORBITALS (state averaged)
 =================================

   Orb     Occ        Energy       Coefficients

                                   1 1s      1 1s      1 1s      1 1s      1 1s      1 1s      1 1s      1 1s      1 1s      1 1s   
                                   1 1s      1 1s      1 1s      1 1s      1 1s      1 1s      1 1s      1 1s      1 1s      1 1s   
                                   1 1s      1 1s      1 1s      1 1s      1 1s      1 1s      1 1s      1 1s      1 1s      1 1s   
                                   1 1s      1 1s      1 1s      1 3d0     1 3d2+    1 3d0     1 3d2+    1 3d0     1 3d2+    1 3d0  
                                   1 3d2+    1 3d0     1 3d2+    1 3d0     1 3d2+    1 3d0     1 3d2+    1 3d0     1 3d2+    1 3d0  
                                   1 3d2+    1 3d0     1 3d2+    1 3d0     1 3d2+    1 3d0     1 3d2+    1 3d0     1 3d2+    1 3d0  
                                   1 3d2+    1 3d0     1 3d2+    1 3d0     1 3d2+    1 3d0     1 3d2+    1 3d0     1 3d2+    1 5g0  
                                   1 5g4+    1 5g2+    1 5g0     1 5g4+    1 5g2+    1 5g0     1 5g4+    1 5g2+ 

   1.1  2.00000    -4.401984    -0.000000  0.000000 -0.000000  0.000000 -0.000000  0.000001 -0.000002  0.000005 -0.000010  0.000020
                                -0.000042  0.000092 -0.000214  0.000526 -0.001353  0.003555 -0.009199  0.022409 -0.049447  0.098570
                                -0.182565  0.266787  0.036025 -0.858029  0.181335  0.798215  0.457088  0.022356  0.012008 -0.013307
                                 0.004154 -0.001592  0.000453  0.000000  0.000000  0.000000  0.000000  0.000000  0.000000  0.000000
                                 0.000000  0.000000  0.000000  0.000000  0.000000  0.000000  0.000000  0.000000  0.000000  0.000000
                                 0.000000  0.000000  0.000000  0.000000  0.000000  0.000000  0.000000  0.000000  0.000000  0.000000
                                 0.000000  0.000000  0.000000  0.000000  0.000000  0.000000  0.000000  0.000000  0.000000  0.000000
                                 0.000000  0.000000  0.000000  0.000000  0.000000  0.000000  0.000000  0.000000

   2.1  1.80000    -0.359313     0.000000  0.000000  0.000000  0.000000  0.000000  0.000000  0.000000  0.000000  0.000000  0.000000
                                 0.000000  0.000000  0.000000  0.000000  0.000000  0.000000  0.000000  0.000000  0.000000  0.000000
                                 0.000000  0.000000  0.000000  0.000000  0.000000  0.000000  0.000000  0.000000  0.000000  0.000000
                                 0.000000  0.000000  0.000000 -0.000000  0.000000  0.000000  0.000000 -0.000001  0.000000  0.000002
                                 0.000000 -0.000008  0.000000  0.000022  0.000000 -0.000043  0.000000  0.000064  0.000000  0.000029
                                 0.000000  0.010703  0.000000 -0.080167  0.000000  0.094288  0.000000  0.308168  0.000000  0.161952
                                 0.000000  0.331072  0.000000  0.264733  0.000000  0.100003  0.000000 -0.002455  0.000000  0.000000
                                 0.000000  0.000000  0.000000  0.000000  0.000000  0.000000  0.000000  0.000000

   3.1  1.80000    -0.359313     0.000000  0.000000  0.000000  0.000000  0.000000  0.000000  0.000000  0.000000  0.000000  0.000000
                                 0.000000  0.000000  0.000000  0.000000  0.000000  0.000000  0.000000  0.000000  0.000000  0.000000
                                 0.000000  0.000000  0.000000  0.000000  0.000000  0.000000  0.000000  0.000000  0.000000  0.000000
                                 0.000000  0.000000  0.000000  0.000000 -0.000000  0.000000  0.000000  0.000000 -0.000001  0.000000
                                 0.000002  0.000000 -0.000008  0.000000  0.000022  0.000000 -0.000043  0.000000  0.000064  0.000000
                                 0.000029  0.000000  0.010703  0.000000 -0.080167  0.000000  0.094288  0.000000  0.308168  0.000000
                                 0.161952  0.000000  0.331072  0.000000  0.264733  0.000000  0.100003  0.000000 -0.002455  0.000000
                                 0.000000  0.000000  0.000000  0.000000  0.000000  0.000000  0.000000  0.000000

   4.1  1.00000    -0.137125     0.000000 -0.000000  0.000000 -0.000000  0.000000 -0.000000  0.000001 -0.000001  0.000003 -0.000006
                                 0.000014 -0.000030  0.000070 -0.000171  0.000441 -0.001159  0.003002 -0.007324  0.016204 -0.032475
                                 0.060928 -0.092112 -0.003669  0.303197 -0.084536 -0.373338 -0.309535  0.159717  0.194312  0.477059
                                 0.362918  0.021742  0.000294  0.000000  0.000000  0.000000  0.000000  0.000000  0.000000  0.000000
                                 0.000000  0.000000  0.000000  0.000000  0.000000  0.000000  0.000000  0.000000  0.000000  0.000000
                                 0.000000  0.000000  0.000000  0.000000  0.000000  0.000000  0.000000  0.000000  0.000000  0.000000
                                 0.000000  0.000000  0.000000  0.000000  0.000000  0.000000  0.000000  0.000000  0.000000  0.000000
                                 0.000000  0.000000  0.000000  0.000000  0.000000  0.000000  0.000000  0.000000

                                   1 2px     1 2px     1 2px     1 2px     1 2px     1 2px     1 2px     1 2px     1 2px     1 2px  
                                   1 2px     1 2px     1 2px     1 2px     1 2px     1 2px     1 2px     1 2px     1 2px     1 2px  
                                   1 2px     1 2px     1 2px     1 2px     1 2px     1 2px     1 4f1+    1 4f3+    1 4f1+    1 4f3+ 
                                   1 4f1+    1 4f3+    1 4f1+    1 4f3+    1 4f1+    1 4f3+    1 4f1+    1 4f3+    1 4f1+    1 4f3+ 
                                   1 4f1+    1 4f3+    1 4f1+    1 4f3+    1 4f1+    1 4f3+    1 4f1+    1 4f3+    1 4f1+    1 4f3+ 
                                   1 4f1+    1 4f3+    1 4f1+    1 4f3+    1 4f1+    1 4f3+    1 4f1+    1 4f3+    1 4f1+    1 4f3+ 


   1.2  2.00000    -2.554175     0.000000 -0.000000  0.000000 -0.000000  0.000000 -0.000000  0.000000 -0.000002  0.000005 -0.000016
                                 0.000049 -0.000165  0.000745 -0.003048  0.006462 -0.006832 -0.002134  0.085558 -0.300706  0.002950
                                 0.523764  0.500229  0.146159 -0.000545  0.003456 -0.001039  0.000000  0.000000  0.000000  0.000000
                                 0.000000  0.000000  0.000000  0.000000  0.000000  0.000000  0.000000  0.000000  0.000000  0.000000
                                 0.000000  0.000000  0.000000  0.000000  0.000000  0.000000  0.000000  0.000000  0.000000  0.000000
                                 0.000000  0.000000  0.000000  0.000000  0.000000  0.000000  0.000000  0.000000  0.000000  0.000000

                                   1 2py     1 2py     1 2py     1 2py     1 2py     1 2py     1 2py     1 2py     1 2py     1 2py  
                                   1 2py     1 2py     1 2py     1 2py     1 2py     1 2py     1 2py     1 2py     1 2py     1 2py  
                                   1 2py     1 2py     1 2py     1 2py     1 2py     1 2py     1 4f1-    1 4f3-    1 4f1-    1 4f3- 
                                   1 4f1-    1 4f3-    1 4f1-    1 4f3-    1 4f1-    1 4f3-    1 4f1-    1 4f3-    1 4f1-    1 4f3- 
                                   1 4f1-    1 4f3-    1 4f1-    1 4f3-    1 4f1-    1 4f3-    1 4f1-    1 4f3-    1 4f1-    1 4f3- 
                                   1 4f1-    1 4f3-    1 4f1-    1 4f3-    1 4f1-    1 4f3-    1 4f1-    1 4f3-    1 4f1-    1 4f3- 


   1.3  2.00000    -2.554175     0.000000 -0.000000  0.000000 -0.000000  0.000000 -0.000000  0.000000 -0.000002  0.000005 -0.000016
                                 0.000049 -0.000165  0.000745 -0.003048  0.006462 -0.006832 -0.002134  0.085558 -0.300706  0.002950
                                 0.523764  0.500229  0.146159 -0.000545  0.003456 -0.001039  0.000000  0.000000  0.000000  0.000000
                                 0.000000  0.000000  0.000000  0.000000  0.000000  0.000000  0.000000  0.000000  0.000000  0.000000
                                 0.000000  0.000000  0.000000  0.000000  0.000000  0.000000  0.000000  0.000000  0.000000  0.000000
                                 0.000000  0.000000  0.000000  0.000000  0.000000  0.000000  0.000000  0.000000  0.000000  0.000000

                                   1 3d2-    1 3d2-    1 3d2-    1 3d2-    1 3d2-    1 3d2-    1 3d2-    1 3d2-    1 3d2-    1 3d2- 
                                   1 3d2-    1 3d2-    1 3d2-    1 3d2-    1 3d2-    1 3d2-    1 3d2-    1 3d2-    1 5g2-    1 5g4- 
                                   1 5g2-    1 5g4-    1 5g2-    1 5g4- 

   1.4  1.80000    -0.359313    -0.000000  0.000000 -0.000001  0.000002 -0.000008  0.000022 -0.000043  0.000064  0.000029  0.010703
                                -0.080167  0.094288  0.308168  0.161952  0.331072  0.264733  0.100003 -0.002455  0.000000  0.000000
                                 0.000000  0.000000  0.000000  0.000000

                                   1 2pz     1 2pz     1 2pz     1 2pz     1 2pz     1 2pz     1 2pz     1 2pz     1 2pz     1 2pz  
                                   1 2pz     1 2pz     1 2pz     1 2pz     1 2pz     1 2pz     1 2pz     1 2pz     1 2pz     1 2pz  
                                   1 2pz     1 2pz     1 2pz     1 2pz     1 2pz     1 2pz     1 4f0     1 4f2+    1 4f0     1 4f2+ 
                                   1 4f0     1 4f2+    1 4f0     1 4f2+    1 4f0     1 4f2+    1 4f0     1 4f2+    1 4f0     1 4f2+ 
                                   1 4f0     1 4f2+    1 4f0     1 4f2+    1 4f0     1 4f2+    1 4f0     1 4f2+    1 4f0     1 4f2+ 
                                   1 4f0     1 4f2+    1 4f0     1 4f2+    1 4f0     1 4f2+    1 4f0     1 4f2+    1 4f0     1 4f2+ 


   1.5  2.00000    -2.554175     0.000000 -0.000000  0.000000 -0.000000  0.000000 -0.000000  0.000000 -0.000002  0.000005 -0.000016
                                 0.000049 -0.000165  0.000745 -0.003048  0.006462 -0.006832 -0.002134  0.085558 -0.300706  0.002950
                                 0.523764  0.500229  0.146159 -0.000545  0.003456 -0.001039  0.000000  0.000000  0.000000  0.000000
                                 0.000000  0.000000  0.000000  0.000000  0.000000  0.000000  0.000000  0.000000  0.000000  0.000000
                                 0.000000  0.000000  0.000000  0.000000  0.000000  0.000000  0.000000  0.000000  0.000000  0.000000
                                 0.000000  0.000000  0.000000  0.000000  0.000000  0.000000  0.000000  0.000000  0.000000  0.000000

                                   1 3d1+    1 3d1+    1 3d1+    1 3d1+    1 3d1+    1 3d1+    1 3d1+    1 3d1+    1 3d1+    1 3d1+ 
                                   1 3d1+    1 3d1+    1 3d1+    1 3d1+    1 3d1+    1 3d1+    1 3d1+    1 3d1+    1 5g1+    1 5g3+ 
                                   1 5g1+    1 5g3+    1 5g1+    1 5g3+ 

   1.6  1.80000    -0.359313    -0.000000  0.000000 -0.000001  0.000002 -0.000008  0.000022 -0.000043  0.000064  0.000029  0.010703
                                -0.080167  0.094288  0.308168  0.161952  0.331072  0.264733  0.100003 -0.002455  0.000000  0.000000
                                 0.000000  0.000000  0.000000  0.000000

                                   1 3d1-    1 3d1-    1 3d1-    1 3d1-    1 3d1-    1 3d1-    1 3d1-    1 3d1-    1 3d1-    1 3d1- 
                                   1 3d1-    1 3d1-    1 3d1-    1 3d1-    1 3d1-    1 3d1-    1 3d1-    1 3d1-    1 5g1-    1 5g3- 
                                   1 5g1-    1 5g3-    1 5g1-    1 5g3- 

   1.7  1.80000    -0.359313    -0.000000  0.000000 -0.000001  0.000002 -0.000008  0.000022 -0.000043  0.000064  0.000029  0.010703
                                -0.080167  0.094288  0.308168  0.161952  0.331072  0.264733  0.100003 -0.002455  0.000000  0.000000
                                 0.000000  0.000000  0.000000  0.000000
 

 EXTRA SYMMETRY OF MOS IN SYMMETRY 1:   1 2 3 1 1 1 2 3 1 2   3 1 3 2 1 5 4 6 3 2   1 5 6 4 3 2 5 6 4 1   3 2 1 2 3 3 2 1 3 2
                                        1 3 2 1 3 2 1 1 3 2   1 1 3 2 1 3 2 1 1 3   2 1 3 2 1 1 2 3 1 1   1 1 1 1 1 1 1 1
 EXTRA SYMMETRY OF MOS IN SYMMETRY 2:   1 1 1 2 3 3 2 1 2 3   2 3 1 2 3 2 3 1 3 2   1 3 2 3 2 1 3 2 1 3   2 1 3 2 1 1 3 2 1 3
                                        2 1 3 2 1 1 2 3 1 2   3 1 1 1 1 1 1 1 1 1
 EXTRA SYMMETRY OF MOS IN SYMMETRY 3:   1 1 1 3 2 3 2 1 2 3   2 3 1 2 3 2 3 1 3 2   1 3 2 3 2 1 3 2 1 3   2 1 3 2 1 1 3 2 1 2
                                        3 1 2 3 1 1 2 3 1 3   2 1 1 1 1 1 1 1 1 1
 EXTRA SYMMETRY OF MOS IN SYMMETRY 4:   1 1 1 1 3 2 1 3 2 1   2 3 1 1 1 1 1 1 1 1   1 1 1 1
 EXTRA SYMMETRY OF MOS IN SYMMETRY 5:   1 1 1 3 2 2 3 1 2 3   3 2 1 3 2 3 2 1 3 2   1 3 2 3 2 1 3 2 1 3   2 1 3 2 1 1 3 2 1 3
                                        2 1 3 2 1 1 3 2 1 3   2 1 1 1 1 1 1 1 1 1
 EXTRA SYMMETRY OF MOS IN SYMMETRY 6:   1 1 1 1 2 3 1 3 2 1   3 2 1 1 1 1 1 1 1 1   1 1 1 1
 EXTRA SYMMETRY OF MOS IN SYMMETRY 7:   1 1 1 1 2 3 1 3 2 1   3 2 1 1 1 1 1 1 1 1   1 1 1 1

 Natural orbital dump (state averaged) at molpro section  5202.2    (Orbital set 2)


 CI vector for state symmetry 1
 ==============================

 2// 2 2 2         -0.0014556   0.9999989
 /2/ 2 2 2          0.9999989   0.0014556

 TOTAL ENERGIES                      -119.10756494  -119.10756494

 CI vector for state symmetry 2
 ==============================

 22/ / 2 2          1.0000000

 TOTAL ENERGIES                      -119.10756494

 CI vector for state symmetry 3
 ==============================

 22/ 2 / 2          1.0000000

 TOTAL ENERGIES                      -119.10756494

 CI vector for state symmetry 4
 ==============================

 22/ 2 2 /          1.0000000

 TOTAL ENERGIES                      -119.10756494



 **********************************************************************************************************************************
 DATASETS  * FILE   NREC   LENGTH (MB)   RECORD NAMES
              1      20       31.67       500      610      700      900      950      970     1000      129      960     1100   
                                          VAR    BASINP    GEOM    SYMINP    ZMAT    AOBASIS   BASIS     P2S    ABASIS      S 
                                         1400     1410     1420     1200     1210     1080     1600     1650     1700     1380   
                                           T        V       ECP      H0       H01     AOSYM     SMH    MOLCAS    OPER     JKOP   

              2       6        9.11       200      700     1000      520     4202     5202   
                                        OPTIONS   GEOM     BASIS   MCVARS     RHF     MCSCF   

 PROGRAMS   *        TOTAL     MULTI       POP       RHF       INT
 CPU TIMES  *        77.71      1.39      0.00      1.32     74.69
 REAL TIME  *       141.67 SEC
 DISK USED  *         4.08 GB      
 SF USED    *        55.35 MB      
 GA USED    *         0.00 MB       (max)       0.00 MB       (current)
 **********************************************************************************************************************************


 PROGRAM * RHF-SCF (OPEN SHELL)       Authors: W. Meyer, H.-J. Werner


 NUMBER OF ELECTRONS:      10+    8-    SPACE SYMMETRY=1    SPIN SYMMETRY: Triplet 
 CONVERGENCE THRESHOLDS:    1.00E-05 (Density)    1.00E-07 (Energy)
 MAX. NUMBER OF ITERATIONS:        0
 INTERPOLATION TYPE:            DIIS
 INTERPOLATION STEPS:              2 (START)      1 (STEP)
 LEVEL SHIFTS:                 -0.60 (CLOSED) -0.30 (OPEN) 

 Number of closed-shell orbitals:    8 (   2   1   1   1   1   1   1   0 )
 Number of open-shell orbitals:      2 (   2   0   0   0   0   0   0   0 )


 Molecular orbitals read from record     5202.2  Type=MCSCF/NATURAL (state averaged)

 Molecular orbital dump at record        2105.2

 ITERATION    DDIFF          GRAD             ENERGY        2-EL.EN.            DIPOLE MOMENTS         DIIS   ORB.
    1      0.000D+00      0.000D+00      -119.10756494    181.929196    0.00000    0.00000    0.00000    0    start

 Final alpha occupancy:   4   1   1   1   1   1   1   0
 Final beta  occupancy:   2   1   1   1   1   1   1   0

 !RHF STATE 1.1 Energy               -119.107564935541
 Nuclear energy                         0.00000000
 One-electron energy                 -210.07216285
 Two-electron energy                   90.96459791
 Virial quotient                       -2.91324032
 !RHF STATE 1.1 Dipole moment           0.00000000     0.00000000     0.00000000
 Dipole moment /Debye                   0.00000000     0.00000000     0.00000000

 Orbital energies:

         1.1          2.1          3.1          4.1          5.1          6.1
     -4.401984    -0.359313    -0.359313    -0.137125     0.015745     0.077592

         1.2          2.2          3.2
     -2.554175     0.034137     0.119299

         1.3          2.3          3.3
     -2.554175     0.034137     0.119299

         1.4          2.4          3.4
     -0.359313     0.112577     0.393211

         1.5          2.5          3.5
     -2.554175     0.034137     0.119299

         1.6          2.6          3.6
     -0.359313     0.112577     0.393211

         1.7          2.7          3.7
     -0.359313     0.112577     0.393211

         1.8          2.8
      0.157320     0.379820

 HOMO      4.1    -0.137125 =      -3.7314eV
 LUMO      5.1     0.015745 =       0.4285eV
 LUMO-HOMO         0.152870 =       4.1598eV


 **********************************************************************************************************************************
 DATASETS  * FILE   NREC   LENGTH (MB)   RECORD NAMES
              1      20       31.67       500      610      700      900      950      970     1000      129      960     1100   
                                          VAR    BASINP    GEOM    SYMINP    ZMAT    AOBASIS   BASIS     P2S    ABASIS      S 
                                         1400     1410     1420     1200     1210     1080     1600     1650     1700     1380   
                                           T        V       ECP      H0       H01     AOSYM     SMH    MOLCAS    OPER     JKOP   

              2       7       12.62       200      700     1000      520     4202     5202     2105   
                                        OPTIONS   GEOM     BASIS   MCVARS     RHF     MCSCF     RHF  

 PROGRAMS   *        TOTAL       RHF     MULTI       POP       RHF       INT
 CPU TIMES  *        77.79      0.08      1.39      0.00      1.32     74.69
 REAL TIME  *       141.84 SEC
 DISK USED  *         4.08 GB      
 SF USED    *        55.35 MB      
 GA USED    *         0.00 MB       (max)       0.00 MB       (current)
 **********************************************************************************************************************************
 SETTING SCF(1)         =      -119.10756494  AU                              
 SETTING _CC_NORM_MAX   =         2.00000000                                  


 PROGRAM * CCSD (Restricted open-shell coupled cluster)     Authors: C. Hampel, H.-J. Werner, 1991, M. Deegan, P.J. Knowles, 1992


 Convergence thresholds:  THRVAR = 1.00D-08  THRDEN = 1.00D-06

 CCSD(T)     terms to be evaluated (factor= 1.000)


 Number of closed-shell orbitals:   8 (   2   1   1   1   1   1   1   0 )
 Number of active  orbitals:        2 (   2   0   0   0   0   0   0   0 )
 Number of external orbitals:     337 (  74  59  59  23  59  23  23  17 )

 Memory could be reduced to 87.56 Mwords without degradation in triples

 Number of N-1 electron functions:              18
 Number of N-2 electron functions:             153
 Number of singly external CSFs:               948
 Number of doubly external CSFs:           1703510
 Total number of CSFs:                     1704458

 Molecular orbitals read from record     2105.2  Type=RHF/CANONICAL (state 1.1)

 Integral transformation finished. Total CPU:   1.76 sec, npass=  1  Memory used:  16.30 MW

 Starting RMP2 calculation

 Wavefunction is spin-projected

 ITER.      SQ.NORM     CORR.ENERGY   TOTAL ENERGY   ENERGY CHANGE        DEN1      VAR(S)    VAR(P)  DIIS     TIME
   1      1.13489704    -0.66992091  -119.77748585    -0.66992091    -0.00148587  0.12D-04  0.60D-03  1  1     1.94
   2      1.13634626    -0.67150438  -119.77906932    -0.00158347    -0.00000439  0.19D-06  0.28D-05  2  2     2.11
   3      1.13642969    -0.67155179  -119.77911673    -0.00004741    -0.00000002  0.46D-08  0.11D-07  3  3     2.45
   4      1.13643226    -0.67155236  -119.77911729    -0.00000057    -0.00000000  0.19D-09  0.45D-10  4  4     2.71

 Norm of t1 vector:      0.04047469      S-energy:    -0.00523635      T1 diagnostic:  0.00530701
 Norm of t2 vector:      0.36714310      P-energy:    -0.66631601
                                         Alpha-Beta:  -0.45962640
                                         Alpha-Alpha: -0.12600045
                                         Beta-Beta:   -0.08068917

 Spin contamination <S**2-Sz**2-Sz>     0.00000000
  Reference energy                   -119.107564935541
  RHF-RMP2 correlation energy          -0.671552358757
 !RHF-RMP2 energy                    -119.779117294298
 (NB above energy spin projected)

 Starting RCCSD calculation

 ITER.      SQ.NORM     CORR.ENERGY   TOTAL ENERGY   ENERGY CHANGE        DEN1      VAR(S)    VAR(P)  DIIS     TIME
   1      1.11522784    -0.62887008  -119.73643502    -0.62887008    -0.01152838  0.20D-02  0.20D-02  1  1     4.14
   2      1.12358877    -0.63942951  -119.74699445    -0.01055943    -0.00073457  0.21D-03  0.24D-03  2  2     5.28
   3      1.12684316    -0.64042042  -119.74798535    -0.00099091    -0.00009453  0.79D-04  0.16D-04  3  3     6.45
   4      1.12874042    -0.64097110  -119.74853604    -0.00055068    -0.00001032  0.79D-05  0.20D-05  4  4     7.61
   5      1.12935859    -0.64109530  -119.74866023    -0.00012420    -0.00000095  0.87D-06  0.18D-06  5  5     8.80
   6      1.12951403    -0.64111260  -119.74867754    -0.00001730    -0.00000009  0.98D-07  0.19D-07  6  6    10.01
   7      1.12954171    -0.64111600  -119.74868094    -0.00000340    -0.00000004  0.58D-07  0.50D-08  6  2    11.23
   8      1.12954654    -0.64111590  -119.74868084     0.00000010    -0.00000003  0.46D-07  0.31D-08  6  1    12.42
   9      1.12955030    -0.64111552  -119.74868046     0.00000038    -0.00000002  0.32D-07  0.25D-08  6  4    13.62
  10      1.12956743    -0.64111573  -119.74868066    -0.00000020    -0.00000001  0.74D-08  0.22D-08  6  3    14.82

 Norm of t1 vector:      0.08963586      S-energy:    -0.00514987      T1 diagnostic:  0.01432833
                                                                       D1 diagnostic:  0.04526425
 Norm of t2 vector:      0.34861561      P-energy:    -0.63596586
                                         Alpha-Beta:  -0.45535971
                                         Alpha-Alpha: -0.10974928
                                         Beta-Beta:   -0.07085687

 Spin contamination <S**2-Sz**2-Sz>     0.00000000

 Memory could be reduced to 91.25 Mwords without degradation in triples
 

  Correlated core orbitals:             1.1       1.2       1.3       1.5
  Orbital energies:                    -4.4343   -2.6134   -2.6134   -2.5569
 
  RCCSD core-core energy               -0.111720954008
  RCCSD core-valence energy            -0.223518080740
  RCCSD valence correlation energy     -0.305876693475
 

 RESULTS
 =======

  Reference energy                   -119.107564935541
  RCCSD singles energy                 -0.005149871221
  RCCSD pair energy                    -0.635965857002
  RCCSD correlation energy             -0.641115728223
  Triples (T) contribution             -0.024816605201
  Total correlation energy             -0.665932333424
 
  RHF-RCCSD energy                   -119.748680663764
  RHF-RCCSD[T] energy                -119.774038271373
  RHF-RCCSD-T energy                 -119.773317719273
 !RHF-RCCSD(T) energy                -119.773497268964

 Program statistics:

 Available memory in ccsd:              1023999000
 Min. memory needed in ccsd:               5129478
 Max. memory used in ccsd:                 7192315
 Max. memory used in cckext:               5654308 (10 integral passes)
 Max. memory used in cckint:              16298177 ( 1 integral passes)



 **********************************************************************************************************************************
 DATASETS  * FILE   NREC   LENGTH (MB)   RECORD NAMES
              1      20       31.67       500      610      700      900      950      970     1000      129      960     1100   
                                          VAR    BASINP    GEOM    SYMINP    ZMAT    AOBASIS   BASIS     P2S    ABASIS      S 
                                         1400     1410     1420     1200     1210     1080     1600     1650     1700     1380   
                                           T        V       ECP      H0       H01     AOSYM     SMH    MOLCAS    OPER     JKOP   

              2       7       12.62       200      700     1000      520     4202     5202     2105   
                                        OPTIONS   GEOM     BASIS   MCVARS     RHF     MCSCF     RHF  

 PROGRAMS   *        TOTAL  RCCSD(T)       RHF     MULTI       POP       RHF       INT
 CPU TIMES  *       118.05     40.26      0.08      1.39      0.00      1.32     74.69
 REAL TIME  *       190.39 SEC
 DISK USED  *         6.60 GB      
 SF USED    *         1.39 GB      
 GA USED    *         0.00 MB       (max)       0.00 MB       (current)
 **********************************************************************************************************************************
 SETTING CCSD(1)        =      -119.77349727  AU                              

 DO I                   =         2.00000000   

 Running procedure=EAS2D9


 PROGRAM * RHF-SCF (OPEN SHELL)       Authors: W. Meyer, H.-J. Werner


 NUMBER OF ELECTRONS:      10+    9-    SPACE SYMMETRY=1    SPIN SYMMETRY: Doublet 
 CONVERGENCE THRESHOLDS:    1.00E-05 (Density)    1.00E-07 (Energy)
 MAX. NUMBER OF ITERATIONS:       60
 INTERPOLATION TYPE:            DIIS
 INTERPOLATION STEPS:              2 (START)      1 (STEP)
 LEVEL SHIFTS:                 -0.60 (CLOSED) -0.30 (OPEN) 

 Number of closed-shell orbitals:    9 (   3   1   1   1   1   1   1   0 )
 Number of open-shell orbitals:      1 (   1   0   0   0   0   0   0   0 )


 
 Extra symmetries of mos in symmetry 1:   1   1   3   2
 Orbital guess generated from atomic densities. Full valence occupancy:    4   1   1   1   1   1   1   0


 Molecular orbital dump at record        4202.2

 ITERATION    DDIFF          GRAD             ENERGY        2-EL.EN.            DIPOLE MOMENTS         DIIS   ORB.
    1      0.000D+00      0.000D+00      -118.96202766    200.787460    0.00000    0.00000    0.00000    0    start
    2      0.000D+00      0.184D-01      -119.09775241    191.245224    0.00000    0.00000    0.00000    1    diag,B
    3      0.704D-02      0.691D-02      -119.11219343    192.182047    0.00000    0.00000    0.00000    2    diag,B
    4      0.205D-02      0.184D-02      -119.11881613    191.516447    0.00000    0.00000    0.00000    3    diag,B
    5      0.237D-02      0.102D-02      -119.12266823    191.039778    0.00000    0.00000    0.00000    4    diag,B
    6      0.311D-02      0.610D-03      -119.12480535    190.651214    0.00000    0.00000    0.00000    5    diag,B
    7      0.306D-02      0.346D-03      -119.12562629    190.473103    0.00000    0.00000    0.00000    6    fixocc
    8      0.237D-02      0.200D-03      -119.12593386    190.345466    0.00000    0.00000    0.00000    7    diag,B
    9      0.308D-02      0.121D-03      -119.12606175    190.286643    0.00000    0.00000    0.00000    8    diag,B
   10      0.248D-02      0.711D-04      -119.12610252    190.249050    0.00000    0.00000    0.00000    9    orth
   11      0.728D-03      0.523D-04      -119.12613895    190.230620    0.00000    0.00000    0.00000    9    diag,B
   12      0.241D-02      0.177D-04      -119.12614230    190.209461    0.00000    0.00000    0.00000    9    diag,B
   13      0.657D-03      0.758D-05      -119.12614254    190.212438    0.00000    0.00000    0.00000    9    diag,B
   14      0.109D-03      0.374D-05      -119.12614262    190.210868    0.00000    0.00000    0.00000    9    diag,B
   15      0.378D-04      0.298D-05      -119.12614269    190.211338    0.00000    0.00000    0.00000    9    diag,B
   16      0.946D-05      0.277D-05      -119.12614282    190.211322    0.00000    0.00000    0.00000    0    orth

 Final alpha occupancy:   4   1   1   1   1   1   1   0
 Final beta  occupancy:   3   1   1   1   1   1   1   0

 !RHF STATE 1.1 Energy               -119.126142816474
 Nuclear energy                         0.00000000
 One-electron energy                 -214.23180392
 Two-electron energy                   95.10566110
 Virial quotient                       -2.91929842
 !RHF STATE 1.1 Dipole moment           0.00000000     0.00000000     0.00000000
 Dipole moment /Debye                   0.00000000     0.00000000     0.00000000

 ELECTRON ORBITALS
 =================


   Orb  Occ    Energy  Couls-En    Coefficients

                                   1 1s      1 1s      1 1s      1 1s      1 1s      1 1s      1 1s      1 1s      1 1s      1 1s   
                                   1 1s      1 1s      1 1s      1 1s      1 1s      1 1s      1 1s      1 1s      1 1s      1 1s   
                                   1 1s      1 1s      1 1s      1 1s      1 1s      1 1s      1 1s      1 1s      1 1s      1 1s   
                                   1 1s      1 1s      1 1s      1 3d0     1 3d2+    1 3d0     1 3d2+    1 3d0     1 3d2+    1 3d0  
                                   1 3d2+    1 3d0     1 3d2+    1 3d0     1 3d2+    1 3d0     1 3d2+    1 3d0     1 3d2+    1 3d0  
                                   1 3d2+    1 3d0     1 3d2+    1 3d0     1 3d2+    1 3d0     1 3d2+    1 3d0     1 3d2+    1 3d0  
                                   1 3d2+    1 3d0     1 3d2+    1 3d0     1 3d2+    1 3d0     1 3d2+    1 3d0     1 3d2+    1 5g0  
                                   1 5g4+    1 5g2+    1 5g0     1 5g4+    1 5g2+    1 5g0     1 5g4+    1 5g2+ 

   1.1   2    -4.1744  -20.1408 -0.000000  0.000000 -0.000000  0.000000 -0.000000  0.000001 -0.000002  0.000005 -0.000010  0.000020
                                -0.000042  0.000092 -0.000214  0.000527 -0.001354  0.003558 -0.009208  0.022430 -0.049495  0.098668
                                -0.182752  0.267077  0.036030 -0.859022  0.181298  0.801553  0.454703  0.020961  0.013761 -0.014121
                                 0.004672 -0.001630  0.000499 -0.000000 -0.000000  0.000000  0.000000 -0.000000 -0.000000  0.000000
                                 0.000000 -0.000001 -0.000000  0.000002  0.000000 -0.000004 -0.000000  0.000010  0.000001 -0.000022
                                -0.000001  0.000099  0.000010 -0.000483 -0.000058  0.000713  0.000078  0.001769  0.000220 -0.000648
                                 0.000020 -0.001177  0.000057 -0.001357  0.000016 -0.000417  0.000013 -0.000017 -0.000000 -0.000034
                                 0.000000  0.000001 -0.000731 -0.000001  0.000027 -0.000458 -0.000000  0.000016

   2.1   2    -0.0412   -5.5532  0.000000 -0.000000  0.000000 -0.000000  0.000000 -0.000000  0.000001 -0.000001  0.000003 -0.000005
                                 0.000011 -0.000025  0.000058 -0.000143  0.000368 -0.000968  0.002506 -0.006108  0.013489 -0.026954
                                 0.050370 -0.075978 -0.002055  0.246136 -0.066078 -0.309012 -0.238668  0.114855  0.153036  0.242008
                                 0.395226  0.226950  0.096144  0.000000  0.000000 -0.000000 -0.000000  0.000000  0.000000 -0.000000
                                -0.000000  0.000000  0.000000 -0.000000 -0.000000  0.000001  0.000000 -0.000000 -0.000000 -0.000004
                                -0.000000 -0.000308 -0.000037  0.002355  0.000279 -0.002835 -0.000335 -0.009839 -0.001121 -0.003838
                                -0.000501 -0.008323 -0.001054 -0.001909 -0.000546  0.001428 -0.000098  0.002167  0.000118 -0.000359
                                -0.000001  0.000008 -0.000351 -0.000001  0.000003 -0.000031 -0.000000 -0.000011

   3.1   2    -0.1630  -10.0171  0.000000 -0.000000  0.000000 -0.000000  0.000000 -0.000000  0.000000 -0.000000  0.000000 -0.000000
                                 0.000000 -0.000000  0.000000 -0.000001  0.000003 -0.000007  0.000018 -0.000043  0.000095 -0.000190
                                 0.000353 -0.000531 -0.000008  0.001703 -0.000477 -0.002298 -0.001210  0.001706  0.000354  0.001827
                                 0.000833  0.000154 -0.000015 -0.000000 -0.000000  0.000000  0.000000 -0.000000 -0.000001  0.000000
                                 0.000002 -0.000000 -0.000008  0.000001  0.000020 -0.000001 -0.000038  0.000002  0.000054  0.000002
                                 0.000052  0.000303  0.010520 -0.002275 -0.079092  0.002678  0.093118  0.008760  0.304737  0.004571
                                 0.158764  0.009389  0.325914  0.007584  0.262127  0.003568  0.122940  0.000314  0.010625  0.000029
                                 0.000064  0.000967  0.000079  0.000135  0.001732  0.000081  0.000171  0.002840

   4.1   +    -0.2384  -10.2296  0.000000 -0.000000  0.000000 -0.000000  0.000000 -0.000000  0.000000 -0.000000  0.000000 -0.000001
                                 0.000001 -0.000002  0.000005 -0.000013  0.000034 -0.000089  0.000230 -0.000558  0.001224 -0.002417
                                 0.004459 -0.006737  0.000341  0.021075 -0.006077 -0.035286 -0.009707  0.043016 -0.005040  0.028677
                                -0.010458 -0.009259 -0.004894 -0.000000  0.000000  0.000000 -0.000000 -0.000001  0.000000  0.000002
                                -0.000000 -0.000008  0.000000  0.000020 -0.000001 -0.000039  0.000001  0.000057 -0.000002  0.000041
                                -0.000001  0.010749 -0.000313 -0.080438  0.002339  0.093339 -0.002718  0.312837 -0.009101  0.163700
[...]
                                         2109     2111     2113     2115     2117     2123     2127     2119     2120   
                                          RHF      RHF      RHF      RHF      RHF      RHF      RHF      RHF      RHF  

 PROGRAMS   *        TOTAL       RHF  RCCSD(T)       RHF  RCCSD(T)       RHF     MULTI       POP       RHF  RCCSD(T)       RHF
 CPU TIMES  *       494.94      1.10      6.54      0.92     10.00      0.10      1.37      0.00      1.04     16.96      1.05
 REAL TIME  *       666.73 SEC
 DISK USED  *         6.92 GB      
 SF USED    *         1.40 GB      
 GA USED    *         0.00 MB       (max)       0.00 MB       (current)
 **********************************************************************************************************************************
 SETTING SCF(14)        =       -66.35551764  AU                              
 SETTING _CC_NORM_MAX   =         2.00000000                                  


 PROGRAM * CCSD (Restricted open-shell coupled cluster)     Authors: C. Hampel, H.-J. Werner, 1991, M. Deegan, P.J. Knowles, 1992


 Convergence thresholds:  THRVAR = 1.00D-08  THRDEN = 1.00D-06

 CCSD(T)     terms to be evaluated (factor= 1.000)


 Number of closed-shell orbitals:   1 (   1   0   0   0   0   0   0   0 )
 Number of active  orbitals:        3 (   0   1   1   0   1   0   0   0 )
 Number of external orbitals:     343 (  77  59  59  24  59  24  24  17 )

 Memory could be reduced to 55.55 Mwords without degradation in triples

 Number of N-1 electron functions:               5
 Number of N-2 electron functions:              10
 Number of singly external CSFs:               334
 Number of doubly external CSFs:            111050
 Total number of CSFs:                      111384

 Molecular orbitals read from record     2120.2  Type=RHF/CANONICAL (state 1.8)

 Integral transformation finished. Total CPU:   0.77 sec, npass=  1  Memory used:   6.85 MW

 Starting RMP2 calculation

 Wavefunction is spin-projected

 ITER.      SQ.NORM     CORR.ENERGY   TOTAL ENERGY   ENERGY CHANGE        DEN1      VAR(S)    VAR(P)  DIIS     TIME
   1      1.01407461    -0.11375271   -66.46927035    -0.11375271    -0.00006863  0.18D-08  0.99D-05  1  1     0.80
   2      1.01409840    -0.11382380   -66.46934144    -0.00007109    -0.00000001  0.78D-12  0.61D-09  2  2     0.80
   3      1.01409849    -0.11382399   -66.46934163    -0.00000019    -0.00000000  0.84D-16  0.76D-13  3  3     0.86

 Norm of t1 vector:      0.00370862      S-energy:    -0.00018351      T1 diagnostic:  0.00004564
 Norm of t2 vector:      0.11867914      P-energy:    -0.11364048
                                         Alpha-Beta:  -0.08602074
                                         Alpha-Alpha: -0.02761974
                                         Beta-Beta:    0.00000000

 Spin contamination <S**2-Sz**2-Sz>     0.00000000
  Reference energy                    -66.355517638172
  RHF-RMP2 correlation energy          -0.113823993198
 !RHF-RMP2 energy                     -66.469341631370
 (NB above energy spin projected)

 Starting RCCSD calculation

 ITER.      SQ.NORM     CORR.ENERGY   TOTAL ENERGY   ENERGY CHANGE        DEN1      VAR(S)    VAR(P)  DIIS     TIME
   1      1.01650580    -0.12150355   -66.47702119    -0.12150355    -0.00138271  0.38D-05  0.19D-03  1  1     1.19
   2      1.01706712    -0.12296080   -66.47847844    -0.00145725    -0.00001053  0.14D-07  0.13D-05  2  2     1.49
   3      1.01710182    -0.12301833   -66.47853597    -0.00005753    -0.00000010  0.15D-09  0.12D-07  3  3     1.80
   4      1.01710412    -0.12302233   -66.47853997    -0.00000400    -0.00000000  0.34D-11  0.28D-10  4  4     2.11
   5      1.01710414    -0.12302232   -66.47853996     0.00000001    -0.00000000  0.11D-13  0.87D-13  5  5     2.41

 Norm of t1 vector:      0.00420220      S-energy:    -0.00017280      T1 diagnostic:  0.00067366
                                                                       D1 diagnostic:  0.00106498
 Norm of t2 vector:      0.13071527      P-energy:    -0.12284953
                                         Alpha-Beta:  -0.09465632
                                         Alpha-Alpha: -0.02819321
                                         Beta-Beta:    0.00000000

 Spin contamination <S**2-Sz**2-Sz>     0.00000000

 Memory could be reduced to 56.03 Mwords without degradation in triples
 

  Correlated core orbitals:             1.1       1.2       1.3       1.5
  Orbital energies:                   -13.0698  -10.8655  -10.8655  -10.8655
 
  RCCSD core-core energy               -0.123022324675
 

 RESULTS
 =======

  Reference energy                    -66.355517638172
  RCCSD singles energy                 -0.000172796855
  RCCSD pair energy                    -0.122849527820
  RCCSD correlation energy             -0.123022324675
  Triples (T) contribution             -0.001558651850
  Total correlation energy             -0.124580976525
 
  RHF-RCCSD energy                    -66.478539962847
  RHF-RCCSD[T] energy                 -66.480098051974
  RHF-RCCSD-T energy                  -66.480098465015
 !RHF-RCCSD(T) energy                 -66.480098614697

 Program statistics:

 Available memory in ccsd:              1023999732
 Min. memory needed in ccsd:                860572
 Max. memory used in ccsd:                  957260
 Max. memory used in cckext:               1178890 ( 5 integral passes)
 Max. memory used in cckint:               6846760 ( 1 integral passes)



 **********************************************************************************************************************************
 DATASETS  * FILE   NREC   LENGTH (MB)   RECORD NAMES
              1      20       46.45       500      610      700      900      950      970     1000      129      960     1100   
                                          VAR    BASINP    GEOM    SYMINP    ZMAT    AOBASIS   BASIS     P2S    ABASIS      S 
                                         1400     1410     1420     1200     1210     1080     1600     1650     1700     1380   
                                           T        V       ECP      H0       H01     AOSYM     SMH    MOLCAS    OPER     JKOP   

              2      19       48.91       200      700     1000      520     4202     5202     2105     2102     5202(1)  2107   
                                        OPTIONS   GEOM     BASIS   MCVARS     RHF     MCSCF     RHF      RHF     MCSCF     RHF  
                                         2109     2111     2113     2115     2117     2123     2127     2119     2120   
                                          RHF      RHF      RHF      RHF      RHF      RHF      RHF      RHF      RHF  

 PROGRAMS   *        TOTAL  RCCSD(T)       RHF  RCCSD(T)       RHF  RCCSD(T)       RHF     MULTI       POP       RHF  RCCSD(T)
 CPU TIMES  *       499.48      4.54      1.10      6.54      0.92     10.00      0.10      1.37      0.00      1.04     16.96
 REAL TIME  *       673.18 SEC
 DISK USED  *         6.92 GB      
 SF USED    *         1.40 GB      
 GA USED    *         0.00 MB       (max)       0.00 MB       (current)
 **********************************************************************************************************************************
 SETTING CCSD(14)       =       -66.48009861  AU                              

 DO I                   =        15.00000000   

 Running procedure=XVIIS2


 PROGRAM * RHF-SCF (CLOSED SHELL)       Authors: W. Meyer, H.-J. Werner


 NUMBER OF ELECTRONS:       1+    1-    SPACE SYMMETRY=1    SPIN SYMMETRY: Singlet 
 CONVERGENCE THRESHOLDS:    1.00E-05 (Density)    1.00E-07 (Energy)
 MAX. NUMBER OF ITERATIONS:       60
 INTERPOLATION TYPE:            DIIS
 INTERPOLATION STEPS:              2 (START)      1 (STEP)
 LEVEL SHIFTS:                  0.00 (CLOSED)  0.00 (OPEN) 



 Orbital guess generated from atomic densities. Full valence occupancy:    4   1   1   1   1   1   1   0


 Molecular orbital dump at record        2121.2

 Initial occupancy:   1   0   0   0   0   0   0   0

 ITERATION    DDIFF          GRAD             ENERGY        2-EL.EN.            DIPOLE MOMENTS         DIIS   ORB.
    1      0.000D+00      0.000D+00       -31.05423582      1.859716    0.00000    0.00000    0.00000    0    start
    2      0.000D+00      0.124D+00       -31.40246160      2.019437    0.00000    0.00000    0.00000    1    diag
    3      0.237D-01      0.940D-02       -31.40443025      2.031412    0.00000    0.00000    0.00000    2    diag
    4      0.240D-02      0.402D-04       -31.40443028      2.031450    0.00000    0.00000    0.00000    3    diag
    5      0.179D-04      0.945D-06       -31.40443028      2.031449    0.00000    0.00000    0.00000    4    diag
    6      0.319D-06      0.193D-07       -31.40443028      2.031449    0.00000    0.00000    0.00000    0    orth

 Final occupancy:   1   0   0   0   0   0   0   0

 !RHF STATE 1.1 Energy                -31.404430278021
 Nuclear energy                         0.00000000
 One-electron energy                  -32.42015486
 Two-electron energy                    1.01572458
 Virial quotient                       -5.62664551
 !RHF STATE 1.1 Dipole moment           0.00000000     0.00000000     0.00000000
 Dipole moment /Debye                   0.00000000     0.00000000     0.00000000

 Orbital energies:

         1.1          2.1          3.1
    -15.194353    -9.767817    -9.767817

         1.2          2.2
    -12.442932    -7.042278

         1.3          2.3
    -12.442932    -7.042278

         1.4          2.4
     -9.767817    -5.859102

         1.5          2.5
    -12.442932    -7.042278

         1.6          2.6
     -9.767817    -5.859102

         1.7          2.7
     -9.767817    -5.859102

         1.8          2.8
     -7.042278    -4.566967

 HOMO      1.1   -15.194353 =    -413.4594eV
 LUMO      1.2   -12.442932 =    -338.5894eV
 LUMO-HOMO         2.751421 =      74.8700eV


 **********************************************************************************************************************************
 DATASETS  * FILE   NREC   LENGTH (MB)   RECORD NAMES
              1      20       46.45       500      610      700      900      950      970     1000      129      960     1100   
                                          VAR    BASINP    GEOM    SYMINP    ZMAT    AOBASIS   BASIS     P2S    ABASIS      S 
                                         1400     1410     1420     1200     1210     1080     1600     1650     1700     1380   
                                           T        V       ECP      H0       H01     AOSYM     SMH    MOLCAS    OPER     JKOP   

              2      20       52.01       200      700     1000      520     4202     5202     2105     2102     5202(1)  2107   
                                        OPTIONS   GEOM     BASIS   MCVARS     RHF     MCSCF     RHF      RHF     MCSCF     RHF  
                                         2109     2111     2113     2115     2117     2123     2127     2119     2120     2121   
                                          RHF      RHF      RHF      RHF      RHF      RHF      RHF      RHF      RHF      RHF  

 PROGRAMS   *        TOTAL       RHF  RCCSD(T)       RHF  RCCSD(T)       RHF  RCCSD(T)       RHF     MULTI       POP       RHF
 CPU TIMES  *       500.38      0.90      4.54      1.10      6.54      0.92     10.00      0.10      1.37      0.00      1.04
 REAL TIME  *       674.21 SEC
 DISK USED  *         6.92 GB      
 SF USED    *         1.40 GB      
 GA USED    *         0.00 MB       (max)       0.00 MB       (current)
 **********************************************************************************************************************************
 SETTING SCF(15)        =       -31.40443028  AU                              
 SETTING _CC_NORM_MAX   =         2.00000000                                  


 PROGRAM * CCSD (Restricted open-shell coupled cluster)     Authors: C. Hampel, H.-J. Werner, 1991, M. Deegan, P.J. Knowles, 1992


 Convergence thresholds:  THRVAR = 1.00D-08  THRDEN = 1.00D-06

 CCSD(T)     terms to be evaluated (factor= 1.000)


 Number of closed-shell orbitals:   1 (   1   0   0   0   0   0   0   0 )
 Number of external orbitals:     346 (  77  60  60  24  60  24  24  17 )

 Memory could be reduced to 39.76 Mwords without degradation in triples

 Number of N-1 electron functions:               2
 Number of N-2 electron functions:               1
 Number of singly external CSFs:               154
 Number of doubly external CSFs:             18746
 Total number of CSFs:                       18900

 Molecular orbitals read from record     2121.2  Type=RHF/CANONICAL (state 1.1)

 Integral transformation finished. Total CPU:   0.22 sec, npass=  1  Memory used:   3.08 MW

 Starting RMP2 calculation

 Wavefunction is spin-projected

 ITER.      SQ.NORM     CORR.ENERGY   TOTAL ENERGY   ENERGY CHANGE        DEN1      VAR(S)    VAR(P)  DIIS     TIME
   1      1.00673040    -0.04530729   -31.44973757    -0.04530729    -0.00004073  0.15D-20  0.69D-05  1  1     0.24
   2      1.00674512    -0.04534937   -31.44977965    -0.00004209    -0.00000000  0.26D-24  0.12D-09  2  2     0.24
   3      1.00674516    -0.04534944   -31.44977972    -0.00000007    -0.00000000  0.15D-28  0.14D-14  3  3     0.24

 Norm of t1 vector:      0.00000000      S-energy:    -0.00000000      T1 diagnostic:  0.00000000
 Norm of t2 vector:      0.08212892      P-energy:    -0.04534944
                                         Alpha-Beta:  -0.04534944
                                         Alpha-Alpha:  0.00000000
                                         Beta-Beta:    0.00000000

 Spin contamination <S**2-Sz**2-Sz>     0.00000000
  Reference energy                    -31.404430278022
  RHF-RMP2 correlation energy          -0.045349444456
 !RHF-RMP2 energy                     -31.449779722477
 (NB above energy spin projected)

 Starting RCCSD calculation

 ITER.      SQ.NORM     CORR.ENERGY   TOTAL ENERGY   ENERGY CHANGE        DEN1      VAR(S)    VAR(P)  DIIS     TIME
   1      1.00862909    -0.04950349   -31.45393377    -0.04950349    -0.00138271  0.12D-05  0.22D-03  1  1     0.32
   2      1.00946677    -0.05122295   -31.45565322    -0.00171945    -0.00000742  0.68D-08  0.82D-06  2  2     0.40
   3      1.00951263    -0.05130239   -31.45573266    -0.00007944    -0.00000003  0.50D-10  0.27D-08  3  3     0.48
   4      1.00951237    -0.05130124   -31.45573152     0.00000115    -0.00000000  0.60D-13  0.42D-11  4  4     0.56
   5      1.00951242    -0.05130133   -31.45573161    -0.00000009    -0.00000000  0.11D-15  0.38D-14  5  5     0.64

 Norm of t1 vector:      0.00131175      S-energy:    -0.00000000      T1 diagnostic:  0.00065588
                                                                       D1 diagnostic:  0.00092755
 Norm of t2 vector:      0.09752282      P-energy:    -0.05130133
                                         Alpha-Beta:  -0.05130133
                                         Alpha-Alpha:  0.00000000
                                         Beta-Beta:    0.00000000

 Doubles amplitudes (print threshold =  0.500E-01):

         I         J         SYM. A    SYM. B    A         B      T(IJ, AB) [Alpha-Beta]

         1         1         2         2         1         1     -0.05382136
         1         1         3         3         1         1     -0.05382136
         1         1         5         5         1         1     -0.05382136

 Spin contamination <S**2-Sz**2-Sz>     0.00000000

 Memory could be reduced to 39.06 Mwords without degradation in triples
 

  Correlated core orbitals:             1.1
  Orbital energies:                   -15.1944
 
  RCCSD core-core energy               -0.051301331131
 

 RESULTS
 =======

  Reference energy                    -31.404430278022
  RCCSD singles energy                 -0.000000000018
  RCCSD pair energy                    -0.051301331113
  RCCSD correlation energy             -0.051301331131
  Triples (T) contribution              0.000000000000
  Total correlation energy             -0.051301331131
 
  RHF-RCCSD energy                    -31.455731609152
  RHF-RCCSD[T] energy                 -31.455731609152
  RHF-RCCSD-T energy                  -31.455731609152
 !RHF-RCCSD(T) energy                 -31.455731609152

 Program statistics:

 Available memory in ccsd:              1023999882
 Min. memory needed in ccsd:                533341
 Max. memory used in ccsd:                  533341
 Max. memory used in cckext:                893900 ( 5 integral passes)
 Max. memory used in cckint:               3079762 ( 1 integral passes)



 **********************************************************************************************************************************
 DATASETS  * FILE   NREC   LENGTH (MB)   RECORD NAMES
              1      20       46.45       500      610      700      900      950      970     1000      129      960     1100   
                                          VAR    BASINP    GEOM    SYMINP    ZMAT    AOBASIS   BASIS     P2S    ABASIS      S 
                                         1400     1410     1420     1200     1210     1080     1600     1650     1700     1380   
                                           T        V       ECP      H0       H01     AOSYM     SMH    MOLCAS    OPER     JKOP   

              2      20       52.01       200      700     1000      520     4202     5202     2105     2102     5202(1)  2107   
                                        OPTIONS   GEOM     BASIS   MCVARS     RHF     MCSCF     RHF      RHF     MCSCF     RHF  
                                         2109     2111     2113     2115     2117     2123     2127     2119     2120     2121   
                                          RHF      RHF      RHF      RHF      RHF      RHF      RHF      RHF      RHF      RHF  

 PROGRAMS   *        TOTAL  RCCSD(T)       RHF  RCCSD(T)       RHF  RCCSD(T)       RHF  RCCSD(T)       RHF     MULTI       POP
 CPU TIMES  *       501.45      1.07      0.90      4.54      1.10      6.54      0.92     10.00      0.10      1.37      0.00
 REAL TIME  *       675.66 SEC
 DISK USED  *         6.92 GB      
 SF USED    *         1.40 GB      
 GA USED    *         0.00 MB       (max)       0.00 MB       (current)
 **********************************************************************************************************************************
 SETTING CCSD(15)       =       -31.45573161  AU                              
 Output type csv         
                                                                                                                                                                                                                                                                

        SCF,CCSD
   -119.10756494,   -119.77349727
   -119.12259626,   -119.84996903
   -119.09359077,   -119.76154774
   -119.07471973,   -119.75586160
   -118.82649133,   -119.44352736
   -118.81797647,   -119.41672760
   -118.20714773,   -118.75698706
   -117.13257150,   -117.62717759
   -115.56169851,   -116.00805764
   -114.38503358,   -114.81411521
   -113.50291575,   -113.89374386
    -96.51233458,    -96.90779008
    -93.36493763,    -93.62470880
    -66.35551764,    -66.48009861
    -31.40443028,    -31.45573161
                                                  

 RCCSD(T)/USERDEF energy=    -31.455731609152

        RCCSD(T)        RHF-SCF         RCCSD(T)        RHF-SCF         RCCSD(T)        RHF-SCF         RCCSD(T)        RHF-SCF 
    -31.45573161    -31.40443028    -66.48009861    -66.35551764    -93.62470880    -93.36493763    -96.90779008    -96.51233458
 **********************************************************************************************************************************
 Molpro calculation terminated
 Variable memory released
