
 Primary working directories    : /global/cscratch1/sd/bkincaid
 Secondary working directories  : /global/cscratch1/sd/bkincaid
 Wavefunction directory         : /global/homes/b/bkincaid/wfu/
 Main file repository           : /global/cscratch1/sd/bkincaid/

 SHA1      : 19cd028119e0e09f93f0674bd8af7968d9b3eff6
 NAME      : 2015.1.36
 ARCHNAME  : linux/x86_64
 FC        : /opt/cray/pe/craype/2.5.14/bin/ftn
 BLASLIB   : -L/opt/intel/compilers_and_libraries_2018.1.163/linux/mkl/lib/intel64 -Wl,-_start-group -lmkl_intel_ilp64 -lmkl_intel_thread -lmkl_core -Wl,-_end-group -liomp5
 id        : lbl

 Nodes     nprocs
 nid12999    11
 Number of processes for MPI-2 version of Molpro:   nprocs(total)=   12   nprocs(compute)=   11   nprocs(helper)=    1

 Using customized tuning parameters: mindgm=7; mindgv=16; mindgc=1; mindgr=1; noblas=0; minvec=7
 default implementation of scratch files=sf  

 ***,Calculation for Pt atom, singlet and triplet
 memory,1024,m
 gthresh,twoint=1.0E-15
 gthresh,throvl=1.0E-15
 
 geometry={
 1
 Pt
 pt  0.0 0.0 0.0
 }
 
 set,dkroll=1,dkho=10,dkhp=4
 
 Including file /global/u1/b/bkincaid/molpro/Pt/atoms/AE/dkh/basis/7/states.proc
 
 basis={
 Including file /global/u1/b/bkincaid/molpro/Pt/atoms/AE/dkh/basis/7/aug-cc-pwCVTZ.basis
 }
 
 Idten
 
 do i=7,7
     if (i.eq.1) then
         Idten
     else if (i.eq.2) then
         EAs2d9
     else if (i.eq.3) then
         Is1d9
     else if (i.eq.4) then
         Is2d8
     else if (i.eq.5) then
         IId9
     else if (i.eq.6) then
         IIs1d8
     else if (i.eq.7) then
         IIId8
     else if (i.eq.8) then
         IVd7
     else if (i.eq.9) then
         Vd6
     else if (i.eq.10) then
         VId5
     else if (i.eq.11) then
         XIKr
     else if (i.eq.12) then
         XIVp3
     else if (i.eq.13) then
         XVIIs2
     else if (i.eq.14) then
         IIId5s2f1
     else if (i.eq.15) then
         Vd5f1
     endif
     scf(i)=energy
     _CC_NORM_MAX=2.0
     {rccsd(t),maxit=100;core}
     ccsd(i)=energy
 enddo
 
 table,scf,ccsd
 type,csv
 save

 Variables initialized (889), CPU time= 0.01 sec
 Commands  initialized (702), CPU time= 0.01 sec, 572 directives.
 Default parameters read. Elapsed time= 0.16 sec

 Checking input...
 Passed
1


                                         ***  PROGRAM SYSTEM MOLPRO  ***
                                       Copyright, TTI GmbH Stuttgart, 2015
                                    Version 2015.1 linked Dec 29 2018 15:55:43


 **********************************************************************************************************************************
 LABEL *   Calculation for Pt atom, singlet and triplet                                  
  64 bit mpp version                                                                     DATE: 29-Jul-21          TIME: 03:56:14  
 **********************************************************************************************************************************

 SHA1:             19cd028119e0e09f93f0674bd8af7968d9b3eff6
 **********************************************************************************************************************************

 THRESHOLDS:

 ZERO    =  1.00D-12  ONEINT  =  1.00D-12  TWOINT  =  1.00D-15  PREFAC  =  1.00D-14  LOCALI  =  1.00D-09  EORDER  =  1.00D-04
 ENERGY  =  0.00D+00  ETEST   =  0.00D+00  EDENS   =  0.00D+00  THRDEDEF=  1.00D-06  GRADIENT=  1.00D-02  STEP    =  1.00D-03
 ORBITAL =  1.00D-05  CIVEC   =  1.00D-05  COEFF   =  1.00D-04  PRINTCI =  5.00D-02  PUNCHCI =  9.90D+01  OPTGRAD =  3.00D-04
 OPTENERG=  1.00D-06  OPTSTEP =  3.00D-04  THRGRAD =  1.00D-10  COMPRESS=  1.00D-11  VARMIN  =  1.00D-07  VARMAX  =  1.00D-03
 THRDOUB =  0.00D+00  THRDIV  =  1.00D-05  THRRED  =  1.00D-07  THRPSP  =  1.00D+00  THRDC   =  1.00D-10  THRCS   =  1.00D-10
 THRNRM  =  1.00D-08  THREQ   =  0.00D+00  THRDE   =  1.00D+00  THRREF  =  1.00D-05  SPARFAC =  1.00D+00  THRDLP  =  1.00D-07
 THRDIA  =  1.00D-10  THRDLS  =  1.00D-07  THRGPS  =  0.00D+00  THRKEX  =  0.00D+00  THRDIS  =  2.00D-01  THRVAR  =  1.00D-10
 THRLOC  =  1.00D-06  THRGAP  =  1.00D-06  THRLOCT = -1.00D+00  THRGAPT = -1.00D+00  THRORB  =  1.00D-06  THRMLTP =  0.00D+00
 THRCPQCI=  1.00D-10  KEXTA   =  0.00D+00  THRCOARS=  0.00D+00  SYMTOL  =  1.00D-06  GRADTOL =  1.00D-06  THROVL  =  1.00D-08
 THRORTH =  1.00D-08  GRID    =  1.00D-06  GRIDMAX =  1.00D-03  DTMAX   =  0.00D+00  THROCCDE=  1.00D-01  THROCCDE=  1.00D-01



 THRESHOLDS:

 ZERO    =  1.00D-12  ONEINT  =  1.00D-12  TWOINT  =  1.00D-15  PREFAC  =  1.00D-14  LOCALI  =  1.00D-09  EORDER  =  1.00D-04
 ENERGY  =  0.00D+00  ETEST   =  0.00D+00  EDENS   =  0.00D+00  THRDEDEF=  1.00D-06  GRADIENT=  1.00D-02  STEP    =  1.00D-03
 ORBITAL =  1.00D-05  CIVEC   =  1.00D-05  COEFF   =  1.00D-04  PRINTCI =  5.00D-02  PUNCHCI =  9.90D+01  OPTGRAD =  3.00D-04
 OPTENERG=  1.00D-06  OPTSTEP =  3.00D-04  THRGRAD =  1.00D-10  COMPRESS=  1.00D-11  VARMIN  =  1.00D-07  VARMAX  =  1.00D-03
 THRDOUB =  0.00D+00  THRDIV  =  1.00D-05  THRRED  =  1.00D-07  THRPSP  =  1.00D+00  THRDC   =  1.00D-10  THRCS   =  1.00D-10
 THRNRM  =  1.00D-08  THREQ   =  0.00D+00  THRDE   =  1.00D+00  THRREF  =  1.00D-05  SPARFAC =  1.00D+00  THRDLP  =  1.00D-07
 THRDIA  =  1.00D-10  THRDLS  =  1.00D-07  THRGPS  =  0.00D+00  THRKEX  =  0.00D+00  THRDIS  =  2.00D-01  THRVAR  =  1.00D-10
 THRLOC  =  1.00D-06  THRGAP  =  1.00D-06  THRLOCT = -1.00D+00  THRGAPT = -1.00D+00  THRORB  =  1.00D-06  THRMLTP =  0.00D+00
 THRCPQCI=  1.00D-10  KEXTA   =  0.00D+00  THRCOARS=  0.00D+00  SYMTOL  =  1.00D-06  GRADTOL =  1.00D-06  THROVL  =  1.00D-15
 THRORTH =  1.00D-08  GRID    =  1.00D-06  GRIDMAX =  1.00D-03  DTMAX   =  0.00D+00  THROCCDE=  1.00D-01  THROCCDE=  1.00D-01



Geometry recognized as XYZ

 SETTING DKROLL         =         1.00000000                                  
 SETTING DKHO           =        10.00000000                                  
 SETTING DKHP           =         4.00000000                                  

 Variable memory set to 1024000000 words,  buffer space   230000 words

 SETTING BASIS          =    USERDEF

 Running procedure=IDTEN


 Recomputing integrals since basis changed


 Using spherical harmonics



 PROGRAM * SEWARD (Integral evaluation for generally contracted gaussian basis sets)     Author: Roland Lindh, 1990

 Geometry written to block  1 of record 700

 Orientation using atomic masses  
 Molecule type: Atom
 Symmetry elements: X,Y,Z
 Rotational constants:       0.0000000      0.0000000      0.0000000 GHz  (calculated with average atomic masses)

 Point group  D2h 



 ATOMIC COORDINATES

 NR  ATOM    CHARGE       X              Y              Z

   1  PT     78.00    0.000000000    0.000000000    0.000000000

 NUCLEAR CHARGE:                   78
 NUMBER OF PRIMITIVE AOS:         434
 NUMBER OF SYMMETRY AOS:          347
 NUMBER OF CONTRACTIONS:          347   (  78Ag  +  60B3u +  60B2u +  24B1g +  60B1u +  24B2g +  24B3g +  17Au  )
 NUMBER OF CORE ORBITALS:          34   (   9Ag  +   6B3u +   6B2u +   2B1g +   6B1u +   2B2g +   2B3g +   1Au  )
 NUMBER OF VALENCE ORBITALS:        6   (   3Ag  +   0B3u +   0B2u +   1B1g +   0B1u +   1B2g +   1B3g +   0Au  )


 NUCLEAR REPULSION ENERGY    0.00000000

 One-electron integrals computed with SEWARD

 10nd-order Douglas-Kroll-Hess method activated. McWeeny DKH parametrization is used.

 Computing Douglas-Kroll / X2C integrals

 AO integral compression algorithm  1   Integral accuracy      1.0D-15

     1918.632 MB (compressed) written to integral file ( 47.7%)

     Node minimum: 88.867 MB, node maximum: 291.766 MB


 NUMBER OF SORTED TWO-ELECTRON INTEGRALS:   21372670.     BUFFER LENGTH:  32768
 NUMBER OF SEGMENTS:   1  SEGMENT LENGTH:   21372670      RECORD LENGTH: 524288

 Memory used in sort:      21.93 MW

 SORT1 READ   502828645. AND WROTE    14003921. INTEGRALS IN     41 RECORDS. CPU TIME:    11.78 SEC, REAL TIME:    12.41 SEC
 SORT2 READ   153399602. AND WROTE   235142862. INTEGRALS IN   5995 RECORDS. CPU TIME:     0.64 SEC, REAL TIME:     1.90 SEC

 Node minimum:    21275732.  Node maximum:    21480371. integrals

 OPERATOR DM      FOR CENTER  0  COORDINATES:    0.000000    0.000000    0.000000

 EXTRA SYMMETRY OF AOS IN SYMMETRY 1:   1 1 1 1 1 1 1 1 1 1   1 1 1 1 1 1 1 1 1 1   1 1 1 1 1 1 1 1 1 1   1 1 1 2 3 2 3 2 3 2
                                        3 2 3 2 3 2 3 2 3 2   3 2 3 2 3 2 3 2 3 2   3 2 3 2 3 2 3 2 3 4   5 6 4 5 6 4 5 6
 EXTRA SYMMETRY OF AOS IN SYMMETRY 2:   1 1 1 1 1 1 1 1 1 1   1 1 1 1 1 1 1 1 1 1   1 1 1 1 1 1 2 3 2 3   2 3 2 3 2 3 2 3 2 3
                                        2 3 2 3 2 3 2 3 2 3   2 3 2 3 2 3 2 3 2 3
 EXTRA SYMMETRY OF AOS IN SYMMETRY 3:   1 1 1 1 1 1 1 1 1 1   1 1 1 1 1 1 1 1 1 1   1 1 1 1 1 1 2 3 2 3   2 3 2 3 2 3 2 3 2 3
                                        2 3 2 3 2 3 2 3 2 3   2 3 2 3 2 3 2 3 2 3
 EXTRA SYMMETRY OF AOS IN SYMMETRY 4:   1 1 1 1 1 1 1 1 1 1   1 1 1 1 1 1 1 1 2 3   2 3 2 3
 EXTRA SYMMETRY OF AOS IN SYMMETRY 5:   1 1 1 1 1 1 1 1 1 1   1 1 1 1 1 1 1 1 1 1   1 1 1 1 1 1 2 3 2 3   2 3 2 3 2 3 2 3 2 3
                                        2 3 2 3 2 3 2 3 2 3   2 3 2 3 2 3 2 3 2 3
 EXTRA SYMMETRY OF AOS IN SYMMETRY 6:   1 1 1 1 1 1 1 1 1 1   1 1 1 1 1 1 1 1 2 3   2 3 2 3
 EXTRA SYMMETRY OF AOS IN SYMMETRY 7:   1 1 1 1 1 1 1 1 1 1   1 1 1 1 1 1 1 1 2 3   2 3 2 3

 Eigenvalues of metric

         1 0.632E-05 0.391E-04 0.662E-04 0.117E-03 0.187E-03 0.332E-03 0.599E-03 0.825E-03
         2 0.139E-04 0.272E-03 0.963E-03 0.191E-02 0.191E-02 0.243E-02 0.243E-02 0.245E-02
         3 0.139E-04 0.272E-03 0.963E-03 0.191E-02 0.191E-02 0.243E-02 0.243E-02 0.245E-02
         4 0.825E-03 0.217E-02 0.713E-02 0.171E-01 0.337E-01 0.649E-01 0.119E+00 0.188E+00
         5 0.139E-04 0.272E-03 0.963E-03 0.191E-02 0.191E-02 0.243E-02 0.243E-02 0.245E-02
         6 0.825E-03 0.217E-02 0.713E-02 0.171E-01 0.337E-01 0.649E-01 0.119E+00 0.188E+00
         7 0.825E-03 0.217E-02 0.713E-02 0.171E-01 0.337E-01 0.649E-01 0.119E+00 0.188E+00
         8 0.191E-02 0.243E-02 0.658E-02 0.118E-01 0.266E-01 0.456E-01 0.920E-01 0.173E+00


 **********************************************************************************************************************************
 DATASETS  * FILE   NREC   LENGTH (MB)   RECORD NAMES
              1      22       21.27       500      610      700      900      950      970     1000      129      960     1700   
                                          VAR    BASINP    GEOM    SYMINP    ZMAT    AOBASIS   BASIS     P2S    ABASIS    OPER   
                                         1101     1401     1411     1412     1650     1100     1400     1410     1200     1210   
                                          SR      EKINR    POTR     PVPR    MOLCAS      S      EKIN      POT      H0       H01  
                                         1080     1600   
                                         AOSYM     SMH  

 PROGRAMS   *        TOTAL       INT
 CPU TIMES  *        76.65     76.07
 REAL TIME  *        82.04 SEC
 DISK USED  *         3.76 GB      
 GA USED    *         0.00 MB       (max)       0.00 MB       (current)
 **********************************************************************************************************************************


 PROGRAM * RHF-SCF (CLOSED SHELL)       Authors: W. Meyer, H.-J. Werner


 NUMBER OF ELECTRONS:      39+   39-    SPACE SYMMETRY=1    SPIN SYMMETRY: Singlet 
 CONVERGENCE THRESHOLDS:    1.00E-05 (Density)    1.56E-07 (Energy)
 MAX. NUMBER OF ITERATIONS:       60
 INTERPOLATION TYPE:            DIIS
 INTERPOLATION STEPS:              2 (START)      1 (STEP)
 LEVEL SHIFTS:                  0.00 (CLOSED)  0.00 (OPEN) 

 Number of closed-shell orbitals:   39 (  11   6   6   3   6   3   3   1 )


 
 Extra symmetries of mos in symmetry 1:   1   1   1   3   2   1   3   2   1   3   2
 Orbital guess generated from atomic densities. Full valence occupancy:   12   6   6   3   6   3   3   1


 Molecular orbital dump at record        4202.2

 ITERATION    DDIFF          GRAD             ENERGY        2-EL.EN.            DIPOLE MOMENTS         DIIS   ORB.
    1      0.000D+00      0.000D+00    -18393.29360298  12838.146872    0.00000    0.00000    0.00000    0    start
    2      0.000D+00      0.559D-01    -18406.23619636  14248.636669    0.00000    0.00000    0.00000    1    diag
    3      0.121D+00      0.122D+00    -18410.46186033  14012.245167    0.00000    0.00000    0.00000    2    diag
    4      0.121D-01      0.566D-01    -18412.21254124  13885.470495    0.00000    0.00000    0.00000    3    diag
    5      0.818D-02      0.309D-01    -18412.96687392  13782.039535    0.00000    0.00000    0.00000    4    diag
    6      0.573D-02      0.119D-01    -18413.13071143  13714.774033    0.00000    0.00000    0.00000    5    diag
    7      0.331D-02      0.119D-02    -18413.13458523  13702.688839    0.00000    0.00000    0.00000    6    diag
    8      0.826D-03      0.624D-03    -18413.13494339  13705.160727    0.00000    0.00000    0.00000    7    diag
    9      0.190D-03      0.158D-03    -18413.13496287  13705.735093    0.00000    0.00000    0.00000    8    diag
   10      0.498D-04      0.375D-04    -18413.13496406  13705.922531    0.00000    0.00000    0.00000    9    orth
   11      0.100D-04      0.465D-05    -18413.13496408  13705.947627    0.00000    0.00000    0.00000    9    diag
   12      0.124D-05      0.343D-06    -18413.13496408  13705.951376    0.00000    0.00000    0.00000    0    orth

 Final occupancy:  11   6   6   3   6   3   3   1

 !RHF STATE 1.1 Energy               -18413.1349640783    
 Nuclear energy                         0.00000000
 One-electron energy               -25266.11065220
 Two-electron energy                 6852.97568812
 Virial quotient                       -0.67629514
 !RHF STATE 1.1 Dipole moment           0.00000000     0.00000000     0.00000000
 Dipole moment /Debye                   0.00000000     0.00000000     0.00000000

 ELECTRON ORBITALS
 =================


   Orb  Occ    Energy  Couls-En    Coefficients

                                   1 1s      1 1s      1 1s      1 1s      1 1s      1 1s      1 1s      1 1s      1 1s      1 1s   
                                   1 1s      1 1s      1 1s      1 1s      1 1s      1 1s      1 1s      1 1s      1 1s      1 1s   
                                   1 1s      1 1s      1 1s      1 1s      1 1s      1 1s      1 1s      1 1s      1 1s      1 1s   
                                   1 1s      1 1s      1 1s      1 3d0     1 3d2+    1 3d0     1 3d2+    1 3d0     1 3d2+    1 3d0  
                                   1 3d2+    1 3d0     1 3d2+    1 3d0     1 3d2+    1 3d0     1 3d2+    1 3d0     1 3d2+    1 3d0  
                                   1 3d2+    1 3d0     1 3d2+    1 3d0     1 3d2+    1 3d0     1 3d2+    1 3d0     1 3d2+    1 3d0  
                                   1 3d2+    1 3d0     1 3d2+    1 3d0     1 3d2+    1 3d0     1 3d2+    1 3d0     1 3d2+    1 5g0  
                                   1 5g4+    1 5g2+    1 5g0     1 5g4+    1 5g2+    1 5g0     1 5g4+    1 5g2+ 

   1.1   2 -2897.4829-6235.8506  0.000912  0.000995  0.002594  0.003050  0.006001  0.007586  0.013714  0.020199  0.035192  0.057528
                                 0.098418  0.159082  0.235954  0.276414  0.213081  0.079083  0.011106 -0.000671  0.001102 -0.000954
                                 0.000573 -0.000313  0.000168 -0.000094  0.000056 -0.000035  0.000016 -0.000014  0.000022 -0.000015
                                 0.000004 -0.000001  0.000000 -0.000000  0.000000 -0.000000 -0.000000 -0.000000  0.000000 -0.000000
                                -0.000000  0.000000  0.000000 -0.000000 -0.000000  0.000000  0.000000 -0.000000 -0.000000  0.000000
                                 0.000000 -0.000000 -0.000000  0.000000  0.000000 -0.000000 -0.000000  0.000000  0.000000 -0.000000
                                -0.000000  0.000000  0.000000 -0.000000 -0.000000  0.000000  0.000000 -0.000000 -0.000000 -0.000000
                                 0.000000  0.000000  0.000000 -0.000000 -0.000000 -0.000000  0.000000  0.000000

   2.1   2  -514.3606-1365.1542 -0.000352 -0.000384 -0.001004 -0.001184 -0.002335 -0.002971 -0.005401 -0.008047 -0.014215 -0.023796
                                -0.042178 -0.072301 -0.117871 -0.159204 -0.133029  0.049153  0.335375  0.439809  0.258780  0.065707
                                 0.004326  0.000519 -0.000387  0.000089 -0.000073  0.000054 -0.000021  0.000020 -0.000031  0.000021
                                -0.000005  0.000002 -0.000000  0.000000 -0.000000  0.000000 -0.000000  0.000000  0.000000  0.000000
                                 0.000000  0.000000 -0.000000  0.000000  0.000000  0.000000 -0.000000  0.000000  0.000000 -0.000000
                                -0.000000  0.000000  0.000000 -0.000000 -0.000000  0.000000 -0.000000 -0.000000 -0.000000  0.000000
                                -0.000000 -0.000000  0.000000  0.000000 -0.000000 -0.000000  0.000000  0.000000  0.000000 -0.000000
                                 0.000000 -0.000000 -0.000000  0.000000 -0.000000  0.000000 -0.000000 -0.000000

   3.1   2  -123.2000 -483.1964  0.000168  0.000184  0.000480  0.000567  0.001118  0.001424  0.002591  0.003867  0.006847  0.011508
                                 0.020518  0.035540  0.058924  0.081839  0.069676 -0.041622 -0.276916 -0.457184 -0.297020  0.252727
                                 0.707860  0.407571  0.048686 -0.000540  0.000823 -0.000466  0.000115 -0.000117  0.000173 -0.000119
                                 0.000028 -0.000009  0.000002 -0.000000  0.000000  0.000000 -0.000000 -0.000000  0.000000  0.000000
                                 0.000000 -0.000000  0.000000 -0.000000  0.000000  0.000000  0.000000  0.000000 -0.000000  0.000000
                                 0.000000 -0.000000 -0.000000  0.000000  0.000000 -0.000000 -0.000000  0.000000  0.000000 -0.000000
                                -0.000000  0.000000  0.000000 -0.000000 -0.000000  0.000000  0.000000 -0.000000 -0.000000  0.000000
                                -0.000000  0.000000 -0.000000  0.000000 -0.000000  0.000000 -0.000000  0.000000

   4.1   2   -80.7528 -408.3880  0.000000 -0.000000  0.000000 -0.000000 -0.000000  0.000000 -0.000000  0.000000  0.000000 -0.000000
                                 0.000000 -0.000000  0.000000 -0.000000 -0.000000  0.000000  0.000000 -0.000000  0.000000 -0.000000
                                 0.000000  0.000000 -0.000000  0.000000 -0.000000  0.000000 -0.000000  0.000000 -0.000000  0.000000
                                -0.000000  0.000000 -0.000000  0.000000  0.000145  0.000000  0.001037  0.000000  0.005638  0.000000
                                 0.023582  0.000000  0.078156  0.000000  0.195505  0.000000  0.336019  0.000000  0.355839  0.000000
                                 0.185315  0.000000  0.036343  0.000000  0.002071  0.000000  0.000308 -0.000000 -0.000026  0.000000
                                 0.000029 -0.000000 -0.000010  0.000000  0.000002 -0.000000 -0.000000  0.000000  0.000000  0.000000
                                -0.000000  0.000000 -0.000000  0.000000 -0.000000  0.000000 -0.000000  0.000000

   5.1   2   -80.7528 -408.3880 -0.000000 -0.000000 -0.000000 -0.000000 -0.000000 -0.000000 -0.000000 -0.000000 -0.000000 -0.000000
                                -0.000000 -0.000000 -0.000000 -0.000000 -0.000000  0.000000  0.000000  0.000000  0.000000 -0.000000
                                -0.000000  0.000000  0.000000  0.000000 -0.000000  0.000000  0.000000  0.000000 -0.000000  0.000000
                                -0.000000  0.000000 -0.000000  0.000145 -0.000000  0.001037 -0.000000  0.005638 -0.000000  0.023582
                                -0.000000  0.078156 -0.000000  0.195505 -0.000000  0.336019 -0.000000  0.355839 -0.000000  0.185315
                                -0.000000  0.036343 -0.000000  0.002071 -0.000000  0.000308 -0.000000 -0.000026  0.000000  0.000029
                                -0.000000 -0.000010  0.000000  0.000002 -0.000000 -0.000000  0.000000  0.000000 -0.000000  0.000000
                                 0.000000 -0.000000 -0.000000 -0.000000  0.000000  0.000000  0.000000 -0.000000

   6.1   2   -27.7000 -208.9695 -0.000084 -0.000092 -0.000239 -0.000282 -0.000557 -0.000709 -0.001291 -0.001927 -0.003415 -0.005744
                                -0.010259 -0.017809 -0.029664 -0.041451 -0.035541  0.023575  0.157624  0.277968  0.190031 -0.219343
                                -0.851503 -0.475406  0.709883  0.760702  0.115974 -0.006643  0.003221 -0.001600  0.002391 -0.001627
                                 0.000375 -0.000119  0.000033  0.000000 -0.000000 -0.000000  0.000000  0.000000  0.000000 -0.000000
                                -0.000000  0.000000  0.000000 -0.000000 -0.000000  0.000000  0.000000 -0.000000 -0.000000 -0.000000
                                 0.000000 -0.000000 -0.000000  0.000000  0.000000 -0.000000 -0.000000 -0.000000  0.000000  0.000000
                                -0.000000 -0.000000  0.000000  0.000000  0.000000 -0.000000 -0.000000  0.000000  0.000000  0.000000
                                -0.000000  0.000000 -0.000000  0.000000 -0.000000  0.000000 -0.000000  0.000000

   7.1   2   -12.5982 -169.4932  0.000000 -0.000000  0.000000 -0.000000  0.000000  0.000000 -0.000000  0.000000 -0.000000  0.000000
                                 0.000000  0.000000  0.000000  0.000000 -0.000000  0.000000 -0.000000  0.000000 -0.000000  0.000000
                                -0.000000  0.000000 -0.000000  0.000000 -0.000000  0.000000 -0.000000  0.000000 -0.000000  0.000000
                                -0.000000  0.000000 -0.000000  0.000000 -0.000075  0.000000 -0.000534  0.000000 -0.002921  0.000000
                                -0.012296  0.000000 -0.041434  0.000000 -0.105192  0.000000 -0.178271  0.000000 -0.151897 -0.000000
                                 0.113226 -0.000000  0.426114 -0.000000  0.430159 -0.000000  0.164897 -0.000000  0.016581 -0.000000
                                 0.001370  0.000000 -0.000182 -0.000000  0.000221  0.000000 -0.000055 -0.000000  0.000017 -0.000000
                                -0.000000  0.000000  0.000000  0.000000 -0.000000 -0.000000 -0.000000  0.000000

   8.1   2   -12.5982 -169.4932  0.000000  0.000000  0.000000  0.000000  0.000000  0.000000  0.000000  0.000000  0.000000  0.000000
                                 0.000000  0.000000  0.000000  0.000000  0.000000 -0.000000 -0.000000 -0.000000 -0.000000  0.000000
                                 0.000000  0.000000 -0.000001 -0.000000  0.000001 -0.000000  0.000000 -0.000000  0.000000 -0.000000
                                 0.000000 -0.000000  0.000000 -0.000075 -0.000000 -0.000534 -0.000000 -0.002921 -0.000000 -0.012296
                                -0.000000 -0.041434 -0.000000 -0.105192 -0.000000 -0.178271 -0.000000 -0.151897 -0.000000  0.113226
                                 0.000000  0.426114  0.000000  0.430159  0.000000  0.164897  0.000000  0.016581  0.000000  0.001370
                                 0.000000 -0.000182 -0.000000  0.000221  0.000000 -0.000055 -0.000000  0.000017  0.000000  0.000000
                                 0.000000 -0.000000 -0.000000 -0.000000 -0.000000  0.000000  0.000000  0.000000

   9.1   2    -4.2968  -91.3853  0.000036  0.000039  0.000102  0.000120  0.000237  0.000302  0.000549  0.000820  0.001454  0.002446
                                 0.004369  0.007590  0.012654  0.017713  0.015203 -0.010315 -0.069343 -0.123872 -0.087158  0.108331
                                 0.448989  0.247851 -0.529405 -0.868037  0.115911  0.840890  0.445880  0.052122 -0.030633  0.017571
                                -0.003095  0.000896 -0.000239 -0.000000  0.000000 -0.000000  0.000000 -0.000000  0.000000 -0.000000
                                 0.000000 -0.000000  0.000000 -0.000000  0.000000 -0.000000  0.000000 -0.000000 -0.000000  0.000000
                                 0.000000  0.000000 -0.000000  0.000000  0.000000 -0.000000 -0.000000 -0.000001  0.000000 -0.000001
                                -0.000000 -0.000000  0.000000  0.000000 -0.000000  0.000000 -0.000000  0.000000  0.000000 -0.000000
                                 0.000000  0.000000 -0.000000  0.000000 -0.000000  0.000000 -0.000000  0.000000

  10.1   2    -0.3223  -53.7741 -0.000000 -0.000000 -0.000000 -0.000000 -0.000000 -0.000000 -0.000000 -0.000000 -0.000000 -0.000000
                                -0.000000 -0.000000 -0.000000 -0.000000 -0.000000  0.000000  0.000000  0.000000  0.000000 -0.000000
                                -0.000000 -0.000000  0.000000  0.000000  0.000000 -0.000000 -0.000000  0.000000  0.000000  0.000000
                                 0.000000  0.000000  0.000000  0.000000  0.000020  0.000000  0.000147  0.000000  0.000802  0.000000
                                 0.003399  0.000000  0.011423  0.000000  0.029250  0.000000  0.049057  0.000000  0.040262 -0.000000
                                -0.046686 -0.000000 -0.141927 -0.000000 -0.144391  0.000000  0.085974  0.000000  0.289402  0.000000
                                 0.162682  0.000000  0.318014  0.000000  0.282288  0.000000  0.133909  0.000000  0.004264 -0.000000
                                -0.000000 -0.000000 -0.000000 -0.000000 -0.000000 -0.000000 -0.000000 -0.000002

  11.1   2    -0.3223  -53.7740 -0.000000 -0.000000 -0.000000 -0.000000 -0.000000 -0.000000 -0.000000 -0.000000 -0.000000 -0.000000
                                -0.000000 -0.000000 -0.000000 -0.000001 -0.000001  0.000000  0.000003  0.000005  0.000003 -0.000004
                                -0.000018 -0.000010  0.000023  0.000041 -0.000010 -0.000056 -0.000041  0.000023  0.000029  0.000067
                                 0.000048  0.000002  0.000000  0.000020 -0.000000  0.000147 -0.000000  0.000802 -0.000000  0.003399
                                -0.000000  0.011423 -0.000000  0.029250 -0.000000  0.049057 -0.000000  0.040262 -0.000000 -0.046686
                                 0.000000 -0.141927  0.000000 -0.144391  0.000000  0.085974 -0.000000  0.289402 -0.000000  0.162682
                                -0.000000  0.318013 -0.000000  0.282287 -0.000000  0.133912 -0.000000  0.004266 -0.000000 -0.000000
                                -0.000000 -0.000000 -0.000001 -0.000000 -0.000000 -0.000003  0.000000  0.000000

  12.1   0    -0.0067  -18.5436 -0.000006 -0.000006 -0.000016 -0.000019 -0.000037 -0.000047 -0.000086 -0.000128 -0.000227 -0.000383
                                -0.000682 -0.001188 -0.001975 -0.002780 -0.002354  0.001555  0.011060  0.019116  0.014568 -0.018658
                                -0.070691 -0.042397  0.093435  0.157402 -0.026268 -0.225612 -0.136770 -0.037155  0.374175 -0.230219
                                 0.536600 -0.146122  0.699116 -0.000000 -0.000000 -0.000000 -0.000000 -0.000000 -0.000000 -0.000000
                                -0.000000 -0.000001 -0.000000 -0.000003 -0.000000 -0.000005 -0.000000 -0.000004 -0.000000  0.000005
                                 0.000000  0.000014  0.000000  0.000015  0.000000 -0.000009 -0.000000 -0.000029 -0.000000 -0.000017
                                -0.000000 -0.000031 -0.000000 -0.000033 -0.000000 -0.000022 -0.000000 -0.000018 -0.000000 -0.000000
                                 0.000000 -0.000000 -0.000000  0.000000  0.000000  0.000000 -0.000000  0.000000

  13.1   0     0.0228   -9.8075  0.000004  0.000004  0.000010  0.000012  0.000024  0.000030  0.000056  0.000082  0.000148  0.000245
                                 0.000448  0.000756  0.001309  0.001724  0.001717 -0.001509 -0.005885 -0.015337 -0.003485  0.002208
                                 0.059288  0.010994 -0.036910 -0.137677  0.081694  0.042242  0.234384 -0.634308  2.256291 -2.980720
                                 2.245608 -3.904599  3.019419  0.000000 -0.000000  0.000000 -0.000000  0.000000 -0.000000  0.000000
                                -0.000000  0.000001 -0.000000  0.000002 -0.000000  0.000003 -0.000000  0.000002 -0.000000 -0.000002
                                -0.000000 -0.000007  0.000000 -0.000008 -0.000000  0.000004  0.000000  0.000015 -0.000000  0.000008
                                 0.000000  0.000016 -0.000000  0.000017  0.000000  0.000014 -0.000000  0.000008  0.000000  0.000000
                                -0.000000 -0.000000  0.000000 -0.000000  0.000000 -0.000000  0.000000 -0.000000

                                   1 2px     1 2px     1 2px     1 2px     1 2px     1 2px     1 2px     1 2px     1 2px     1 2px  
                                   1 2px     1 2px     1 2px     1 2px     1 2px     1 2px     1 2px     1 2px     1 2px     1 2px  
                                   1 2px     1 2px     1 2px     1 2px     1 2px     1 2px     1 4f1+    1 4f3+    1 4f1+    1 4f3+ 
                                   1 4f1+    1 4f3+    1 4f1+    1 4f3+    1 4f1+    1 4f3+    1 4f1+    1 4f3+    1 4f1+    1 4f3+ 
                                   1 4f1+    1 4f3+    1 4f1+    1 4f3+    1 4f1+    1 4f3+    1 4f1+    1 4f3+    1 4f1+    1 4f3+ 
                                   1 4f1+    1 4f3+    1 4f1+    1 4f3+    1 4f1+    1 4f3+    1 4f1+    1 4f3+    1 4f1+    1 4f3+ 


   1.2   2  -447.2542-1242.7445  0.000024  0.000060  0.000175  0.000451  0.001166  0.002998  0.007814  0.020403  0.051865  0.121212
                                 0.236303  0.341001  0.286419  0.074235  0.058379 -0.003656  0.004717 -0.002132  0.001000 -0.000561
                                 0.000288 -0.000130  0.000051 -0.000020  0.000008 -0.000003 -0.000000  0.000000  0.000000  0.000000
                                 0.000000 -0.000000  0.000000  0.000000  0.000000  0.000000  0.000000 -0.000000  0.000000 -0.000000
                                 0.000000 -0.000000 -0.000000  0.000000 -0.000000  0.000000 -0.000000  0.000000 -0.000000 -0.000000
                                -0.000000  0.000000  0.000000 -0.000000 -0.000000 -0.000000  0.000000 -0.000000 -0.000000  0.000000

   2.2   2  -103.2572 -444.5612 -0.000012 -0.000031 -0.000090 -0.000232 -0.000603 -0.001555 -0.004090 -0.010764 -0.027981 -0.067087
                                -0.137650 -0.204137 -0.146061  0.123586  0.095112  0.490348  0.369889  0.071939  0.007055 -0.001238
                                 0.000764 -0.000418  0.000144 -0.000063  0.000026 -0.000008  0.000000 -0.000000  0.000000 -0.000000
                                -0.000000  0.000000  0.000000 -0.000000  0.000000 -0.000000  0.000000 -0.000000  0.000000  0.000000
                                -0.000000  0.000000  0.000000 -0.000000  0.000000 -0.000000  0.000000 -0.000000 -0.000000  0.000000
                                 0.000000 -0.000000 -0.000000  0.000000  0.000000  0.000000 -0.000000  0.000000  0.000000 -0.000000

   3.2   2   -21.0232 -190.9992  0.000006  0.000015  0.000044  0.000115  0.000298  0.000770  0.002031  0.005355  0.013996  0.033761
                                 0.070180  0.104868  0.069898 -0.097653 -0.077798 -0.400800 -0.233493  0.414380  0.612961  0.216141
                                 0.013054  0.001935 -0.000305  0.000191 -0.000074  0.000023  0.000000 -0.000000  0.000000  0.000000
                                 0.000000 -0.000000  0.000000  0.000000  0.000000  0.000000  0.000000  0.000000  0.000000  0.000000
                                 0.000000  0.000000  0.000000 -0.000000 -0.000000 -0.000000 -0.000000  0.000000  0.000000 -0.000000
                                -0.000000  0.000000  0.000000 -0.000000 -0.000000  0.000000  0.000000 -0.000000 -0.000000  0.000000

   4.2   2    -3.2384 -142.5912  0.000000  0.000000  0.000000  0.000000  0.000000  0.000000  0.000000  0.000000  0.000000  0.000000
                                 0.000000  0.000000  0.000000 -0.000000 -0.000000 -0.000000 -0.000000  0.000000  0.000000  0.000000
                                -0.000001 -0.000001  0.000000  0.000000  0.000000  0.000000  0.000215  0.000000  0.001990  0.000001
                                 0.000005  0.000000  0.011257  0.000004  0.042360  0.000017  0.114350  0.000045  0.223439  0.000088
                                 0.311402  0.000122  0.320162  0.000126  0.225476  0.000089  0.089076  0.000035 -0.000313 -0.000000
                                 0.015282  0.000006 -0.007196 -0.000003  0.003987  0.000002 -0.002339 -0.000001  0.001136  0.000000

   5.2   2    -3.2384 -142.5911  0.000000  0.000000  0.000000  0.000000  0.000000  0.000000  0.000000  0.000000  0.000000  0.000000
                                 0.000000  0.000000  0.000000 -0.000000 -0.000000 -0.000000 -0.000000  0.000000  0.000000 -0.000000
                                -0.000000  0.000000  0.000000 -0.000000 -0.000000 -0.000000 -0.000000  0.000215 -0.000001  0.001990
                                -0.000000  0.000005 -0.000004  0.011257 -0.000017  0.042360 -0.000045  0.114350 -0.000088  0.223439
                                -0.000122  0.311402 -0.000126  0.320162 -0.000089  0.225476 -0.000035  0.089076  0.000000 -0.000313
                                -0.000006  0.015282  0.000003 -0.007196 -0.000002  0.003987  0.000001 -0.002339 -0.000000  0.001136

   6.2   2    -2.4668  -79.0832 -0.000002 -0.000006 -0.000017 -0.000045 -0.000117 -0.000301 -0.000795 -0.002092 -0.005490 -0.013211
                                -0.027685 -0.041031 -0.028198  0.046017  0.025709  0.183044  0.082450 -0.237259 -0.429772 -0.006048
                                 0.520500  0.504897  0.153305  0.000300  0.003437 -0.001033  0.000000 -0.000000  0.000000 -0.000000
                                -0.000000 -0.000000  0.000000 -0.000000  0.000000 -0.000000  0.000000 -0.000000  0.000000 -0.000000
                                 0.000000 -0.000000  0.000000 -0.000000  0.000000  0.000000 -0.000000  0.000000 -0.000001  0.000000
                                -0.000000  0.000000  0.000000 -0.000000  0.000000 -0.000000  0.000000 -0.000000 -0.000000 -0.000000

   7.2   0     0.0379  -10.1266  0.000000  0.000000  0.000001  0.000002  0.000005  0.000013  0.000033  0.000092  0.000227  0.000586
                                 0.001112  0.001974  0.000281  0.001348 -0.007405 -0.001695 -0.008963  0.017738  0.008778  0.016094
                                -0.055665  0.013410 -0.072656  0.189251 -0.389390  1.219989 -0.000000  0.000000 -0.000000  0.000000
                                -0.000000 -0.000000 -0.000000  0.000000 -0.000000  0.000000 -0.000000  0.000000 -0.000000  0.000000
                                -0.000000  0.000000 -0.000000  0.000000  0.000000  0.000000 -0.000000 -0.000000  0.000001 -0.000000
                                -0.000001 -0.000000  0.000002 -0.000000 -0.000003 -0.000000  0.000007 -0.000000 -0.000012 -0.000000

   8.2   0     0.1363  -16.3857 -0.000000 -0.000001 -0.000002 -0.000006 -0.000015 -0.000039 -0.000107 -0.000269 -0.000746 -0.001672
                                -0.003861 -0.004731 -0.006511  0.016255 -0.015746  0.043303 -0.005894 -0.010765 -0.093224  0.054219
                                 0.003273  0.219619 -0.207539  0.416310 -1.836431  1.090211  0.000000 -0.000000  0.000000 -0.000000
                                 0.000000  0.000000  0.000000 -0.000000  0.000000 -0.000000  0.000000 -0.000000  0.000000 -0.000000
                                 0.000000 -0.000000  0.000000 -0.000000 -0.000000 -0.000000  0.000000  0.000000 -0.000002 -0.000000
                                 0.000002  0.000000 -0.000005 -0.000000  0.000010  0.000000 -0.000014 -0.000000  0.000025  0.000000

                                   1 2py     1 2py     1 2py     1 2py     1 2py     1 2py     1 2py     1 2py     1 2py     1 2py  
                                   1 2py     1 2py     1 2py     1 2py     1 2py     1 2py     1 2py     1 2py     1 2py     1 2py  
                                   1 2py     1 2py     1 2py     1 2py     1 2py     1 2py     1 4f1-    1 4f3-    1 4f1-    1 4f3- 
                                   1 4f1-    1 4f3-    1 4f1-    1 4f3-    1 4f1-    1 4f3-    1 4f1-    1 4f3-    1 4f1-    1 4f3- 
                                   1 4f1-    1 4f3-    1 4f1-    1 4f3-    1 4f1-    1 4f3-    1 4f1-    1 4f3-    1 4f1-    1 4f3- 
                                   1 4f1-    1 4f3-    1 4f1-    1 4f3-    1 4f1-    1 4f3-    1 4f1-    1 4f3-    1 4f1-    1 4f3- 


   1.3   2  -447.2542-1242.7445  0.000024  0.000060  0.000175  0.000451  0.001166  0.002998  0.007814  0.020403  0.051865  0.121212
                                 0.236303  0.341001  0.286419  0.074235  0.058379 -0.003656  0.004717 -0.002132  0.001000 -0.000561
                                 0.000288 -0.000130  0.000051 -0.000020  0.000008 -0.000003 -0.000000 -0.000000  0.000000 -0.000000
                                 0.000000  0.000000  0.000000 -0.000000  0.000000 -0.000000  0.000000  0.000000  0.000000  0.000000
                                 0.000000  0.000000 -0.000000 -0.000000 -0.000000 -0.000000 -0.000000 -0.000000 -0.000000  0.000000
                                -0.000000 -0.000000  0.000000  0.000000 -0.000000  0.000000  0.000000  0.000000 -0.000000 -0.000000

   2.3   2  -103.2572 -444.5612 -0.000012 -0.000031 -0.000090 -0.000232 -0.000603 -0.001555 -0.004090 -0.010764 -0.027981 -0.067087
                                -0.137650 -0.204137 -0.146061  0.123586  0.095112  0.490348  0.369889  0.071939  0.007055 -0.001238
                                 0.000764 -0.000418  0.000144 -0.000063  0.000026 -0.000008  0.000000  0.000000  0.000000  0.000000
                                -0.000000 -0.000000  0.000000  0.000000  0.000000  0.000000  0.000000  0.000000  0.000000 -0.000000
                                -0.000000 -0.000000  0.000000  0.000000  0.000000  0.000000  0.000000  0.000000 -0.000000 -0.000000
                                 0.000000  0.000000 -0.000000 -0.000000  0.000000 -0.000000 -0.000000 -0.000000  0.000000  0.000000

   3.3   2   -21.0232 -190.9992  0.000006  0.000015  0.000044  0.000115  0.000298  0.000770  0.002031  0.005355  0.013996  0.033761
                                 0.070180  0.104868  0.069898 -0.097653 -0.077798 -0.400800 -0.233493  0.414380  0.612961  0.216141
                                 0.013054  0.001935 -0.000305  0.000191 -0.000074  0.000023  0.000000  0.000000  0.000000 -0.000000
                                 0.000000  0.000000  0.000000 -0.000000  0.000000 -0.000000  0.000000 -0.000000  0.000000 -0.000000
                                 0.000000 -0.000000  0.000000  0.000000 -0.000000  0.000000 -0.000000 -0.000000  0.000000  0.000000
                                -0.000000 -0.000000  0.000000  0.000000 -0.000000 -0.000000  0.000000  0.000000 -0.000000 -0.000000

   4.3   2    -3.2384 -142.5912  0.000000  0.000000  0.000000  0.000000  0.000000  0.000000  0.000000  0.000000  0.000000  0.000000
                                 0.000000  0.000000  0.000000 -0.000000 -0.000000 -0.000000 -0.000000  0.000000  0.000000  0.000000
                                -0.000001 -0.000001  0.000000  0.000000  0.000000  0.000000  0.000215 -0.000000  0.001990 -0.000001
                                 0.000005 -0.000000  0.011257 -0.000004  0.042360 -0.000017  0.114350 -0.000045  0.223439 -0.000088
                                 0.311402 -0.000122  0.320162 -0.000126  0.225476 -0.000089  0.089076 -0.000035 -0.000313  0.000000
                                 0.015282 -0.000006 -0.007196  0.000003  0.003987 -0.000002 -0.002339  0.000001  0.001136 -0.000000

   5.3   2    -3.2384 -142.5911 -0.000000 -0.000000 -0.000000 -0.000000 -0.000000 -0.000000 -0.000000 -0.000000 -0.000000 -0.000000
                                -0.000000 -0.000000 -0.000000  0.000000  0.000000  0.000000  0.000000 -0.000000 -0.000000  0.000000
                                 0.000000 -0.000000 -0.000000  0.000000  0.000000  0.000000  0.000000  0.000215  0.000001  0.001990
                                 0.000000  0.000005  0.000004  0.011257  0.000017  0.042360  0.000045  0.114350  0.000088  0.223439
                                 0.000122  0.311402  0.000126  0.320162  0.000089  0.225476  0.000035  0.089076 -0.000000 -0.000313
                                 0.000006  0.015282 -0.000003 -0.007196  0.000002  0.003987 -0.000001 -0.002339  0.000000  0.001136

   6.3   2    -2.4668  -79.0832 -0.000002 -0.000006 -0.000017 -0.000045 -0.000117 -0.000301 -0.000795 -0.002092 -0.005490 -0.013211
                                -0.027685 -0.041031 -0.028198  0.046017  0.025709  0.183044  0.082450 -0.237259 -0.429772 -0.006048
                                 0.520500  0.504897  0.153305  0.000300  0.003437 -0.001033  0.000000  0.000000  0.000000  0.000000
                                -0.000000  0.000000  0.000000  0.000000  0.000000  0.000000  0.000000  0.000000  0.000000  0.000000
                                 0.000000  0.000000  0.000000  0.000000  0.000000 -0.000000 -0.000000 -0.000000 -0.000001 -0.000000
                                -0.000000 -0.000000  0.000000  0.000000  0.000000  0.000000  0.000000  0.000000 -0.000000  0.000000

   7.3   0     0.0379  -10.1266  0.000000  0.000000  0.000001  0.000002  0.000005  0.000013  0.000033  0.000092  0.000227  0.000586
                                 0.001112  0.001974  0.000281  0.001348 -0.007405 -0.001695 -0.008963  0.017738  0.008778  0.016094
                                -0.055665  0.013410 -0.072656  0.189251 -0.389390  1.219989 -0.000000 -0.000000 -0.000000 -0.000000
                                -0.000000  0.000000 -0.000000 -0.000000 -0.000000 -0.000000 -0.000000 -0.000000 -0.000000 -0.000000
                                -0.000000 -0.000000 -0.000000 -0.000000  0.000000 -0.000000 -0.000000  0.000000  0.000001  0.000000
                                -0.000001  0.000000  0.000002  0.000000 -0.000003  0.000000  0.000007  0.000000 -0.000012  0.000000

   8.3   0     0.1363  -16.3857 -0.000000 -0.000001 -0.000002 -0.000006 -0.000015 -0.000039 -0.000107 -0.000269 -0.000746 -0.001672
                                -0.003861 -0.004731 -0.006511  0.016255 -0.015746  0.043303 -0.005894 -0.010765 -0.093224  0.054219
                                 0.003273  0.219619 -0.207539  0.416310 -1.836431  1.090211  0.000000  0.000000  0.000000  0.000000
                                 0.000000 -0.000000  0.000000  0.000000  0.000000  0.000000  0.000000  0.000000  0.000000  0.000000
                                 0.000000  0.000000  0.000000  0.000000 -0.000000  0.000000  0.000000 -0.000000 -0.000002  0.000000
                                 0.000002 -0.000000 -0.000005  0.000000  0.000010 -0.000000 -0.000014  0.000000  0.000025 -0.000000

                                   1 3d2-    1 3d2-    1 3d2-    1 3d2-    1 3d2-    1 3d2-    1 3d2-    1 3d2-    1 3d2-    1 3d2- 
                                   1 3d2-    1 3d2-    1 3d2-    1 3d2-    1 3d2-    1 3d2-    1 3d2-    1 3d2-    1 5g2-    1 5g4- 
                                   1 5g2-    1 5g4-    1 5g2-    1 5g4- 

   1.4   2   -80.7528 -408.3880  0.000145  0.001037  0.005638  0.023582  0.078156  0.195505  0.336019  0.355839  0.185315  0.036343
                                 0.002071  0.000308 -0.000026  0.000029 -0.000010  0.000002 -0.000000  0.000000  0.000000  0.000000
                                -0.000000 -0.000000  0.000000  0.000000

   2.4   2   -12.5982 -169.4932 -0.000075 -0.000534 -0.002921 -0.012296 -0.041434 -0.105192 -0.178271 -0.151897  0.113226  0.426114
                                 0.430159  0.164897  0.016581  0.001370 -0.000182  0.000221 -0.000055  0.000017  0.000000 -0.000000
                                -0.000000  0.000000  0.000000 -0.000000

   3.4   2    -0.3223  -53.7741 -0.000020 -0.000147 -0.000802 -0.003399 -0.011423 -0.029250 -0.049057 -0.040262  0.046686  0.141927
                                 0.144391 -0.085974 -0.289402 -0.162682 -0.318014 -0.282288 -0.133909 -0.004265  0.000000  0.000000
                                 0.000000  0.000000  0.000002  0.000000

   4.4   0     0.1144  -11.1388 -0.000003 -0.000016 -0.000100 -0.000377 -0.001418 -0.003204 -0.006366 -0.003303  0.002526  0.022697
                                 0.004902  0.016099 -0.136229  0.171518 -0.244210  0.181703 -0.447176  1.230157 -0.000000 -0.000000
                                 0.000000  0.000000  0.000000 -0.000000

   5.4   0     0.4074  -19.3929  0.000007  0.000057  0.000273  0.001312  0.003885  0.011418  0.015729  0.019497 -0.027448 -0.031138
                                -0.094661  0.126537 -0.249929  0.750566 -0.641479  0.982578 -1.850375  0.826193  0.000000  0.000000
                                -0.000001 -0.000000  0.000001  0.000000

                                   1 2pz     1 2pz     1 2pz     1 2pz     1 2pz     1 2pz     1 2pz     1 2pz     1 2pz     1 2pz  
                                   1 2pz     1 2pz     1 2pz     1 2pz     1 2pz     1 2pz     1 2pz     1 2pz     1 2pz     1 2pz  
                                   1 2pz     1 2pz     1 2pz     1 2pz     1 2pz     1 2pz     1 4f0     1 4f2+    1 4f0     1 4f2+ 
                                   1 4f0     1 4f2+    1 4f0     1 4f2+    1 4f0     1 4f2+    1 4f0     1 4f2+    1 4f0     1 4f2+ 
                                   1 4f0     1 4f2+    1 4f0     1 4f2+    1 4f0     1 4f2+    1 4f0     1 4f2+    1 4f0     1 4f2+ 
                                   1 4f0     1 4f2+    1 4f0     1 4f2+    1 4f0     1 4f2+    1 4f0     1 4f2+    1 4f0     1 4f2+ 


   1.5   2  -447.2542-1242.7445  0.000024  0.000060  0.000175  0.000451  0.001166  0.002998  0.007814  0.020403  0.051865  0.121212
                                 0.236303  0.341001  0.286419  0.074235  0.058379 -0.003656  0.004717 -0.002132  0.001000 -0.000561
                                 0.000288 -0.000130  0.000051 -0.000020  0.000008 -0.000003 -0.000000 -0.000000  0.000000  0.000000
                                 0.000000 -0.000000  0.000000 -0.000000  0.000000 -0.000000  0.000000 -0.000000  0.000000 -0.000000
                                 0.000000  0.000000 -0.000000  0.000000 -0.000000 -0.000000 -0.000000  0.000000 -0.000000 -0.000000
                                -0.000000  0.000000  0.000000 -0.000000 -0.000000  0.000000  0.000000 -0.000000 -0.000000  0.000000

   2.5   2  -103.2572 -444.5612 -0.000012 -0.000031 -0.000090 -0.000232 -0.000603 -0.001555 -0.004090 -0.010764 -0.027981 -0.067087
                                -0.137650 -0.204137 -0.146061  0.123586  0.095112  0.490348  0.369889  0.071939  0.007055 -0.001238
                                 0.000764 -0.000418  0.000144 -0.000063  0.000026 -0.000008  0.000000 -0.000000  0.000000 -0.000000
                                -0.000000  0.000000  0.000000 -0.000000  0.000000  0.000000  0.000000 -0.000000  0.000000  0.000000
                                -0.000000 -0.000000  0.000000  0.000000  0.000000  0.000000  0.000000 -0.000000 -0.000000  0.000000
                                 0.000000 -0.000000 -0.000000  0.000000  0.000000 -0.000000 -0.000000  0.000000  0.000000 -0.000000

   3.5   2   -21.0232 -190.9992  0.000006  0.000015  0.000044  0.000115  0.000298  0.000770  0.002031  0.005355  0.013996  0.033761
                                 0.070180  0.104868  0.069898 -0.097653 -0.077798 -0.400800 -0.233493  0.414379  0.612961  0.216141
                                 0.013053  0.001935 -0.000305  0.000191 -0.000074  0.000023  0.000000 -0.000000  0.000000  0.000000
                                 0.000000 -0.000000  0.000000  0.000000  0.000000 -0.000000  0.000000  0.000000  0.000000  0.000000
                                 0.000000 -0.000000  0.000000 -0.000000 -0.000000  0.000000 -0.000000 -0.000000  0.000000  0.000000
                                -0.000000 -0.000000  0.000000  0.000000 -0.000000 -0.000000  0.000000  0.000000 -0.000000 -0.000000

   4.5   2    -3.2384 -142.5912  0.000000  0.000000  0.000000  0.000000  0.000000  0.000000  0.000000  0.000000  0.000000  0.000000
                                 0.000000  0.000000  0.000000 -0.000000 -0.000000 -0.000000 -0.000000  0.000000  0.000000  0.000000
                                -0.000001 -0.000001  0.000000  0.000000  0.000000  0.000000  0.000215  0.000000  0.001990  0.000000
                                 0.000005  0.000000  0.011257  0.000000  0.042360  0.000000  0.114350  0.000000  0.223439  0.000000
                                 0.311402  0.000000  0.320162  0.000000  0.225476  0.000000  0.089076  0.000000 -0.000313 -0.000000
                                 0.015282  0.000000 -0.007196 -0.000000  0.003987  0.000000 -0.002339 -0.000000  0.001136  0.000000

   5.5   2    -3.2384 -142.5911  0.000000 -0.000000  0.000000 -0.000000 -0.000000 -0.000000 -0.000000 -0.000000 -0.000000 -0.000000
                                -0.000000 -0.000000  0.000000 -0.000000  0.000000 -0.000000  0.000000 -0.000000  0.000000 -0.000000
                                 0.000000 -0.000000  0.000000 -0.000000  0.000000 -0.000000 -0.000000  0.000215 -0.000000  0.001990
                                -0.000000  0.000005 -0.000000  0.011257 -0.000000  0.042360 -0.000000  0.114350 -0.000000  0.223439
                                -0.000000  0.311402 -0.000000  0.320162 -0.000000  0.225476 -0.000000  0.089076  0.000000 -0.000313
                                -0.000000  0.015282  0.000000 -0.007196 -0.000000  0.003987  0.000000 -0.002339 -0.000000  0.001136

   6.5   2    -2.4668  -79.0831 -0.000002 -0.000006 -0.000017 -0.000045 -0.000117 -0.000301 -0.000795 -0.002092 -0.005490 -0.013211
                                -0.027685 -0.041031 -0.028198  0.046017  0.025709  0.183043  0.082449 -0.237259 -0.429772 -0.006049
                                 0.520499  0.504894  0.153308  0.000303  0.003437 -0.001033  0.000000  0.000000  0.000000 -0.000000
                                -0.000000  0.000000  0.000000  0.000000  0.000000  0.000000  0.000000  0.000000  0.000000  0.000000
                                 0.000000 -0.000000  0.000000 -0.000000  0.000000  0.000000 -0.000000 -0.000000 -0.000001  0.000000
                                -0.000000 -0.000000  0.000000  0.000000  0.000000 -0.000000  0.000000  0.000000 -0.000000 -0.000000

   7.5   0     0.0379  -10.1266  0.000000  0.000000  0.000001  0.000002  0.000005  0.000013  0.000033  0.000092  0.000227  0.000586
                                 0.001112  0.001974  0.000281  0.001348 -0.007405 -0.001695 -0.008963  0.017739  0.008778  0.016095
                                -0.055666  0.013410 -0.072657  0.189257 -0.389401  1.219995 -0.000000  0.000000 -0.000000  0.000000
                                -0.000000 -0.000000 -0.000000  0.000000 -0.000000  0.000000 -0.000000  0.000000 -0.000000  0.000000
                                -0.000000  0.000000 -0.000000  0.000000  0.000000  0.000000 -0.000000 -0.000000  0.000001  0.000000
                                -0.000001 -0.000000  0.000002  0.000000 -0.000004 -0.000000  0.000009  0.000000 -0.000015 -0.000000

   8.5   0     0.1364  -16.3858 -0.000000 -0.000001 -0.000002 -0.000006 -0.000015 -0.000039 -0.000107 -0.000269 -0.000746 -0.001672
                                -0.003861 -0.004731 -0.006511  0.016255 -0.015746  0.043304 -0.005893 -0.010766 -0.093227  0.054219
                                 0.003275  0.219623 -0.207542  0.416307 -1.836426  1.090204  0.000000  0.000000  0.000000 -0.000000
                                 0.000000  0.000000  0.000000 -0.000000  0.000000  0.000000  0.000000  0.000000  0.000000  0.000000
                                 0.000000  0.000000  0.000000  0.000000 -0.000000 -0.000000  0.000000  0.000000 -0.000002 -0.000000
                                 0.000003  0.000000 -0.000006 -0.000000  0.000011  0.000000 -0.000017 -0.000000  0.000030  0.000000

                                   1 3d1+    1 3d1+    1 3d1+    1 3d1+    1 3d1+    1 3d1+    1 3d1+    1 3d1+    1 3d1+    1 3d1+ 
                                   1 3d1+    1 3d1+    1 3d1+    1 3d1+    1 3d1+    1 3d1+    1 3d1+    1 3d1+    1 5g1+    1 5g3+ 
                                   1 5g1+    1 5g3+    1 5g1+    1 5g3+ 

   1.6   2   -80.7528 -408.3880  0.000145  0.001037  0.005638  0.023582  0.078156  0.195505  0.336019  0.355839  0.185315  0.036343
                                 0.002071  0.000308 -0.000026  0.000029 -0.000010  0.000002 -0.000000  0.000000  0.000000 -0.000000
                                -0.000000  0.000000  0.000000 -0.000000

   2.6   2   -12.5982 -169.4932 -0.000075 -0.000534 -0.002921 -0.012296 -0.041434 -0.105192 -0.178271 -0.151897  0.113226  0.426114
                                 0.430159  0.164897  0.016581  0.001370 -0.000182  0.000221 -0.000055  0.000017  0.000000 -0.000000
                                -0.000000  0.000000  0.000000 -0.000000

   3.6   2    -0.3223  -53.7741  0.000020  0.000147  0.000802  0.003399  0.011423  0.029250  0.049057  0.040262 -0.046686 -0.141927
                                -0.144391  0.085974  0.289402  0.162682  0.318013  0.282287  0.133911  0.004265 -0.000000  0.000000
                                -0.000001  0.000000 -0.000002 -0.000000

   4.6   0     0.1144  -11.1388 -0.000003 -0.000016 -0.000100 -0.000377 -0.001418 -0.003204 -0.006366 -0.003303  0.002525  0.022697
                                 0.004902  0.016099 -0.136231  0.171521 -0.244212  0.181706 -0.447182  1.230160 -0.000000 -0.000000
                                 0.000000 -0.000000  0.000000 -0.000000

   5.6   0     0.4074  -19.3929  0.000007  0.000057  0.000273  0.001312  0.003885  0.011418  0.015729  0.019497 -0.027449 -0.031138
                                -0.094662  0.126538 -0.249932  0.750572 -0.641486  0.982584 -1.850376  0.826190  0.000000  0.000000
                                -0.000001  0.000000  0.000001  0.000000

                                   1 3d1-    1 3d1-    1 3d1-    1 3d1-    1 3d1-    1 3d1-    1 3d1-    1 3d1-    1 3d1-    1 3d1- 
                                   1 3d1-    1 3d1-    1 3d1-    1 3d1-    1 3d1-    1 3d1-    1 3d1-    1 3d1-    1 5g1-    1 5g3- 
                                   1 5g1-    1 5g3-    1 5g1-    1 5g3- 

   1.7   2   -80.7528 -408.3880  0.000145  0.001037  0.005638  0.023582  0.078156  0.195505  0.336019  0.355839  0.185315  0.036343
                                 0.002071  0.000308 -0.000026  0.000029 -0.000010  0.000002 -0.000000  0.000000  0.000000  0.000000
                                -0.000000 -0.000000  0.000000  0.000000

   2.7   2   -12.5982 -169.4932 -0.000075 -0.000534 -0.002921 -0.012296 -0.041434 -0.105192 -0.178271 -0.151897  0.113226  0.426114
                                 0.430159  0.164897  0.016581  0.001370 -0.000182  0.000221 -0.000055  0.000017  0.000000  0.000000
                                -0.000000 -0.000000  0.000000  0.000000

   3.7   2    -0.3223  -53.7741  0.000020  0.000147  0.000802  0.003399  0.011423  0.029250  0.049057  0.040262 -0.046686 -0.141927
                                -0.144391  0.085974  0.289402  0.162682  0.318013  0.282287  0.133911  0.004265 -0.000000 -0.000000
                                -0.000001 -0.000000 -0.000002  0.000000

   4.7   0     0.1144  -11.1388 -0.000003 -0.000016 -0.000100 -0.000377 -0.001418 -0.003204 -0.006366 -0.003303  0.002525  0.022697
                                 0.004902  0.016099 -0.136231  0.171521 -0.244212  0.181706 -0.447182  1.230160 -0.000000  0.000000
                                 0.000000  0.000000  0.000000  0.000000

   5.7   0     0.4074  -19.3929  0.000007  0.000057  0.000273  0.001312  0.003885  0.011418  0.015729  0.019497 -0.027449 -0.031138
                                -0.094662  0.126538 -0.249932  0.750572 -0.641486  0.982584 -1.850376  0.826190  0.000000 -0.000000
                                -0.000001 -0.000000  0.000001 -0.000000

                                   1 4f2-    1 4f2-    1 4f2-    1 4f2-    1 4f2-    1 4f2-    1 4f2-    1 4f2-    1 4f2-    1 4f2- 
                                   1 4f2-    1 4f2-    1 4f2-    1 4f2-    1 4f2-    1 4f2-    1 4f2- 

   1.8   2    -3.2384 -142.5911  0.000215  0.001990  0.000005  0.011257  0.042360  0.114350  0.223439  0.311402  0.320162  0.225476
                                 0.089076 -0.000313  0.015282 -0.007196  0.003987 -0.002339  0.001136

   2.8   0     0.1576   -9.4886  0.000003 -0.000056  0.000170 -0.000254  0.000260 -0.000991  0.001319 -0.004212  0.006671 -0.015273
                                 0.056828 -0.120616  0.274106 -0.486418  0.802818 -2.139643  2.518410

   3.8   0     0.3822  -12.9720 -0.000008  0.000075 -0.000314  0.000311 -0.001070  0.000237 -0.005535  0.003585 -0.016404  0.027362
                                -0.101091  0.232601 -0.505511  0.961216 -1.566753  4.055018 -2.616907

 HOMO     11.1    -0.322305 =      -8.7704eV
 LUMO     12.1    -0.006674 =      -0.1816eV
 LUMO-HOMO         0.315631 =       8.5888eV


 **********************************************************************************************************************************
 DATASETS  * FILE   NREC   LENGTH (MB)   RECORD NAMES
              1      22       21.27       500      610      700      900      950      970     1000      129      960     1700   
                                          VAR    BASINP    GEOM    SYMINP    ZMAT    AOBASIS   BASIS     P2S    ABASIS    OPER   
                                         1101     1401     1411     1412     1650     1100     1400     1410     1200     1210   
                                          SR      EKINR    POTR     PVPR    MOLCAS      S      EKIN      POT      H0       H01  
                                         1080     1600   
                                         AOSYM     SMH  

              2       5        5.77       200      700     1000      520     4202   
                                        OPTIONS   GEOM     BASIS   MCVARS     RHF  

 PROGRAMS   *        TOTAL       RHF       INT
 CPU TIMES  *        78.08      1.36     76.07
 REAL TIME  *        83.96 SEC
 DISK USED  *         4.07 GB      
 SF USED    *         0.08 MB      
 GA USED    *         0.00 MB       (max)       0.00 MB       (current)
 **********************************************************************************************************************************

 DO I                   =         7.00000000   

 Running procedure=IIID8


 PROGRAM * RHF-SCF (OPEN SHELL)       Authors: W. Meyer, H.-J. Werner


 NUMBER OF ELECTRONS:      39+   37-    SPACE SYMMETRY=1    SPIN SYMMETRY: Triplet 
 CONVERGENCE THRESHOLDS:    1.00E-05 (Density)    1.56E-07 (Energy)
 MAX. NUMBER OF ITERATIONS:       60
 INTERPOLATION TYPE:            DIIS
 INTERPOLATION STEPS:              2 (START)      1 (STEP)
 LEVEL SHIFTS:                 -0.60 (CLOSED) -0.30 (OPEN) 

 Number of closed-shell orbitals:   37 (   9   6   6   3   6   3   3   1 )
 Number of open-shell orbitals:      2 (   2   0   0   0   0   0   0   0 )


 
 Extra symmetries of mos in symmetry 1:   1   1   1   3   2   1   3   2   1   3   2
 Orbital guess generated from atomic densities. Full valence occupancy:   12   6   6   3   6   3   3   1


 Molecular orbital dump at record        4202.2

 ITERATION    DDIFF          GRAD             ENERGY        2-EL.EN.            DIPOLE MOMENTS         DIIS   ORB.
    1      0.000D+00      0.000D+00    -18392.80724079  12797.886822    0.00000    0.00000    0.00000    0    start
    2      0.000D+00      0.552D-01    -18408.56014199  13948.632729    0.00000    0.00000    0.00000    1    diag,B
    3      0.102D+00      0.955D-01    -18411.12241057  13751.993124    0.00000    0.00000    0.00000    2    diag,B
    4      0.985D-02      0.370D-01    -18411.98257674  13657.783974    0.00000    0.00000    0.00000    3    diag,B
    5      0.693D-02      0.166D-01    -18412.25027474  13590.393335    0.00000    0.00000    0.00000    4    diag,B
    6      0.441D-02      0.338D-02    -18412.26828047  13571.793494    0.00000    0.00000    0.00000    5    diag,B
    7      0.152D-02      0.644D-03    -18412.26905517  13570.425353    0.00000    0.00000    0.00000    6    fixocc
    8      0.458D-03      0.322D-03    -18412.26917236  13571.082079    0.00000    0.00000    0.00000    7    diag,B
    9      0.157D-03      0.860D-04    -18412.26918369  13571.382047    0.00000    0.00000    0.00000    8    diag,B
   10      0.480D-04      0.761D-05    -18412.26918402  13571.412239    0.00000    0.00000    0.00000    9    orth
   11      0.882D-05      0.424D-05    -18412.26918404  13571.400903    0.00000    0.00000    0.00000    9    diag,B
   12      0.189D-05      0.123D-05    -18412.26918404  13571.392668    0.00000    0.00000    0.00000    0    orth

 Final alpha occupancy:  11   6   6   3   6   3   3   1
 Final beta  occupancy:   9   6   6   3   6   3   3   1

 !RHF STATE 1.1 Energy               -18412.2691840388    
 Nuclear energy                         0.00000000
 One-electron energy               -25197.96551813
 Two-electron energy                 6785.69633409
 Virial quotient                       -0.67627932
 !RHF STATE 1.1 Dipole moment           0.00000000     0.00000000     0.00000000
 Dipole moment /Debye                   0.00000000     0.00000000     0.00000000

 ELECTRON ORBITALS
 =================


   Orb  Occ    Energy  Couls-En    Coefficients

                                   1 1s      1 1s      1 1s      1 1s      1 1s      1 1s      1 1s      1 1s      1 1s      1 1s   
                                   1 1s      1 1s      1 1s      1 1s      1 1s      1 1s      1 1s      1 1s      1 1s      1 1s   
                                   1 1s      1 1s      1 1s      1 1s      1 1s      1 1s      1 1s      1 1s      1 1s      1 1s   
                                   1 1s      1 1s      1 1s      1 3d0     1 3d2+    1 3d0     1 3d2+    1 3d0     1 3d2+    1 3d0  
                                   1 3d2+    1 3d0     1 3d2+    1 3d0     1 3d2+    1 3d0     1 3d2+    1 3d0     1 3d2+    1 3d0  
                                   1 3d2+    1 3d0     1 3d2+    1 3d0     1 3d2+    1 3d0     1 3d2+    1 3d0     1 3d2+    1 3d0  
                                   1 3d2+    1 3d0     1 3d2+    1 3d0     1 3d2+    1 3d0     1 3d2+    1 3d0     1 3d2+    1 5g0  
                                   1 5g4+    1 5g2+    1 5g0     1 5g4+    1 5g2+    1 5g0     1 5g4+    1 5g2+ 

   1.1   2 -2898.3683-6236.7360  0.000912  0.000995  0.002594  0.003050  0.006001  0.007586  0.013714  0.020199  0.035192  0.057528
                                 0.098418  0.159082  0.235954  0.276414  0.213081  0.079084  0.011106 -0.000671  0.001102 -0.000954
                                 0.000573 -0.000313  0.000168 -0.000094  0.000056 -0.000035  0.000016 -0.000014  0.000022 -0.000015
                                 0.000004 -0.000001  0.000000 -0.000000  0.000000 -0.000000 -0.000000 -0.000000  0.000000 -0.000000
                                -0.000000  0.000000  0.000000 -0.000000 -0.000000  0.000000  0.000000 -0.000000 -0.000000  0.000000
                                 0.000000 -0.000000 -0.000000  0.000000  0.000000 -0.000000 -0.000000  0.000000  0.000000 -0.000000
                                -0.000000  0.000000  0.000000 -0.000000 -0.000000  0.000000  0.000000 -0.000000 -0.000000 -0.000000
                                -0.000000 -0.000000  0.000000  0.000000  0.000000 -0.000000 -0.000000 -0.000000

   2.1   2  -515.2494-1366.0431 -0.000352 -0.000384 -0.001004 -0.001184 -0.002335 -0.002971 -0.005401 -0.008047 -0.014215 -0.023796
                                -0.042178 -0.072301 -0.117871 -0.159204 -0.133029  0.049152  0.335377  0.439809  0.258779  0.065708
                                 0.004326  0.000519 -0.000388  0.000089 -0.000073  0.000054 -0.000021  0.000020 -0.000031  0.000021
                                -0.000005  0.000002 -0.000000  0.000000 -0.000000  0.000000 -0.000000  0.000000  0.000000  0.000000
                                -0.000000  0.000000  0.000000  0.000000  0.000000  0.000000  0.000000  0.000000 -0.000000 -0.000000
                                 0.000000  0.000000 -0.000000 -0.000000  0.000000  0.000000 -0.000000 -0.000000  0.000000  0.000000
                                -0.000000 -0.000000  0.000000  0.000000 -0.000000 -0.000000  0.000000  0.000000  0.000000 -0.000000
                                -0.000000  0.000000 -0.000000 -0.000000 -0.000000 -0.000000 -0.000000  0.000000

   3.1   2  -124.0888 -484.0856  0.000168  0.000184  0.000480  0.000567  0.001118  0.001424  0.002591  0.003867  0.006847  0.011508
                                 0.020518  0.035541  0.058925  0.081840  0.069676 -0.041621 -0.276921 -0.457191 -0.297019  0.252750
                                 0.707846  0.407569  0.048688 -0.000540  0.000822 -0.000468  0.000116 -0.000115  0.000172 -0.000118
                                 0.000028 -0.000009  0.000002 -0.000000  0.000000  0.000000 -0.000000 -0.000000  0.000000  0.000000
                                 0.000000 -0.000000  0.000000 -0.000000  0.000000  0.000000  0.000000  0.000000  0.000000  0.000000
                                 0.000000 -0.000000 -0.000000  0.000000  0.000000 -0.000000 -0.000000  0.000000  0.000000 -0.000000
                                -0.000000  0.000000  0.000000 -0.000000 -0.000000  0.000000  0.000000 -0.000000  0.000000  0.000004
                                 0.000003 -0.000000 -0.000001 -0.000001  0.000000  0.000000  0.000000 -0.000000

   4.1   2   -81.6384 -409.2682 -0.000000 -0.000000 -0.000000 -0.000000 -0.000000 -0.000000 -0.000000 -0.000000 -0.000000 -0.000000
                                -0.000000 -0.000000 -0.000000 -0.000000 -0.000000  0.000000  0.000000  0.000000  0.000000 -0.000000
                                -0.000000  0.000000 -0.000000  0.000000 -0.000000  0.000000 -0.000000 -0.000000  0.000000 -0.000000
                                 0.000000 -0.000000  0.000000  0.000000  0.000145  0.000000  0.001037  0.000002  0.005638  0.000010
                                 0.023580  0.000032  0.078147  0.000081  0.195484  0.000139  0.335990  0.000147  0.355854  0.000077
                                 0.185356  0.000015  0.036346  0.000001  0.002078  0.000000  0.000308 -0.000000 -0.000028  0.000000
                                 0.000026 -0.000000 -0.000013 -0.000000 -0.000000 -0.000000 -0.000001  0.000000  0.000000  0.000000
                                -0.000000 -0.000004 -0.000000  0.000000  0.000001  0.000000 -0.000000 -0.000001

   5.1   2   -81.6384 -409.2682 -0.000000 -0.000000 -0.000000 -0.000000 -0.000000 -0.000000 -0.000000 -0.000000 -0.000000 -0.000000
                                -0.000000 -0.000000 -0.000000 -0.000000 -0.000000  0.000000  0.000000  0.000000  0.000000 -0.000000
                                -0.000000  0.000000  0.000000  0.000000 -0.000000  0.000000  0.000000 -0.000000 -0.000000 -0.000000
                                -0.000000  0.000000 -0.000000  0.000145 -0.000000  0.001037 -0.000000  0.005638 -0.000002  0.023580
                                -0.000010  0.078147 -0.000032  0.195484 -0.000081  0.335990 -0.000139  0.355854 -0.000147  0.185356
                                -0.000077  0.036346 -0.000015  0.002078 -0.000001  0.000308 -0.000000 -0.000028  0.000000  0.000026
                                -0.000000 -0.000013  0.000000 -0.000000  0.000000 -0.000001  0.000000  0.000000 -0.000000  0.000003
                                -0.000003  0.000000 -0.000001  0.000001 -0.000000  0.000000 -0.000000  0.000000

   6.1   2   -28.5893 -209.8592 -0.000084 -0.000092 -0.000239 -0.000282 -0.000557 -0.000709 -0.001291 -0.001927 -0.003415 -0.005744
                                -0.010259 -0.017809 -0.029664 -0.041452 -0.035542  0.023576  0.157626  0.277980  0.190020 -0.219333
                                -0.851549 -0.475426  0.710133  0.760360  0.116151 -0.006641  0.003209 -0.001631  0.002409 -0.001639
                                 0.000377 -0.000120  0.000033 -0.000000 -0.000000 -0.000000 -0.000000 -0.000000 -0.000000 -0.000000
                                -0.000000 -0.000000 -0.000000 -0.000000 -0.000000 -0.000000 -0.000000 -0.000000 -0.000000 -0.000000
                                -0.000000 -0.000000  0.000000  0.000000  0.000000 -0.000000  0.000000 -0.000000  0.000000  0.000000
                                -0.000000 -0.000000  0.000000 -0.000000 -0.000000 -0.000000  0.000000  0.000000 -0.000000  0.000092
                                 0.000077  0.000000 -0.000077 -0.000065 -0.000000  0.000020  0.000017  0.000000

   7.1   2   -13.4815 -170.3034 -0.000000 -0.000000 -0.000000  0.000000 -0.000000  0.000000 -0.000000 -0.000000 -0.000000 -0.000000
                                -0.000000 -0.000000 -0.000000 -0.000000 -0.000000  0.000000  0.000000  0.000000  0.000000 -0.000000
                                -0.000000 -0.000000  0.000000  0.000000 -0.000000  0.000000 -0.000000  0.000000 -0.000000  0.000000
                                -0.000000  0.000000 -0.000000  0.000000 -0.000074  0.000000 -0.000533  0.000000 -0.002918  0.000002
                                -0.012283  0.000007 -0.041391  0.000017 -0.105088  0.000028 -0.178088  0.000024 -0.151794 -0.000018
                                 0.112968 -0.000068  0.425465 -0.000068  0.430046 -0.000026  0.165929 -0.000003  0.016800 -0.000000
                                 0.001281  0.000000 -0.000169 -0.000000  0.000243  0.000000 -0.000051 -0.000000  0.000016 -0.000000
                                 0.000000 -0.000189  0.000000 -0.000000  0.000193 -0.000000  0.000000 -0.000035

   8.1   2   -13.4815 -170.3034  0.000000  0.000000  0.000000  0.000000  0.000000  0.000000  0.000000  0.000000  0.000000  0.000000
                                 0.000000  0.000000  0.000000  0.000000  0.000000 -0.000000 -0.000000 -0.000000 -0.000000  0.000000
                                 0.000000  0.000000 -0.000000 -0.000000  0.000000 -0.000000  0.000000 -0.000000  0.000000 -0.000000
                                 0.000000 -0.000000  0.000000 -0.000074 -0.000000 -0.000533 -0.000000 -0.002918 -0.000000 -0.012283
                                -0.000002 -0.041391 -0.000007 -0.105088 -0.000017 -0.178088 -0.000028 -0.151794 -0.000024  0.112968
                                 0.000018  0.425465  0.000068  0.430046  0.000068  0.165929  0.000026  0.016800  0.000003  0.001281
                                 0.000000 -0.000169 -0.000000  0.000243  0.000000 -0.000051 -0.000000  0.000016  0.000000  0.000122
                                -0.000144 -0.000000 -0.000125  0.000148  0.000000  0.000023 -0.000027 -0.000000

   9.1   2    -5.1779  -92.5162  0.000036  0.000039  0.000102  0.000121  0.000238  0.000303  0.000552  0.000824  0.001460  0.002456
                                 0.004387  0.007622  0.012706  0.017791  0.015257 -0.010331 -0.069704 -0.124235 -0.087850  0.109337
                                 0.450169  0.249907 -0.533330 -0.869674  0.110136  0.856985  0.445777  0.034237 -0.016258  0.007535
                                -0.000986  0.000225 -0.000054 -0.000000 -0.000000 -0.000000 -0.000000 -0.000000 -0.000000 -0.000000
                                -0.000000 -0.000000 -0.000000 -0.000000 -0.000000 -0.000000 -0.000000 -0.000000 -0.000000  0.000000
                                 0.000000  0.000000  0.000000  0.000000  0.000000 -0.000000  0.000000 -0.000000 -0.000000 -0.000000
                                -0.000000 -0.000000 -0.000000  0.000000 -0.000000 -0.000000  0.000000  0.000000  0.000000  0.000106
                                 0.000089  0.000000 -0.000974 -0.000823 -0.000000 -0.000404 -0.000342 -0.000000

  10.1   +    -1.2168  -59.2932  0.000000  0.000000  0.000000  0.000000  0.000000  0.000000  0.000000  0.000000  0.000000  0.000000
                                 0.000000  0.000000  0.000000  0.000000  0.000000 -0.000000 -0.000000 -0.000000 -0.000000  0.000000
                                 0.000000  0.000000 -0.000000 -0.000000  0.000000  0.000000  0.000000 -0.000000 -0.000000  0.000000
                                -0.000000  0.000000 -0.000000 -0.000000  0.000023 -0.000000  0.000163 -0.000000  0.000888 -0.000000
                                 0.003758 -0.000001  0.012641 -0.000001  0.032341 -0.000002  0.054305 -0.000002  0.044428  0.000002
                                -0.051493  0.000007 -0.157626  0.000007 -0.158509 -0.000004  0.092397 -0.000014  0.334850 -0.000007
                                 0.171134 -0.000016  0.375987 -0.000009  0.209067 -0.000001  0.025475  0.000000 -0.003042 -0.000000
                                 0.000000 -0.001161 -0.000000  0.000000 -0.003596 -0.000000  0.000000 -0.002094

  11.1   +    -1.2168  -59.2932 -0.000000 -0.000000 -0.000000 -0.000000 -0.000000 -0.000000 -0.000000 -0.000000 -0.000000 -0.000000
                                -0.000000 -0.000000 -0.000000 -0.000000 -0.000000  0.000000  0.000000  0.000001  0.000001 -0.000001
                                -0.000003 -0.000002  0.000004  0.000006 -0.000001 -0.000010 -0.000007  0.000011  0.000006  0.000004
                                 0.000000  0.000000 -0.000000  0.000023  0.000000  0.000163  0.000000  0.000888  0.000000  0.003758
                                 0.000000  0.012641  0.000001  0.032341  0.000001  0.054305  0.000002  0.044428  0.000002 -0.051493
                                -0.000002 -0.157626 -0.000007 -0.158508 -0.000007  0.092397  0.000004  0.334850  0.000014  0.171134
                                 0.000007  0.375987  0.000016  0.209067  0.000009  0.025475  0.000001 -0.003042 -0.000000  0.000749
                                -0.000887 -0.000000  0.002321 -0.002747 -0.000000  0.001352 -0.001599 -0.000000

  12.1   0    -0.6019  -33.8291 -0.000011 -0.000013 -0.000033 -0.000039 -0.000076 -0.000097 -0.000176 -0.000263 -0.000467 -0.000785
                                -0.001403 -0.002438 -0.004065 -0.005691 -0.004886  0.003327  0.022397  0.040067  0.028404 -0.035825
                                -0.149159 -0.083161  0.187427  0.336886 -0.067431 -0.463805 -0.381830  0.260700  0.416280  0.450209
                                 0.148774 -0.015635  0.004146 -0.000000 -0.000000 -0.000000 -0.000000 -0.000000 -0.000000 -0.000000
                                -0.000000 -0.000000 -0.000000 -0.000000 -0.000000 -0.000001 -0.000000 -0.000001 -0.000000  0.000001
                                 0.000000  0.000002  0.000000  0.000002  0.000000 -0.000001 -0.000000 -0.000005 -0.000000 -0.000003
                                -0.000000 -0.000005 -0.000000 -0.000004 -0.000000 -0.000001 -0.000000  0.000000  0.000000 -0.000665
                                -0.000562  0.000000  0.001522  0.001287  0.000000  0.004018  0.003396  0.000000

  13.1   0    -0.2347  -14.7471  0.000005  0.000005  0.000014  0.000017  0.000033  0.000042  0.000077  0.000115  0.000205  0.000343
                                 0.000616  0.001065  0.001786  0.002479  0.002175 -0.001549 -0.009581 -0.018100 -0.011365  0.013915
                                 0.068012  0.033522 -0.078343 -0.156960  0.043289  0.190683  0.226691 -0.192116 -0.018786 -1.151117
                                 0.599665  1.031886 -0.027031  0.000000 -0.000000  0.000000 -0.000000  0.000000 -0.000000  0.000000
                                -0.000000  0.000000 -0.000000  0.000000 -0.000000  0.000000 -0.000000  0.000000 -0.000000 -0.000000
                                 0.000000 -0.000000  0.000000 -0.000000  0.000000  0.000000 -0.000000  0.000000 -0.000000  0.000000
                                 0.000000  0.000001 -0.000000  0.000001  0.000000  0.000000 -0.000000 -0.000001 -0.000000  0.000325
                                 0.000274 -0.000000 -0.000916 -0.000774  0.000000 -0.001543 -0.001304 -0.000000

                                   1 2px     1 2px     1 2px     1 2px     1 2px     1 2px     1 2px     1 2px     1 2px     1 2px  
                                   1 2px     1 2px     1 2px     1 2px     1 2px     1 2px     1 2px     1 2px     1 2px     1 2px  
                                   1 2px     1 2px     1 2px     1 2px     1 2px     1 2px     1 4f1+    1 4f3+    1 4f1+    1 4f3+ 
                                   1 4f1+    1 4f3+    1 4f1+    1 4f3+    1 4f1+    1 4f3+    1 4f1+    1 4f3+    1 4f1+    1 4f3+ 
                                   1 4f1+    1 4f3+    1 4f1+    1 4f3+    1 4f1+    1 4f3+    1 4f1+    1 4f3+    1 4f1+    1 4f3+ 
                                   1 4f1+    1 4f3+    1 4f1+    1 4f3+    1 4f1+    1 4f3+    1 4f1+    1 4f3+    1 4f1+    1 4f3+ 


   1.2   2  -448.1428-1243.6332  0.000024  0.000060  0.000175  0.000451  0.001166  0.002998  0.007814  0.020403  0.051865  0.121212
                                 0.236303  0.341002  0.286419  0.074234  0.058379 -0.003657  0.004717 -0.002132  0.001000 -0.000561
                                 0.000288 -0.000130  0.000050 -0.000020  0.000008 -0.000003  0.000000 -0.000000  0.000000 -0.000001
                                -0.000000  0.000000  0.000002 -0.000002  0.000001 -0.000002 -0.000001  0.000001 -0.000001  0.000001
                                -0.000000  0.000001  0.000000 -0.000000  0.000000 -0.000000  0.000000 -0.000000  0.000000 -0.000000
                                 0.000000 -0.000000 -0.000000  0.000000  0.000000 -0.000000 -0.000000  0.000000  0.000000 -0.000000

   2.2   2  -104.1460 -445.4507 -0.000012 -0.000031 -0.000090 -0.000232 -0.000603 -0.001555 -0.004090 -0.010765 -0.027981 -0.067088
                                -0.137651 -0.204140 -0.146061  0.123589  0.095123  0.490343  0.369887  0.071937  0.007051 -0.001237
                                 0.000764 -0.000416  0.000146 -0.000062  0.000026 -0.000008 -0.000000  0.000000 -0.000000  0.000000
                                 0.000000 -0.000000 -0.000000  0.000000 -0.000000  0.000000 -0.000009  0.000011  0.000004 -0.000005
                                 0.000008 -0.000011 -0.000003  0.000004 -0.000005  0.000006 -0.000004  0.000005 -0.000000  0.000000
                                -0.000001  0.000002  0.000000 -0.000001 -0.000000  0.000000  0.000000 -0.000000 -0.000000  0.000000

   3.2   2   -21.9124 -191.8877  0.000006  0.000015  0.000044  0.000115  0.000298  0.000770  0.002031  0.005355  0.013995  0.033761
                                 0.070180  0.104870  0.069891 -0.097631 -0.077849 -0.400752 -0.233540  0.414519  0.612760  0.216229
                                 0.013138  0.001868 -0.000325  0.000174 -0.000072  0.000023 -0.000000  0.000000  0.000000 -0.000000
                                -0.000001  0.000001  0.000001 -0.000001 -0.000002  0.000003  0.000011 -0.000015  0.000028 -0.000037
                                 0.000063 -0.000081 -0.000092  0.000119 -0.000067  0.000086  0.000055 -0.000071 -0.000012  0.000016
                                 0.000023 -0.000030 -0.000012  0.000015  0.000006 -0.000008 -0.000004  0.000005  0.000002 -0.000002

   4.2   2    -4.1286 -143.5187 -0.000000 -0.000000 -0.000000 -0.000000 -0.000000 -0.000001 -0.000003 -0.000008 -0.000022 -0.000052
                                -0.000109 -0.000160 -0.000112  0.000186  0.000088  0.000705  0.000299 -0.000729 -0.001492 -0.001028
                                 0.001570  0.003950  0.001670  0.000013  0.000025 -0.000008  0.000132 -0.000170  0.001219 -0.001574
                                 0.000003 -0.000004  0.006896 -0.008901  0.025948 -0.033494  0.070045 -0.090416  0.136858 -0.176660
                                 0.190741 -0.246213  0.196125 -0.253163  0.138308 -0.178532  0.054483 -0.070328 -0.000786  0.001014
[...]
                                 0.429893  0.165232  0.016936  0.001369  0.000084  0.000371 -0.000030  0.000014  0.000000  0.000000
                                 0.000000  0.000000  0.000000  0.000000

   3.6  1.60000    -1.050828     0.000023  0.000162  0.000884  0.003741  0.012584  0.032190  0.054062  0.044207 -0.051264 -0.156921
                                -0.157953  0.093695  0.331314  0.167921  0.371530  0.220076  0.030040 -0.003546  0.000000  0.000000
                                 0.000000  0.000000  0.000000  0.000000

                                   1 3d1-    1 3d1-    1 3d1-    1 3d1-    1 3d1-    1 3d1-    1 3d1-    1 3d1-    1 3d1-    1 3d1- 
                                   1 3d1-    1 3d1-    1 3d1-    1 3d1-    1 3d1-    1 3d1-    1 3d1-    1 3d1-    1 5g1-    1 5g3- 
                                   1 5g1-    1 5g3-    1 5g1-    1 5g3- 

   1.7  2.00000   -81.642964     0.000145  0.001037  0.005638  0.023582  0.078155  0.195504  0.336018  0.355834  0.185320  0.036348
                                 0.002073  0.000306 -0.000034  0.000026 -0.000018 -0.000003 -0.000001  0.000000  0.000000  0.000000
                                 0.000000  0.000000  0.000000  0.000000

   2.7  2.00000   -13.488067    -0.000075 -0.000533 -0.002920 -0.012291 -0.041419 -0.105154 -0.178206 -0.151847  0.113158  0.425943
                                 0.429893  0.165232  0.016936  0.001369  0.000084  0.000371 -0.000030  0.000014  0.000000  0.000000
                                 0.000000  0.000000  0.000000  0.000000

   3.7  1.60000    -1.050828     0.000023  0.000162  0.000884  0.003741  0.012584  0.032190  0.054062  0.044207 -0.051264 -0.156921
                                -0.157953  0.093695  0.331314  0.167921  0.371530  0.220076  0.030040 -0.003546  0.000000  0.000000
                                 0.000000  0.000000  0.000000  0.000000

                                   1 4f2-    1 4f2-    1 4f2-    1 4f2-    1 4f2-    1 4f2-    1 4f2-    1 4f2-    1 4f2-    1 4f2- 
                                   1 4f2-    1 4f2-    1 4f2-    1 4f2-    1 4f2-    1 4f2-    1 4f2- 

   1.8  2.00000    -4.128592     0.000215  0.001991  0.000004  0.011260  0.042368  0.114376  0.223477  0.311483  0.320156  0.225709
                                 0.089147 -0.001053  0.014299 -0.007271  0.003668 -0.002210  0.001059

 Total charge:   2.000000000000
 
 *** IN SYMMETRY 1 ORBITAL  4 SYMMETRY CONTAMINATION OF 0.391D-02 HAS BEEN REMOVED
 *** IN SYMMETRY 1 ORBITAL  5 SYMMETRY CONTAMINATION OF 0.391D-02 HAS BEEN REMOVED
 *** IN SYMMETRY 1 ORBITAL  7 SYMMETRY CONTAMINATION OF 0.130D-01 HAS BEEN REMOVED
 *** IN SYMMETRY 1 ORBITAL  8 SYMMETRY CONTAMINATION OF 0.130D-01 HAS BEEN REMOVED

 EXTRA SYMMETRY OF MOS IN SYMMETRY 1:   1 1 1 3 2 1 2 3 1 3   2 1 1 3 2 1 1 3 2 1   3 2 1 4 5 6 2 3 1 6   5 4 2 3 5 4 6 1 2 3
                                        1 2 3 2 3 1 3 2 1 3   2 1 1 3 2 1 3 2 1 2   3 1 2 3 1 1 2 3 1 1   1 1 1 1 1 1 1 1
 EXTRA SYMMETRY OF MOS IN SYMMETRY 2:   1 1 1 3 2 1 1 1 3 2   1 2 3 3 2 2 3 1 3 2   3 2 1 2 3 1 2 3 3 2   1 2 3 1 2 3 1 2 3 1
                                        2 3 1 2 3 1 3 2 1 3   2 1 1 1 1 1 1 1 1 1
 EXTRA SYMMETRY OF MOS IN SYMMETRY 3:   1 1 1 3 2 1 1 1 3 2   1 2 3 3 2 2 3 1 2 3   2 3 1 2 3 1 2 3 3 2   1 3 2 1 2 3 1 3 2 1
                                        3 2 1 3 2 1 3 2 1 2   3 1 1 1 1 1 1 1 1 1
 EXTRA SYMMETRY OF MOS IN SYMMETRY 4:   1 1 1 1 1 1 2 3 1 2   3 1 3 2 1 1 1 1 1 1   1 1 1 1
 EXTRA SYMMETRY OF MOS IN SYMMETRY 5:   1 1 1 2 3 1 1 1 3 2   1 2 3 2 3 2 3 1 2 3   2 3 1 2 3 1 2 3 2 3   1 2 3 1 2 3 1 3 2 1
                                        3 2 1 3 2 1 3 2 1 3   2 1 1 1 1 1 1 1 1 1
 EXTRA SYMMETRY OF MOS IN SYMMETRY 7:   1 1 1 1 1 1 3 2 1 3   2 1 3 2 1 1 1 1 1 1   1 1 1 1

 Natural orbital dump (state averaged) at molpro section  5202.2    (Orbital set 2)


 CI vector for state symmetry 1
 ==============================

 aa 2 2 2          1.0000000

 TOTAL ENERGIES                    -18412.26678411

 CI vector for state symmetry 2
 ==============================

 2a a 2 2          0.9999995   0.0009790   0.0000000
 a2 a 2 2         -0.0004378   0.4472134   0.8944272
 22 2 a a         -0.0008757   0.8944268  -0.4472136

 TOTAL ENERGIES                    -18412.26678411-18412.26678411-18412.20767332

 CI vector for state symmetry 3
 ==============================

 22 a 2 a         -0.0075185   0.8943956   0.4472136
 a2 2 a 2          0.8641152   0.2308786  -0.4472136
 2a 2 a 2          0.5032379  -0.3830817   0.7745967

 TOTAL ENERGIES                    -18412.26678411-18412.26678411-18412.20767332

 CI vector for state symmetry 4
 ==============================

 22 a a 2          0.0088954   0.8943830   0.4472136
 a2 2 2 a          0.8637587  -0.2322087   0.4472136
 2a 2 2 a         -0.5038271  -0.3823065   0.7745967

 TOTAL ENERGIES                    -18412.26678411-18412.26678411-18412.20767332



 **********************************************************************************************************************************
 DATASETS  * FILE   NREC   LENGTH (MB)   RECORD NAMES
              1      23      167.16       500      610      700      900      950      970     1000      129      960     1700   
                                          VAR    BASINP    GEOM    SYMINP    ZMAT    AOBASIS   BASIS     P2S    ABASIS    OPER   
                                         1101     1401     1411     1412     1650     1100     1400     1410     1200     1210   
                                          SR      EKINR    POTR     PVPR    MOLCAS      S      EKIN      POT      H0       H01  
                                         1080     1600     1380   
                                         AOSYM     SMH     JKOP   

              2       6        9.11       200      700     1000      520     4202     5202   
                                        OPTIONS   GEOM     BASIS   MCVARS     RHF     MCSCF   

 PROGRAMS   *        TOTAL     MULTI       POP       RHF       RHF       INT
 CPU TIMES  *        89.30      9.65      0.00      1.44      1.36     76.07
 REAL TIME  *       106.21 SEC
 DISK USED  *         4.09 GB      
 SF USED    *       569.07 MB      
 GA USED    *         0.00 MB       (max)       0.00 MB       (current)
 **********************************************************************************************************************************


 PROGRAM * RHF-SCF (OPEN SHELL)       Authors: W. Meyer, H.-J. Werner


 NUMBER OF ELECTRONS:      39+   37-    SPACE SYMMETRY=1    SPIN SYMMETRY: Triplet 
 CONVERGENCE THRESHOLDS:    1.00E-05 (Density)    1.52E-07 (Energy)
 MAX. NUMBER OF ITERATIONS:        0
 INTERPOLATION TYPE:            DIIS
 INTERPOLATION STEPS:              2 (START)      1 (STEP)
 LEVEL SHIFTS:                 -0.60 (CLOSED) -0.30 (OPEN) 

 Number of closed-shell orbitals:   37 (   9   6   6   3   6   3   3   1 )
 Number of open-shell orbitals:      2 (   2   0   0   0   0   0   0   0 )


 Molecular orbitals read from record     5202.2  Type=MCSCF/NATURAL (state averaged)

 Molecular orbital dump at record        2113.2

 ITERATION    DDIFF          GRAD             ENERGY        2-EL.EN.            DIPOLE MOMENTS         DIIS   ORB.
    1      0.000D+00      0.000D+00    -18412.26678411  13571.165818    0.00000    0.00000    0.00000    0    start

 Final alpha occupancy:  11   6   6   3   6   3   3   1
 Final beta  occupancy:   9   6   6   3   6   3   3   1

 !RHF STATE 1.1 Energy               -18412.2667841107    
 Nuclear energy                         0.00000000
 One-electron energy               -25197.84969317
 Two-electron energy                 6785.58290906
 Virial quotient                       -0.67627963
 !RHF STATE 1.1 Dipole moment           0.00000000     0.00000000     0.00000000
 Dipole moment /Debye                   0.00000000     0.00000000     0.00000000

 Orbital energies:

         1.1          2.1          3.1          4.1          5.1          6.1          7.1          8.1          9.1         10.1
  -2898.370107  -515.251298  -124.090557   -81.642964   -81.642964   -28.590969   -13.488067   -13.488067    -5.179333    -1.050828

        11.1         12.1         13.1
     -1.050828    -0.585921    -0.232592

         1.2          2.2          3.2          4.2          5.2          6.2          7.2          8.2
   -448.144673  -104.147768   -21.914141    -4.128592    -4.128592    -3.328636    -0.370449    -0.174787

         1.3          2.3          3.3          4.3          5.3          6.3          7.3          8.3
   -448.144673  -104.147768   -21.914141    -4.128592    -4.128592    -3.328636    -0.370449    -0.174787

         1.4          2.4          3.4          4.4          5.4
    -81.642964   -13.488067    -1.050828    -0.195456    -0.022798

         1.5          2.5          3.5          4.5          5.5          6.5          7.5          8.5
   -448.144673  -104.147768   -21.914141    -4.128592    -4.128592    -3.328636    -0.370449    -0.174787

         1.6          2.6          3.6          4.6          5.6
    -81.642964   -13.488067    -1.050828    -0.195456    -0.022798

         1.7          2.7          3.7          4.7          5.7
    -81.642964   -13.488067    -1.050828    -0.195456    -0.022798

         1.8          2.8          3.8
     -4.128592    -0.113209     0.028935

 HOMO     11.1    -1.050828 =     -28.5945eV
 LUMO     12.1    -0.585921 =     -15.9437eV
 LUMO-HOMO         0.464907 =      12.6508eV


 **********************************************************************************************************************************
 DATASETS  * FILE   NREC   LENGTH (MB)   RECORD NAMES
              1      23      167.16       500      610      700      900      950      970     1000      129      960     1700   
                                          VAR    BASINP    GEOM    SYMINP    ZMAT    AOBASIS   BASIS     P2S    ABASIS    OPER   
                                         1101     1401     1411     1412     1650     1100     1400     1410     1200     1210   
                                          SR      EKINR    POTR     PVPR    MOLCAS      S      EKIN      POT      H0       H01  
                                         1080     1600     1380   
                                         AOSYM     SMH     JKOP   

              2       7       13.01       200      700     1000      520     4202     5202     2113   
                                        OPTIONS   GEOM     BASIS   MCVARS     RHF     MCSCF     RHF  

 PROGRAMS   *        TOTAL       RHF     MULTI       POP       RHF       RHF       INT
 CPU TIMES  *        89.58      0.28      9.65      0.00      1.44      1.36     76.07
 REAL TIME  *       106.60 SEC
 DISK USED  *         4.09 GB      
 SF USED    *       569.07 MB      
 GA USED    *         0.00 MB       (max)       0.00 MB       (current)
 **********************************************************************************************************************************
 SETTING SCF(7)         =    -18412.26678411  AU                              
 SETTING _CC_NORM_MAX   =         2.00000000                                  


 PROGRAM * CCSD (Restricted open-shell coupled cluster)     Authors: C. Hampel, H.-J. Werner, 1991, M. Deegan, P.J. Knowles, 1992


 Convergence thresholds:  THRVAR = 1.00D-08  THRDEN = 1.52D-06

 CCSD(T)     terms to be evaluated (factor= 1.000)


 Number of closed-shell orbitals:  37 (   9   6   6   3   6   3   3   1 )
 Number of active  orbitals:        2 (   2   0   0   0   0   0   0   0 )
 Number of external orbitals:     308 (  67  54  54  21  54  21  21  16 )

 Memory could be reduced to 278.03 Mwords without degradation in triples

 Number of N-1 electron functions:              76
 Number of N-2 electron functions:            2850
 Number of singly external CSFs:              3734
 Number of doubly external CSFs:          26293315
 Total number of CSFs:                    26297049

 Molecular orbitals read from record     2113.2  Type=RHF/CANONICAL (state 1.1)

 Integral transformation finished. Total CPU:   7.08 sec, npass=  1  Memory used:  63.92 MW

 Starting RMP2 calculation

 Wavefunction is spin-projected

 ITER.      SQ.NORM     CORR.ENERGY   TOTAL ENERGY   ENERGY CHANGE        DEN1      VAR(S)    VAR(P)  DIIS     TIME
   1      1.12347478    -3.21433178-18415.48111589    -3.21433178    -0.00072585  0.31D-05  0.18D-03  1  1    10.98
   2      1.12387476    -3.21508183-18415.48186594    -0.00075004    -0.00000125  0.16D-07  0.61D-06  2  2    15.01
   3      1.12389370    -3.21510045-18415.48188456    -0.00001863    -0.00000001  0.47D-10  0.38D-08  3  3    21.35
   4      1.12389440    -3.21510066-18415.48188477    -0.00000021    -0.00000000  0.67D-13  0.66D-11  4  4    33.07

 Norm of t1 vector:      0.03884406      S-energy:    -0.00689154      T1 diagnostic:  0.00191936
 Norm of t2 vector:      0.34983645      P-energy:    -3.20820912
                                         Alpha-Beta:  -2.05485560
                                         Alpha-Alpha: -0.59872620
                                         Beta-Beta:   -0.55462732

 Spin contamination <S**2-Sz**2-Sz>     0.00000000
  Reference energy                   -18412.2667841108    
  RHF-RMP2 correlation energy          -3.215100661302
 !RHF-RMP2 energy                    -18415.4818847721    
 (NB above energy spin projected)

 Starting RCCSD calculation

 ITER.      SQ.NORM     CORR.ENERGY   TOTAL ENERGY   ENERGY CHANGE        DEN1      VAR(S)    VAR(P)  DIIS     TIME
   1      1.09734226    -2.89806344-18415.16484755    -2.89806344    -0.09609821  0.14D-02  0.43D-02  0  0    71.59
   2      1.10590915    -2.98555084-18415.25233495    -0.08748740    -0.00852705  0.14D-03  0.49D-03  0  0   108.11
   3      1.10505290    -2.96152791-18415.22831202     0.02402293    -0.00105167  0.44D-04  0.74D-04  1  1   151.40
   4      1.10589627    -2.96770134-18415.23448545    -0.00617343    -0.00003181  0.83D-06  0.18D-04  2  2   201.90
   5      1.10625739    -2.96787093-18415.23465504    -0.00016959    -0.00001225  0.23D-06  0.77D-05  3  3   259.21
   6      1.10676281    -2.96803737-18415.23482148    -0.00016643    -0.00000113  0.16D-07  0.71D-06  4  4   303.60
   7      1.10688682    -2.96805133-18415.23483544    -0.00001397    -0.00000008  0.33D-08  0.51D-07  5  5   344.00
   8      1.10691089    -2.96805304-18415.23483715    -0.00000170    -0.00000001  0.43D-09  0.52D-08  6  6   390.91
   9      1.10691248    -2.96805372-18415.23483783    -0.00000068    -0.00000000  0.19D-10  0.67D-09  6  1   448.51

 Norm of t1 vector:      0.05031842      S-energy:    -0.00626100      T1 diagnostic:  0.00324869
                                                                       D1 diagnostic:  0.00872182
 Norm of t2 vector:      0.32307976      P-energy:    -2.96179272
                                         Alpha-Beta:  -1.94038350
                                         Alpha-Alpha: -0.52965217
                                         Beta-Beta:   -0.49175705

 Spin contamination <S**2-Sz**2-Sz>     0.00000000

 Memory could be reduced to 314.84 Mwords without degradation in triples
 

  Correlated core orbitals:             1.1       2.1       3.1       4.1       5.1       6.1       7.1       8.1       9.1       1.2
                                        2.2       3.2       4.2       5.2       6.2       1.3       2.3       3.3       4.3       5.3
                                        6.3       1.4       2.4       1.5       2.5       3.5       4.5       5.5       6.5       1.6
                                        2.6       1.7       2.7       1.8
  Orbital energies:                 -2898.3703 -515.2562 -124.0929  -81.6506  -81.6506  -28.5986  -13.5053  -13.5053   -5.2318 -448.1499
                                     -104.1505  -21.9219   -4.1395   -4.1379   -3.4028 -448.1499 -104.1505  -21.9219   -4.1395   -4.1379
                                       -3.4028  -81.6465  -13.4947 -448.1499 -104.1505  -21.9219   -4.1419   -4.1355   -3.4028  -81.6465
                                      -13.4947  -81.6465  -13.4947   -4.1274
 
  RCCSD core-core energy               -2.450817536510
  RCCSD core-valence energy            -0.331434538516
  RCCSD valence correlation energy     -0.185801642934
 

 RESULTS
 =======

  Reference energy                   -18412.2667841108    
  RCCSD singles energy                 -0.006261001282
  RCCSD pair energy                    -2.961792716678
  RCCSD correlation energy             -2.968053717960
  Triples (T) contribution             -0.029166921574
  Total correlation energy             -2.997220639534
 
  RHF-RCCSD energy                   -18415.2348378287    
  RHF-RCCSD[T] energy                -18415.2652235509    
  RHF-RCCSD-T energy                 -18415.2636018738    
 !RHF-RCCSD(T) energy                -18415.2640047503    

 Program statistics:

 Available memory in ccsd:              1023987342
 Min. memory needed in ccsd:              72251051
 Max. memory used in ccsd:               106527176
 Max. memory used in cckext:              91543366 ( 9 integral passes)
 Max. memory used in cckint:              63923649 ( 1 integral passes)



 **********************************************************************************************************************************
 DATASETS  * FILE   NREC   LENGTH (MB)   RECORD NAMES
              1      23      167.16       500      610      700      900      950      970     1000      129      960     1700   
                                          VAR    BASINP    GEOM    SYMINP    ZMAT    AOBASIS   BASIS     P2S    ABASIS    OPER   
                                         1101     1401     1411     1412     1650     1100     1400     1410     1200     1210   
                                          SR      EKINR    POTR     PVPR    MOLCAS      S      EKIN      POT      H0       H01  
                                         1080     1600     1380   
                                         AOSYM     SMH     JKOP   

              2       7       13.01       200      700     1000      520     4202     5202     2113   
                                        OPTIONS   GEOM     BASIS   MCVARS     RHF     MCSCF     RHF  

 PROGRAMS   *        TOTAL  RCCSD(T)       RHF     MULTI       POP       RHF       RHF       INT
 CPU TIMES  *      1717.62   1627.76      0.28      9.65      0.00      1.44      1.36     76.07
 REAL TIME  *      2316.77 SEC
 DISK USED  *        42.62 GB      
 SF USED    *         6.48 GB      
 GA USED    *         0.00 MB       (max)       0.00 MB       (current)
 **********************************************************************************************************************************
 SETTING CCSD(7)        =    -18415.26400475  AU                              
 Output type csv         
                                                                                                                                                                                                                                                                

          SCF,CCSD
        0.00000,        0.00000
        0.00000,        0.00000
        0.00000,        0.00000
        0.00000,        0.00000
        0.00000,        0.00000
        0.00000,        0.00000
   -18412.26678,   -18415.26400
                                                  

 RCCSD(T)/USERDEF energy= -18415.264004750294

        RCCSD(T)        RHF-SCF         MULTI           RHF-SCF         RHF-SCF 
 -18415.26400475 -18412.26678411 -18412.20767332 -18412.26918404 -18413.13496408
 **********************************************************************************************************************************
 Molpro calculation terminated
 Variable memory released
