
 Primary working directories    : /global/cscratch1/sd/aannabe
 Secondary working directories  : /global/cscratch1/sd/aannabe
 Wavefunction directory         : /global/homes/a/aannabe/wfu/
 Main file repository           : /global/cscratch1/sd/aannabe/

 SHA1      : 19cd028119e0e09f93f0674bd8af7968d9b3eff6
 NAME      : 2015.1.36
 ARCHNAME  : linux/x86_64
 FC        : /opt/cray/pe/craype/2.5.14/bin/ftn
 BLASLIB   : -L/opt/intel/compilers_and_libraries_2018.1.163/linux/mkl/lib/intel64 -Wl,-_start-group -lmkl_intel_ilp64 -lmkl_intel_thread -lmkl_core -Wl,-_end-group -liomp5
 id        : lbl

 Nodes     nprocs
 nid00757    11
 Number of processes for MPI-2 version of Molpro:   nprocs(total)=   12   nprocs(compute)=   11   nprocs(helper)=    1

 Using customized tuning parameters: mindgm=7; mindgv=16; mindgc=1; mindgr=1; noblas=0; minvec=7
 default implementation of scratch files=sf  

 ***,Calculation for IrO groundstate
 
 memory,1024,m
 gthresh,twoint=1.0E-15
 gthresh,throvl=1.0E-15
 
 set,dkroll=1,dkho=10,dkhp=4
 
 geometry={
    1
    O
    O 0.0 0.0 0.0
 }
 
 basis={
                                                                                 !include,O.pp
 Including file /global/cscratch1/sd/aannabe/repos/heavy_element_ecps/Pd/arep/molecules/PdO/UC/O_atom/O-aug-cc-CVTZ.basis
 }
 
 {rhf
  wf,8,7,2;
  occ,2,1,1,0,1,0,0,0;
  closed,2,1,0,0,0,0,0,0;
 }
 
 B_scf=energy
 _CC_NORM_MAX=2.0
 {rccsd(t);maxit,100;core,1,0,0,0,0,0,0,0}
 B_ccsd=energy
 
 table,z,scf,ccsd,A_scf,A_ccsd,B_scf,B_ccsd
 save, 3.csv, new

 Variables initialized (889), CPU time= 0.01 sec
 Commands  initialized (702), CPU time= 0.00 sec, 572 directives.
 Default parameters read. Elapsed time= 2.15 sec

 Checking input...
 Passed
1


                                         ***  PROGRAM SYSTEM MOLPRO  ***
                                       Copyright, TTI GmbH Stuttgart, 2015
                                    Version 2015.1 linked Dec 29 2018 15:55:43


 **********************************************************************************************************************************
 LABEL *   Calculation for IrO groundstate                                               
  64 bit mpp version                                                                     DATE: 27-May-21          TIME: 19:22:26  
 **********************************************************************************************************************************

 SHA1:             19cd028119e0e09f93f0674bd8af7968d9b3eff6
 **********************************************************************************************************************************

 THRESHOLDS:

 ZERO    =  1.00D-12  ONEINT  =  1.00D-12  TWOINT  =  1.00D-15  PREFAC  =  1.00D-14  LOCALI  =  1.00D-09  EORDER  =  1.00D-04
 ENERGY  =  0.00D+00  ETEST   =  0.00D+00  EDENS   =  0.00D+00  THRDEDEF=  1.00D-06  GRADIENT=  1.00D-02  STEP    =  1.00D-03
 ORBITAL =  1.00D-05  CIVEC   =  1.00D-05  COEFF   =  1.00D-04  PRINTCI =  5.00D-02  PUNCHCI =  9.90D+01  OPTGRAD =  3.00D-04
 OPTENERG=  1.00D-06  OPTSTEP =  3.00D-04  THRGRAD =  1.00D-10  COMPRESS=  1.00D-11  VARMIN  =  1.00D-07  VARMAX  =  1.00D-03
 THRDOUB =  0.00D+00  THRDIV  =  1.00D-05  THRRED  =  1.00D-07  THRPSP  =  1.00D+00  THRDC   =  1.00D-10  THRCS   =  1.00D-10
 THRNRM  =  1.00D-08  THREQ   =  0.00D+00  THRDE   =  1.00D+00  THRREF  =  1.00D-05  SPARFAC =  1.00D+00  THRDLP  =  1.00D-07
 THRDIA  =  1.00D-10  THRDLS  =  1.00D-07  THRGPS  =  0.00D+00  THRKEX  =  0.00D+00  THRDIS  =  2.00D-01  THRVAR  =  1.00D-10
 THRLOC  =  1.00D-06  THRGAP  =  1.00D-06  THRLOCT = -1.00D+00  THRGAPT = -1.00D+00  THRORB  =  1.00D-06  THRMLTP =  0.00D+00
 THRCPQCI=  1.00D-10  KEXTA   =  0.00D+00  THRCOARS=  0.00D+00  SYMTOL  =  1.00D-06  GRADTOL =  1.00D-06  THROVL  =  1.00D-08
 THRORTH =  1.00D-08  GRID    =  1.00D-06  GRIDMAX =  1.00D-03  DTMAX   =  0.00D+00  THROCCDE=  1.00D-01  THROCCDE=  1.00D-01



 THRESHOLDS:

 ZERO    =  1.00D-12  ONEINT  =  1.00D-12  TWOINT  =  1.00D-15  PREFAC  =  1.00D-14  LOCALI  =  1.00D-09  EORDER  =  1.00D-04
 ENERGY  =  0.00D+00  ETEST   =  0.00D+00  EDENS   =  0.00D+00  THRDEDEF=  1.00D-06  GRADIENT=  1.00D-02  STEP    =  1.00D-03
 ORBITAL =  1.00D-05  CIVEC   =  1.00D-05  COEFF   =  1.00D-04  PRINTCI =  5.00D-02  PUNCHCI =  9.90D+01  OPTGRAD =  3.00D-04
 OPTENERG=  1.00D-06  OPTSTEP =  3.00D-04  THRGRAD =  1.00D-10  COMPRESS=  1.00D-11  VARMIN  =  1.00D-07  VARMAX  =  1.00D-03
 THRDOUB =  0.00D+00  THRDIV  =  1.00D-05  THRRED  =  1.00D-07  THRPSP  =  1.00D+00  THRDC   =  1.00D-10  THRCS   =  1.00D-10
 THRNRM  =  1.00D-08  THREQ   =  0.00D+00  THRDE   =  1.00D+00  THRREF  =  1.00D-05  SPARFAC =  1.00D+00  THRDLP  =  1.00D-07
 THRDIA  =  1.00D-10  THRDLS  =  1.00D-07  THRGPS  =  0.00D+00  THRKEX  =  0.00D+00  THRDIS  =  2.00D-01  THRVAR  =  1.00D-10
 THRLOC  =  1.00D-06  THRGAP  =  1.00D-06  THRLOCT = -1.00D+00  THRGAPT = -1.00D+00  THRORB  =  1.00D-06  THRMLTP =  0.00D+00
 THRCPQCI=  1.00D-10  KEXTA   =  0.00D+00  THRCOARS=  0.00D+00  SYMTOL  =  1.00D-06  GRADTOL =  1.00D-06  THROVL  =  1.00D-15
 THRORTH =  1.00D-08  GRID    =  1.00D-06  GRIDMAX =  1.00D-03  DTMAX   =  0.00D+00  THROCCDE=  1.00D-01  THROCCDE=  1.00D-01


 SETTING DKROLL         =         1.00000000                                  
 SETTING DKHO           =        10.00000000                                  
 SETTING DKHP           =         4.00000000                                  

Geometry recognized as XYZ


 Variable memory set to 1024000000 words,  buffer space   230000 words

 SETTING BASIS          =    USERDEF


 Recomputing integrals since basis changed


 Using spherical harmonics



 PROGRAM * SEWARD (Integral evaluation for generally contracted gaussian basis sets)     Author: Roland Lindh, 1990

 Geometry written to block  1 of record 700

 Orientation using atomic masses  
 Molecule type: Atom
 Symmetry elements: X,Y,Z
 Rotational constants:       0.0000000      0.0000000      0.0000000 GHz  (calculated with average atomic masses)

 Point group  D2h 



 ATOMIC COORDINATES

 NR  ATOM    CHARGE       X              Y              Z

   1  O       8.00    0.000000000    0.000000000    0.000000000

 NUCLEAR CHARGE:                    8
 NUMBER OF PRIMITIVE AOS:          85
 NUMBER OF SYMMETRY AOS:           75
 NUMBER OF CONTRACTIONS:           75   (  22Ag  +  13B3u +  13B2u +   4B1g +  13B1u +   4B2g +   4B3g +   2Au  )
 NUMBER OF CORE ORBITALS:           1   (   1Ag  +   0B3u +   0B2u +   0B1g +   0B1u +   0B2g +   0B3g +   0Au  )
 NUMBER OF VALENCE ORBITALS:        4   (   1Ag  +   1B3u +   1B2u +   0B1g +   1B1u +   0B2g +   0B3g +   0Au  )


 NUCLEAR REPULSION ENERGY    0.00000000

 One-electron integrals computed with SEWARD

 10nd-order Douglas-Kroll-Hess method activated. McWeeny DKH parametrization is used.

 Computing Douglas-Kroll / X2C integrals

 AO integral compression algorithm  1   Integral accuracy      1.0D-15

     9.175 MB (compressed) written to integral file (100.0%)

     Node minimum: 0.524 MB, node maximum: 1.311 MB


 NUMBER OF SORTED TWO-ELECTRON INTEGRALS:      49701.     BUFFER LENGTH:  32768
 NUMBER OF SEGMENTS:   1  SEGMENT LENGTH:      49701      RECORD LENGTH: 524288

 Memory used in sort:       0.61 MW

 SORT1 READ     1139157. AND WROTE       39904. INTEGRALS IN      1 RECORDS. CPU TIME:     0.03 SEC, REAL TIME:     0.04 SEC
 SORT2 READ      456402. AND WROTE      579766. INTEGRALS IN     33 RECORDS. CPU TIME:     0.01 SEC, REAL TIME:     0.03 SEC

 Node minimum:       47523.  Node maximum:       58955. integrals

 OPERATOR DM      FOR CENTER  0  COORDINATES:    0.000000    0.000000    0.000000

 EXTRA SYMMETRY OF AOS IN SYMMETRY 1:   1 1 1 1 1 1 1 1 1 1   1 1 1 1 2 3 2 3 2 3   2 3
 EXTRA SYMMETRY OF AOS IN SYMMETRY 2:   1 1 1 1 1 1 1 1 1 2   3 2 3
 EXTRA SYMMETRY OF AOS IN SYMMETRY 3:   1 1 1 1 1 1 1 1 1 2   3 2 3
 EXTRA SYMMETRY OF AOS IN SYMMETRY 5:   1 1 1 1 1 1 1 1 1 2   3 2 3

 Eigenvalues of metric

         1 0.173E-04 0.492E-04 0.530E-03 0.126E-01 0.277E-01 0.747E-01 0.132E+00 0.261E+00
         2 0.965E-06 0.221E-02 0.332E-01 0.115E+00 0.288E+00 0.447E+00 0.447E+00 0.668E+00
         3 0.965E-06 0.221E-02 0.332E-01 0.115E+00 0.288E+00 0.447E+00 0.447E+00 0.668E+00
         4 0.261E+00 0.743E+00 0.111E+01 0.188E+01
         5 0.965E-06 0.221E-02 0.332E-01 0.115E+00 0.288E+00 0.447E+00 0.447E+00 0.668E+00
         6 0.261E+00 0.743E+00 0.111E+01 0.188E+01
         7 0.261E+00 0.743E+00 0.111E+01 0.188E+01
         8 0.447E+00 0.155E+01


 **********************************************************************************************************************************
 DATASETS  * FILE   NREC   LENGTH (MB)   RECORD NAMES
              1      22       19.95       500      610      700      900      950      970     1000      129      960     1700   
                                          VAR    BASINP    GEOM    SYMINP    ZMAT    AOBASIS   BASIS     P2S    ABASIS    OPER   
                                         1101     1401     1411     1412     1650     1100     1400     1410     1200     1210   
                                          SR      EKINR    POTR     PVPR    MOLCAS      S      EKIN      POT      H0       H01  
                                         1080     1600   
                                         AOSYM     SMH  

 PROGRAMS   *        TOTAL       INT
 CPU TIMES  *         0.97      0.80
 REAL TIME  *         4.89 SEC
 DISK USED  *        50.96 MB      
 GA USED    *         0.00 MB       (max)       0.00 MB       (current)
 **********************************************************************************************************************************


 PROGRAM * RHF-SCF (OPEN SHELL)       Authors: W. Meyer, H.-J. Werner


 NUMBER OF ELECTRONS:       5+    3-    SPACE SYMMETRY=7    SPIN SYMMETRY: Triplet 
 CONVERGENCE THRESHOLDS:    1.00E-05 (Density)    1.00E-07 (Energy)
 MAX. NUMBER OF ITERATIONS:       60
 INTERPOLATION TYPE:            DIIS
 INTERPOLATION STEPS:              2 (START)      1 (STEP)
 LEVEL SHIFTS:                 -0.60 (CLOSED) -0.30 (OPEN) 

 Number of closed-shell orbitals:    3 (   2   1   0   0   0   0   0   0 )
 Number of open-shell orbitals:      2 (   0   0   1   0   1   0   0   0 )


 Orbital guess generated from atomic densities. Full valence occupancy:    2   1   1   0   1   0   0   0


 Molecular orbital dump at record        2100.2

 ITERATION    DDIFF          GRAD             ENERGY        2-EL.EN.            DIPOLE MOMENTS         DIIS   ORB.
    1      0.000D+00      0.000D+00       -74.83587248     55.194391    0.00000    0.00000    0.00000    0    start
    2      0.000D+00      0.152D-01       -74.85770081     56.850561    0.00000    0.00000    0.00000    1    diag,B
    3      0.772D-02      0.412D-02       -74.85881959     56.854468    0.00000    0.00000    0.00000    2    diag,B
    4      0.540D-02      0.147D-02       -74.85917756     56.895557    0.00000    0.00000    0.00000    3    diag,B
    5      0.336D-02      0.436D-03       -74.85921962     56.904402    0.00000    0.00000    0.00000    4    diag,B
    6      0.442D-03      0.998D-04       -74.85922158     56.903418    0.00000    0.00000    0.00000    5    diag,B
    7      0.607D-03      0.206D-04       -74.85922167     56.902990    0.00000    0.00000    0.00000    6    fixocc
    8      0.671D-04      0.695D-05       -74.85922168     56.902830    0.00000    0.00000    0.00000    7    diag,B
    9      0.466D-04      0.186D-05       -74.85922168     56.902774    0.00000    0.00000    0.00000    8    diag,B
   10      0.644D-05      0.424D-06       -74.85922168     56.902769    0.00000    0.00000    0.00000    0    orth

 Final alpha occupancy:   2   1   1   0   1   0   0   0
 Final beta  occupancy:   2   1   0   0   0   0   0   0

 !RHF STATE 1.7 Energy                -74.859221678150
 Nuclear energy                         0.00000000
 One-electron energy                 -103.31060639
 Two-electron energy                   28.45138471
 Virial quotient                       -0.99543045
 !RHF STATE 1.7 Dipole moment           0.00000000     0.00000000     0.00000000
 Dipole moment /Debye                   0.00000000     0.00000000     0.00000000

 Orbital energies:

         1.1          2.1          3.1          4.1
    -20.686704    -1.248284     0.143199     0.622352

         1.2          2.2          3.2
     -0.566555     0.162243     0.890412

         1.3          2.3          3.3
     -0.702375     0.152784     0.848587

         1.4          2.4
      0.638315     2.087192

         1.5          2.5          3.5
     -0.702375     0.152784     0.848587

         1.6          2.6
      0.638315     2.087192

         1.7          2.7
      0.622352     2.040724

         1.8          2.8
      2.017405     6.380095

 HOMO      1.2    -0.566555 =     -15.4167eV
 LUMO      3.1     0.143199 =       3.8967eV
 LUMO-HOMO         0.709754 =      19.3134eV


 **********************************************************************************************************************************
 DATASETS  * FILE   NREC   LENGTH (MB)   RECORD NAMES
              1      22       19.95       500      610      700      900      950      970     1000      129      960     1700   
                                          VAR    BASINP    GEOM    SYMINP    ZMAT    AOBASIS   BASIS     P2S    ABASIS    OPER   
                                         1101     1401     1411     1412     1650     1100     1400     1410     1200     1210   
                                          SR      EKINR    POTR     PVPR    MOLCAS      S      EKIN      POT      H0       H01  
                                         1080     1600   
                                         AOSYM     SMH  

              2       4        2.78       700     1000      520     2100   
                                         GEOM     BASIS   MCVARS     RHF  

 PROGRAMS   *        TOTAL       RHF       INT
 CPU TIMES  *         1.05      0.08      0.80
 REAL TIME  *         5.09 SEC
 DISK USED  *       303.22 MB      
 SF USED    *         0.00 MB      
 GA USED    *         0.00 MB       (max)       0.00 MB       (current)
 **********************************************************************************************************************************
 SETTING B_SCF          =       -74.85922168  AU                              
 SETTING _CC_NORM_MAX   =         2.00000000                                  


 PROGRAM * CCSD (Restricted open-shell coupled cluster)     Authors: C. Hampel, H.-J. Werner, 1991, M. Deegan, P.J. Knowles, 1992


 Convergence thresholds:  THRVAR = 1.00D-08  THRDEN = 1.00D-06

 CCSD(T)     terms to be evaluated (factor= 1.000)


 Number of core orbitals:           1 (   1   0   0   0   0   0   0   0 )
 Number of closed-shell orbitals:   2 (   1   1   0   0   0   0   0   0 )
 Number of active  orbitals:        2 (   0   0   1   0   1   0   0   0 )
 Number of external orbitals:      70 (  20  12  12   4  12   4   4   2 )

 Memory could be reduced to 0.89 Mwords without degradation in triples

 Number of N-1 electron functions:               6
 Number of N-2 electron functions:              15
 Number of singly external CSFs:                90
 Number of doubly external CSFs:              8145
 Total number of CSFs:                        8235

 Molecular orbitals read from record     2100.2  Type=RHF/CANONICAL (state 1.7)

 Integral transformation finished. Total CPU:   0.16 sec, npass=  1  Memory used:   0.14 MW

 Starting RMP2 calculation

 Wavefunction is spin-projected

 ITER.      SQ.NORM     CORR.ENERGY   TOTAL ENERGY   ENERGY CHANGE        DEN1      VAR(S)    VAR(P)  DIIS     TIME
   1      1.03138279    -0.15814676   -75.01736844    -0.15814676    -0.00023852  0.12D-05  0.65D-04  1  1     0.17
   2      1.03154330    -0.15839898   -75.01762066    -0.00025222    -0.00000028  0.52D-08  0.88D-07  2  2     0.17
   3      1.03154697    -0.15840250   -75.01762417    -0.00000351    -0.00000000  0.13D-10  0.18D-09  3  3     0.17
   4      1.03154699    -0.15840249   -75.01762417     0.00000001    -0.00000000  0.18D-12  0.97D-12  4  4     0.17

 Norm of t1 vector:      0.03475507      S-energy:    -0.00382203      T1 diagnostic:  0.00050406
 Norm of t2 vector:      0.17418116      P-energy:    -0.15458046
                                         Alpha-Beta:  -0.11677056
                                         Alpha-Alpha: -0.03312167
                                         Beta-Beta:   -0.00468823

 Spin contamination <S**2-Sz**2-Sz>     0.00000000
  Reference energy                    -74.859221678150
  RHF-RMP2 correlation energy          -0.158402489793
 !RHF-RMP2 energy                     -75.017624167943
 (NB above energy spin projected)

 Starting RCCSD calculation

 ITER.      SQ.NORM     CORR.ENERGY   TOTAL ENERGY   ENERGY CHANGE        DEN1      VAR(S)    VAR(P)  DIIS     TIME
   1      1.03765119    -0.16953893   -75.02876060    -0.16953893    -0.00326204  0.26D-03  0.65D-03  1  1     0.18
   2      1.04069458    -0.17303406   -75.03225573    -0.00349513    -0.00016113  0.44D-04  0.34D-04  2  2     0.18
   3      1.04176082    -0.17363437   -75.03285605    -0.00060031    -0.00001294  0.60D-05  0.25D-05  3  3     0.19
   4      1.04207124    -0.17373013   -75.03295181    -0.00009576    -0.00000149  0.79D-06  0.30D-06  4  4     0.19
   5      1.04219077    -0.17376023   -75.03298190    -0.00003010    -0.00000006  0.26D-07  0.13D-07  5  5     0.20
   6      1.04220290    -0.17376044   -75.03298212    -0.00000022    -0.00000000  0.93D-09  0.57D-09  6  6     0.20

 Norm of t1 vector:      0.05423821      S-energy:    -0.00475651      T1 diagnostic:  0.00618216
                                                                       D1 diagnostic:  0.01184162
 Norm of t2 vector:      0.19814417      P-energy:    -0.16900393
                                         Alpha-Beta:  -0.13136367
                                         Alpha-Alpha: -0.03294344
                                         Beta-Beta:   -0.00469682

 Spin contamination <S**2-Sz**2-Sz>     0.00000000

 Memory could be reduced to 0.89 Mwords without degradation in triples
 

 RESULTS
 =======

  Reference energy                    -74.859221678150
  RCCSD singles energy                 -0.004756511986
  RCCSD pair energy                    -0.169003932168
  RCCSD correlation energy             -0.173760444154
  Triples (T) contribution             -0.003775237125
  Total correlation energy             -0.177535681279
 
  RHF-RCCSD energy                    -75.032982122304
  RHF-RCCSD[T] energy                 -75.036786190657
  RHF-RCCSD-T energy                  -75.036723303395
 !RHF-RCCSD(T) energy                 -75.036757359429

 Program statistics:

 Available memory in ccsd:              1023999732
 Min. memory needed in ccsd:                 51051
 Max. memory used in ccsd:                   57995
 Max. memory used in cckext:                 80474 ( 6 integral passes)
 Max. memory used in cckint:                138819 ( 1 integral passes)



 **********************************************************************************************************************************
 DATASETS  * FILE   NREC   LENGTH (MB)   RECORD NAMES
              1      22       19.95       500      610      700      900      950      970     1000      129      960     1700   
                                          VAR    BASINP    GEOM    SYMINP    ZMAT    AOBASIS   BASIS     P2S    ABASIS    OPER   
                                         1101     1401     1411     1412     1650     1100     1400     1410     1200     1210   
                                          SR      EKINR    POTR     PVPR    MOLCAS      S      EKIN      POT      H0       H01  
                                         1080     1600   
                                         AOSYM     SMH  

              2       4        2.78       700     1000      520     2100   
                                         GEOM     BASIS   MCVARS     RHF  

 PROGRAMS   *        TOTAL  RCCSD(T)       RHF       INT
 CPU TIMES  *         1.33      0.27      0.08      0.80
 REAL TIME  *         5.47 SEC
 DISK USED  *       312.69 MB      
 SF USED    *         6.22 MB      
 GA USED    *         0.00 MB       (max)       0.00 MB       (current)
 **********************************************************************************************************************************
 SETTING B_CCSD         =       -75.03675736  AU                              
                                                                                                                                                                                                                                                                

 Z   SCF   CCSD   A_SCF   A_CCSD       B_SCF          B_CCSD
 Z   SCF   CCSD   A_SCF   A_CCSD   -74.85922168   -75.03675736
                                                  

 RCCSD(T)/USERDEF energy=    -75.036757359429

        RCCSD(T)        RHF-SCF 
    -75.03675736    -74.85922168
 **********************************************************************************************************************************
 Molpro calculation terminated
 Variable memory released
