
 Primary working directories    : /global/cscratch1/sd/haihan
 Secondary working directories  : /global/cscratch1/sd/haihan
 Wavefunction directory         : /global/homes/h/haihan/wfu/
 Main file repository           : /global/cscratch1/sd/haihan/

 SHA1      : 19cd028119e0e09f93f0674bd8af7968d9b3eff6
 NAME      : 2015.1.36
 ARCHNAME  : linux/x86_64
 FC        : /opt/cray/pe/craype/2.5.14/bin/ftn
 BLASLIB   : -L/opt/intel/compilers_and_libraries_2018.1.163/linux/mkl/lib/intel64 -Wl,-_start-group -lmkl_intel_ilp64 -lmkl_intel_thread -lmkl_core -Wl,-_end-group -liomp5
 id        : lbl

 Nodes     nprocs
 nid00035    11
 Number of processes for MPI-2 version of Molpro:   nprocs(total)=   12   nprocs(compute)=   11   nprocs(helper)=    1

 Using customized tuning parameters: mindgm=7; mindgv=16; mindgc=1; mindgr=1; noblas=0; minvec=7
 default implementation of scratch files=sf  

 ***,Calculation for Mo atom, singlet and triplet
 memory,1,g
 
 gthresh,twoint=1.0E-15
 gthresh,oneint=1.0E-15
 
 geometry={
 1
 Mo
 Mo  0.0 0.0 0.0
 }
 
 basis={
 Including file /global/u2/h/haihan/Research/HZECP/Mo/atom/ECP4.0/Mo.ecp
 
 Including file /global/u2/h/haihan/Research/HZECP/Mo/atom/ECP4.0/aug-cc-pwCVTZ.basis
 }
 
 
 
 Including file /global/u2/h/haihan/Research/HZECP/Mo/atom/ECP4.0/states.proc
 
 
 do i=1,16
     if (i.eq.1) then
         IId4s2
     else if (i.eq.2) then
         Id5s1
     else if (i.eq.3) then
         Id5p1
     else if (i.eq.4) then
         EAd5s2
     else if (i.eq.5) then
         IId4s1
     else if (i.eq.6) then
         Id5
     else if (i.eq.7) then
         IId3s2
     else if (i.eq.8) then
         IIId4
     else if (i.eq.9) then
         IVd3
     else if (i.eq.10) then
         Vd2
     else if (i.eq.11) then
         VId1
     else if (i.eq.12) then
         VIp1
     else if (i.eq.13) then
         VI5f1
     else if (i.eq.14) then
         VIIXeandF
     else if (i.eq.15) then
         Xp3
     else if (i.eq.16) then
         XIIIs2
     endif
     scf(i)=energy
     _CC_NORM_MAX=2.0
     {rccsd(t),shifts=0.2,shiftp=0.2,thrdis=1.0;diis,1,1,15,1;maxit,100;core
     orbital,ignore_error}
     ccsd(i)=energy
 enddo
 
 table,scf,ccsd
 type,csv
 save

 Variables initialized (889), CPU time= 0.00 sec
 Commands  initialized (702), CPU time= 0.01 sec, 572 directives.
 Default parameters read. Elapsed time= 0.18 sec

 Checking input...
 Passed
1


                                         ***  PROGRAM SYSTEM MOLPRO  ***
                                       Copyright, TTI GmbH Stuttgart, 2015
                                    Version 2015.1 linked Dec 29 2018 15:55:43


 **********************************************************************************************************************************
 LABEL *   Calculation for Mo atom, singlet and triplet                                  
  64 bit mpp version                                                                     DATE: 06-Apr-21          TIME: 05:30:39  
 **********************************************************************************************************************************

 SHA1:             19cd028119e0e09f93f0674bd8af7968d9b3eff6
 **********************************************************************************************************************************

 THRESHOLDS:

 ZERO    =  1.00D-12  ONEINT  =  1.00D-12  TWOINT  =  1.00D-15  PREFAC  =  1.00D-14  LOCALI  =  1.00D-09  EORDER  =  1.00D-04
 ENERGY  =  0.00D+00  ETEST   =  0.00D+00  EDENS   =  0.00D+00  THRDEDEF=  1.00D-06  GRADIENT=  1.00D-02  STEP    =  1.00D-03
 ORBITAL =  1.00D-05  CIVEC   =  1.00D-05  COEFF   =  1.00D-04  PRINTCI =  5.00D-02  PUNCHCI =  9.90D+01  OPTGRAD =  3.00D-04
 OPTENERG=  1.00D-06  OPTSTEP =  3.00D-04  THRGRAD =  1.00D-10  COMPRESS=  1.00D-11  VARMIN  =  1.00D-07  VARMAX  =  1.00D-03
 THRDOUB =  0.00D+00  THRDIV  =  1.00D-05  THRRED  =  1.00D-07  THRPSP  =  1.00D+00  THRDC   =  1.00D-10  THRCS   =  1.00D-10
 THRNRM  =  1.00D-08  THREQ   =  0.00D+00  THRDE   =  1.00D+00  THRREF  =  1.00D-05  SPARFAC =  1.00D+00  THRDLP  =  1.00D-07
 THRDIA  =  1.00D-10  THRDLS  =  1.00D-07  THRGPS  =  0.00D+00  THRKEX  =  0.00D+00  THRDIS  =  2.00D-01  THRVAR  =  1.00D-10
 THRLOC  =  1.00D-06  THRGAP  =  1.00D-06  THRLOCT = -1.00D+00  THRGAPT = -1.00D+00  THRORB  =  1.00D-06  THRMLTP =  0.00D+00
 THRCPQCI=  1.00D-10  KEXTA   =  0.00D+00  THRCOARS=  0.00D+00  SYMTOL  =  1.00D-06  GRADTOL =  1.00D-06  THROVL  =  1.00D-08
 THRORTH =  1.00D-08  GRID    =  1.00D-06  GRIDMAX =  1.00D-03  DTMAX   =  0.00D+00  THROCCDE=  1.00D-01  THROCCDE=  1.00D-01



 THRESHOLDS:

 ZERO    =  1.00D-12  ONEINT  =  1.00D-15  TWOINT  =  1.00D-15  PREFAC  =  1.00D-14  LOCALI  =  1.00D-09  EORDER  =  1.00D-04
 ENERGY  =  0.00D+00  ETEST   =  0.00D+00  EDENS   =  0.00D+00  THRDEDEF=  1.00D-06  GRADIENT=  1.00D-02  STEP    =  1.00D-03
 ORBITAL =  1.00D-05  CIVEC   =  1.00D-05  COEFF   =  1.00D-04  PRINTCI =  5.00D-02  PUNCHCI =  9.90D+01  OPTGRAD =  3.00D-04
 OPTENERG=  1.00D-06  OPTSTEP =  3.00D-04  THRGRAD =  1.00D-10  COMPRESS=  1.00D-11  VARMIN  =  1.00D-07  VARMAX  =  1.00D-03
 THRDOUB =  0.00D+00  THRDIV  =  1.00D-05  THRRED  =  1.00D-07  THRPSP  =  1.00D+00  THRDC   =  1.00D-10  THRCS   =  1.00D-10
 THRNRM  =  1.00D-08  THREQ   =  0.00D+00  THRDE   =  1.00D+00  THRREF  =  1.00D-05  SPARFAC =  1.00D+00  THRDLP  =  1.00D-07
 THRDIA  =  1.00D-10  THRDLS  =  1.00D-07  THRGPS  =  0.00D+00  THRKEX  =  0.00D+00  THRDIS  =  2.00D-01  THRVAR  =  1.00D-10
 THRLOC  =  1.00D-06  THRGAP  =  1.00D-06  THRLOCT = -1.00D+00  THRGAPT = -1.00D+00  THRORB  =  1.00D-06  THRMLTP =  0.00D+00
 THRCPQCI=  1.00D-10  KEXTA   =  0.00D+00  THRCOARS=  0.00D+00  SYMTOL  =  1.00D-06  GRADTOL =  1.00D-06  THROVL  =  1.00D-08
 THRORTH =  1.00D-08  GRID    =  1.00D-06  GRIDMAX =  1.00D-03  DTMAX   =  0.00D+00  THROCCDE=  1.00D-01  THROCCDE=  1.00D-01



Geometry recognized as XYZ


 Variable memory set to 1000000000 words,  buffer space   230000 words

 SETTING BASIS          =    USERDEF

 DO I                   =         1.00000000   

 Running procedure=IID4S2


 Recomputing integrals since basis changed


 Using spherical harmonics



 PROGRAM * SEWARD (Integral evaluation for generally contracted gaussian basis sets)     Author: Roland Lindh, 1990

 Geometry written to block  1 of record 700

 Orientation using atomic masses  
 Molecule type: Atom
 Symmetry elements: X,Y,Z
 Rotational constants:       0.0000000      0.0000000      0.0000000 GHz  (calculated with average atomic masses)

 Point group  D2h 



 ATOMIC COORDINATES

 NR  ATOM    CHARGE       X              Y              Z

   1  MO     14.00    0.000000000    0.000000000    0.000000000

 NUCLEAR CHARGE:                   14
 NUMBER OF PRIMITIVE AOS:         312
 NUMBER OF SYMMETRY AOS:          256
 NUMBER OF CONTRACTIONS:          256   (  74Ag  +  34B3u +  34B2u +  25B1g +  34B1u +  25B2g +  25B3g +   5Au  )
 NUMBER OF CORE ORBITALS:           4   (   1Ag  +   1B3u +   1B2u +   0B1g +   1B1u +   0B2g +   0B3g +   0Au  )
 NUMBER OF VALENCE ORBITALS:        6   (   3Ag  +   0B3u +   0B2u +   1B1g +   0B1u +   1B2g +   1B3g +   0Au  )


 NUCLEAR REPULSION ENERGY    0.00000000

 EXTRA SYMMETRY OF AOS IN SYMMETRY 1:   1 1 1 1 1 1 1 1 1 1   1 1 1 1 1 1 1 1 1 1   1 1 1 1 1 1 1 1 2 3   2 3 2 3 2 3 2 3 2 3
                                        2 3 2 3 2 3 2 3 2 3   2 3 2 3 2 3 2 3 2 3   2 3 4 5 6 4 5 6 4 5   6 4 5 6
 EXTRA SYMMETRY OF AOS IN SYMMETRY 2:   1 1 1 1 1 1 1 1 1 1   1 1 1 1 1 1 1 1 1 1   1 1 1 1 2 3 2 3 2 3   2 3 2 3
 EXTRA SYMMETRY OF AOS IN SYMMETRY 3:   1 1 1 1 1 1 1 1 1 1   1 1 1 1 1 1 1 1 1 1   1 1 1 1 2 3 2 3 2 3   2 3 2 3
 EXTRA SYMMETRY OF AOS IN SYMMETRY 4:   1 1 1 1 1 1 1 1 1 1   1 1 1 1 1 1 1 2 3 2   3 2 3 2 3
 EXTRA SYMMETRY OF AOS IN SYMMETRY 5:   1 1 1 1 1 1 1 1 1 1   1 1 1 1 1 1 1 1 1 1   1 1 1 1 2 3 2 3 2 3   2 3 2 3
 EXTRA SYMMETRY OF AOS IN SYMMETRY 6:   1 1 1 1 1 1 1 1 1 1   1 1 1 1 1 1 1 2 3 2   3 2 3 2 3
 EXTRA SYMMETRY OF AOS IN SYMMETRY 7:   1 1 1 1 1 1 1 1 1 1   1 1 1 1 1 1 1 2 3 2   3 2 3 2 3

 Eigenvalues of metric

         1 0.976E-04 0.242E-03 0.242E-03 0.322E-03 0.749E-03 0.149E-02 0.236E-02 0.325E-02
         2 0.140E-04 0.464E-03 0.146E-02 0.372E-02 0.847E-02 0.144E-01 0.248E-01 0.407E-01
         3 0.140E-04 0.464E-03 0.146E-02 0.372E-02 0.847E-02 0.144E-01 0.248E-01 0.407E-01
         4 0.242E-03 0.325E-02 0.114E-01 0.303E-01 0.500E-01 0.974E-01 0.153E+00 0.193E+00
         5 0.140E-04 0.464E-03 0.146E-02 0.372E-02 0.847E-02 0.144E-01 0.248E-01 0.407E-01
         6 0.242E-03 0.325E-02 0.114E-01 0.303E-01 0.500E-01 0.974E-01 0.153E+00 0.193E+00
         7 0.242E-03 0.325E-02 0.114E-01 0.303E-01 0.500E-01 0.974E-01 0.153E+00 0.193E+00
         8 0.112E+00 0.295E+00 0.757E+00 0.154E+01 0.229E+01


 Contracted 2-electron integrals neglected if value below      1.0D-15
 AO integral compression algorithm  1   Integral accuracy      1.0D-15

     561.250 MB (compressed) written to integral file ( 51.7%)

     Node minimum: 32.768 MB, node maximum: 81.265 MB


 NUMBER OF SORTED TWO-ELECTRON INTEGRALS:    6439622.     BUFFER LENGTH:  32768
 NUMBER OF SEGMENTS:   1  SEGMENT LENGTH:    6439622      RECORD LENGTH: 524288

 Memory used in sort:       7.00 MW

 SORT1 READ   135748860. AND WROTE     4149201. INTEGRALS IN     12 RECORDS. CPU TIME:     2.64 SEC, REAL TIME:     2.83 SEC
 SORT2 READ    45683255. AND WROTE    70721685. INTEGRALS IN   1617 RECORDS. CPU TIME:     0.32 SEC, REAL TIME:     0.45 SEC

 Node minimum:     6370092.  Node maximum:     6530222. integrals

 OPERATOR DM      FOR CENTER  0  COORDINATES:    0.000000    0.000000    0.000000


 **********************************************************************************************************************************
 DATASETS  * FILE   NREC   LENGTH (MB)   RECORD NAMES
              1      19       20.40       500      610      700      900      950      970     1000      129      960     1100   
                                          VAR    BASINP    GEOM    SYMINP    ZMAT    AOBASIS   BASIS     P2S    ABASIS      S 
                                         1400     1410     1420     1200     1210     1080     1600     1650     1700   
                                           T        V       ECP      H0       H01     AOSYM     SMH    MOLCAS    OPER   

 PROGRAMS   *        TOTAL       INT
 CPU TIMES  *        22.35     21.90
 REAL TIME  *        24.11 SEC
 DISK USED  *         1.08 GB      
 GA USED    *         0.00 MB       (max)       0.00 MB       (current)
 **********************************************************************************************************************************


 PROGRAM * RHF-SCF (OPEN SHELL)       Authors: W. Meyer, H.-J. Werner


 NUMBER OF ELECTRONS:       9+    5-    SPACE SYMMETRY=1    SPIN SYMMETRY: Quintet 
 CONVERGENCE THRESHOLDS:    1.00E-05 (Density)    1.00E-07 (Energy)
 MAX. NUMBER OF ITERATIONS:       60
 INTERPOLATION TYPE:            DIIS
 INTERPOLATION STEPS:              2 (START)      1 (STEP)
 LEVEL SHIFTS:                 -0.60 (CLOSED) -0.30 (OPEN) 

 Number of closed-shell orbitals:    5 (   2   1   1   0   1   0   0   0 )
 Number of open-shell orbitals:      4 (   1   0   0   1   0   1   1   0 )


 
 Extra symmetries of mos in symmetry 1:   1   1   3   2
 Orbital guess generated from atomic densities. Full valence occupancy:    4   1   1   1   1   1   1   0


 Molecular orbital dump at record        4202.2

 ITERATION    DDIFF          GRAD             ENERGY        2-EL.EN.            DIPOLE MOMENTS         DIIS   ORB.
    1      0.000D+00      0.000D+00       -67.19871908     88.059035    0.00000    0.00000    0.00000    0    start
    2      0.000D+00      0.157D-01       -67.38752289     94.399512    0.00000    0.00000    0.00000    1    diag,B
    3      0.843D-02      0.565D-02       -67.40091154     94.576709    0.00000    0.00000    0.00000    2    diag,B
    4      0.260D-02      0.220D-02       -67.40681969     95.011568    0.00000    0.00000    0.00000    3    diag,B
    5      0.292D-02      0.629D-03       -67.40769825     95.189108    0.00000    0.00000    0.00000    4    diag,B
    6      0.234D-02      0.301D-03       -67.40803025     95.248883    0.00000    0.00000    0.00000    5    diag,B
    7      0.184D-02      0.161D-03       -67.40817592     95.291927    0.00000    0.00000    0.00000    6    fixocc
    8      0.727D-03      0.788D-04       -67.40821409     95.308823    0.00000    0.00000    0.00000    7    diag,B
    9      0.512D-03      0.502D-04       -67.40822947     95.312115    0.00000    0.00000    0.00000    8    diag,B
   10      0.247D-03      0.398D-04       -67.40824706     95.315154    0.00000    0.00000    0.00000    9    orth
   11      0.104D-03      0.253D-04       -67.40825339     95.314952    0.00000    0.00000    0.00000    9    diag,B
   12      0.966D-04      0.179D-04       -67.40825609     95.314716    0.00000    0.00000    0.00000    9    diag,B
   13      0.441D-04      0.146D-04       -67.40825924     95.315376    0.00000    0.00000    0.00000    9    diag,B
   14      0.367D-04      0.109D-04       -67.40826128     95.315939    0.00000    0.00000    0.00000    9    diag,B
   15      0.252D-04      0.900D-05       -67.40826254     95.315624    0.00000    0.00000    0.00000    9    diag,B
   16      0.222D-04      0.820D-05       -67.40826334     95.315385    0.00000    0.00000    0.00000    9    diag,B
   17      0.999D-05      0.798D-05       -67.40826399     95.315448    0.00000    0.00000    0.00000    9    diag,B
   18      0.640D-05      0.790D-05       -67.40826502     95.315510    0.00000    0.00000    0.00000    9    diag,B
   19      0.119D-04      0.781D-05       -67.40826925     95.315231    0.00000    0.00000    0.00000    9    diag,B
   20      0.434D-04      0.742D-05       -67.40828024     95.314613    0.00000    0.00000    0.00000    9    orth
   21      0.122D-03      0.703D-05       -67.40827938     95.314510    0.00000    0.00000    0.00000    9    diag,B
   22      0.116D-04      0.648D-05       -67.40829494     95.315405    0.00000    0.00000    0.00000    9    diag,B
   23      0.277D-03      0.169D-04       -67.40829491     95.315476    0.00000    0.00000    0.00000    9    diag,B
   24      0.353D-05      0.174D-04       -67.40829439     95.315075    0.00000    0.00000    0.00000    9    diag,B
   25      0.155D-04      0.144D-04       -67.40829425     95.315008    0.00000    0.00000    0.00000    9    diag,B
   26      0.523D-05      0.137D-04       -67.40829431     95.314974    0.00000    0.00000    0.00000    9    diag,B
   27      0.316D-05      0.132D-04       -67.40829448     95.315007    0.00000    0.00000    0.00000    9    diag,B
   28      0.489D-05      0.133D-04       -67.40829454     95.315048    0.00000    0.00000    0.00000    9    diag,B
   29      0.179D-05      0.134D-04       -67.40829444     95.315097    0.00000    0.00000    0.00000    9    diag,B
   30      0.314D-05      0.136D-04       -67.40829449     95.314870    0.00000    0.00000    0.00000    9    orth
   31      0.397D-05      0.125D-04       -67.40829469     95.314644    0.00000    0.00000    0.00000    9    diag,B
   32      0.705D-05      0.114D-04       -67.40829508     95.314361    0.00000    0.00000    0.00000    9    diag,B
   33      0.149D-04      0.972D-05       -67.40829516     95.314342    0.00000    0.00000    0.00000    9    diag,B
   34      0.624D-05      0.900D-05       -67.40829523     95.313815    0.00000    0.00000    0.00000    0    orth

 Final alpha occupancy:   3   1   1   1   1   1   1   0
 Final beta  occupancy:   2   1   1   0   1   0   0   0

 !RHF STATE 1.1 Energy                -67.408295226281
 Nuclear energy                         0.00000000
 One-electron energy                 -115.06520260
 Two-electron energy                   47.65690738
 Virial quotient                       -2.91300835
 !RHF STATE 1.1 Dipole moment           0.00000000     0.00000000     0.00000000
 Dipole moment /Debye                   0.00000000     0.00000000     0.00000000

 ELECTRON ORBITALS
 =================


   Orb  Occ    Energy  Couls-En    Coefficients

                                   1 1s      1 1s      1 1s      1 1s      1 1s      1 1s      1 1s      1 1s      1 1s      1 1s   
                                   1 1s      1 1s      1 1s      1 1s      1 1s      1 1s      1 1s      1 1s      1 1s      1 1s   
                                   1 1s      1 1s      1 1s      1 1s      1 1s      1 1s      1 1s      1 1s      1 3d0     1 3d2+ 
                                   1 3d0     1 3d2+    1 3d0     1 3d2+    1 3d0     1 3d2+    1 3d0     1 3d2+    1 3d0     1 3d2+ 
                                   1 3d0     1 3d2+    1 3d0     1 3d2+    1 3d0     1 3d2+    1 3d0     1 3d2+    1 3d0     1 3d2+ 
                                   1 3d0     1 3d2+    1 3d0     1 3d2+    1 3d0     1 3d2+    1 3d0     1 3d2+    1 3d0     1 3d2+ 
                                   1 3d0     1 3d2+    1 5g0     1 5g4+    1 5g2+    1 5g0     1 5g4+    1 5g2+    1 5g0     1 5g4+ 
                                   1 5g2+    1 5g0     1 5g4+    1 5g2+ 

   1.1   2    -3.0613  -13.8907 -0.000000  0.000000 -0.000000  0.000000 -0.000000  0.000000 -0.000001  0.000002 -0.000007  0.000021
                                -0.000055  0.000143 -0.000363  0.000904 -0.002221  0.005366 -0.011725  0.000355  0.211739 -0.627946
                                -0.113926  0.819545  0.518732  0.027457 -0.012114  0.004546 -0.001771  0.000408  0.000000 -0.000000
                                -0.000000  0.000000  0.000000 -0.000000 -0.000000  0.000001  0.000002 -0.000002 -0.000003  0.000004
                                 0.000071 -0.000117 -0.000187  0.000306 -0.000127  0.000194  0.000224 -0.000619  0.001015 -0.001895
                                 0.000422 -0.000788  0.000083 -0.000150  0.002148 -0.003511  0.002595 -0.004188 -0.000013  0.000022
                                 0.000004 -0.000007 -0.000177 -0.000038 -0.000133 -0.000809 -0.000204 -0.000564 -0.000346 -0.000086
                                -0.000245  0.000016  0.000005  0.000009

   2.1   2    -0.2349   -4.4279  0.000000 -0.000000  0.000000 -0.000000  0.000000 -0.000000  0.000000 -0.000001  0.000003 -0.000007
                                 0.000020 -0.000051  0.000130 -0.000325  0.000802 -0.001957  0.004457 -0.002563 -0.062388  0.208046
                                 0.025040 -0.325531 -0.351474  0.261280  0.624720  0.307905 -0.004364  0.002922  0.000000 -0.000000
                                -0.000000  0.000000  0.000000 -0.000000 -0.000001  0.000001  0.000004 -0.000006  0.000005 -0.000008
                                 0.000361 -0.000576 -0.000920  0.001470  0.000184 -0.000299  0.012432 -0.019694  0.021538 -0.034001
                                 0.016341 -0.025606  0.006103 -0.009486  0.009187 -0.014701  0.007059 -0.011343  0.000042 -0.000062
                                 0.000083 -0.000130 -0.000261  0.000004 -0.000285 -0.000142  0.000163 -0.000389  0.000417  0.000295
                                 0.000018  0.000230  0.000126  0.000064

   3.1   +    -0.4280   -7.3483  0.000000 -0.000000  0.000000 -0.000000  0.000000 -0.000000  0.000000 -0.000000  0.000000 -0.000001
                                 0.000003 -0.000009  0.000022 -0.000055  0.000133 -0.000316  0.000713 -0.000861 -0.004821  0.018561
                                 0.005493 -0.041481 -0.032155  0.060647  0.045819  0.026100 -0.002900  0.000841 -0.000000  0.000000
                                 0.000000 -0.000000 -0.000001  0.000001  0.000003 -0.000006 -0.000028  0.000052 -0.000075  0.000139
                                -0.003759  0.006958  0.009645 -0.017854 -0.000996  0.001843 -0.129426  0.239603 -0.178732  0.330828
                                -0.077115  0.142794 -0.010957  0.020364 -0.101699  0.188261 -0.080976  0.149880  0.001008 -0.001861
                                -0.000300  0.000557  0.000702 -0.000548  0.001619  0.001780 -0.000954  0.003499  0.001580 -0.000274
                                 0.002303  0.000313 -0.000024  0.000413

   4.1   0     0.0190   -4.6862 -0.000000  0.000000 -0.000000  0.000000 -0.000000  0.000000 -0.000000  0.000000 -0.000000  0.000000
                                -0.000000  0.000001 -0.000001  0.000003 -0.000008  0.000018 -0.000041  0.000056  0.000179 -0.000739
                                -0.000355  0.001843  0.000965  0.000650 -0.006481  0.009715 -0.023981  0.016435  0.000000  0.000000
                                -0.000001 -0.000000  0.000003  0.000002 -0.000014 -0.000008  0.000067  0.000036  0.000001  0.000001
                                 0.004938  0.002673 -0.012563 -0.006800  0.001841  0.000997  0.142582  0.077170  0.260301  0.140848
                                 0.176928  0.095683  0.172678  0.093456  0.123084  0.066629  0.118399  0.064099 -0.016331 -0.008903
                                 0.431770  0.233952 -0.000118  0.000115  0.000091 -0.000446  0.000434  0.000344 -0.000460  0.000450
                                 0.000357 -0.000052  0.000025  0.000010

   5.1   0     0.0084   -0.9444 -0.000000  0.000000 -0.000000  0.000000 -0.000000  0.000000 -0.000000  0.000000 -0.000001  0.000004
                                -0.000010  0.000025 -0.000064  0.000157 -0.000376  0.000872 -0.001909  0.003120  0.001764 -0.014382
                                -0.018415  0.061916  0.009143  0.095398 -0.441858  0.709058 -1.642428  1.941390 -0.000000  0.000000
                                 0.000000 -0.000000 -0.000000  0.000000  0.000000 -0.000000 -0.000000  0.000000 -0.000000 -0.000000
                                -0.000034 -0.000003  0.000085  0.000008 -0.000015  0.000012 -0.001107 -0.000112 -0.001948  0.000107
                                -0.001565  0.000312 -0.000975 -0.000019 -0.000839 -0.000137 -0.000711 -0.000087 -0.000379 -0.000068
                                -0.000857 -0.000152  0.000018  0.000003  0.000014  0.000163  0.000039  0.000110  0.000165  0.000041
                                 0.000109  0.000120  0.000030  0.000084

                                   1 2px     1 2px     1 2px     1 2px     1 2px     1 2px     1 2px     1 2px     1 2px     1 2px  
                                   1 2px     1 2px     1 2px     1 2px     1 2px     1 2px     1 2px     1 2px     1 2px     1 2px  
                                   1 2px     1 2px     1 2px     1 2px     1 4f1+    1 4f3+    1 4f1+    1 4f3+    1 4f1+    1 4f3+ 
                                   1 4f1+    1 4f3+    1 4f1+    1 4f3+ 

   1.2   2    -1.8937  -11.4194  0.000000 -0.000000  0.000000 -0.000001  0.000004 -0.000018  0.000064 -0.000202  0.000586 -0.001613
                                 0.004483 -0.014044  0.049964 -0.083034 -0.296980  0.255305  0.558028  0.318364  0.048350 -0.004848
                                 0.003084  0.152959 -0.001334  0.000395  0.001688 -0.001897  0.002241 -0.002511  0.000588 -0.000548
                                -0.000037  0.000048  0.000028 -0.000030

   2.2   0     0.0079   -1.1598 -0.000000  0.000000 -0.000000  0.000000 -0.000000  0.000002 -0.000007  0.000022 -0.000063  0.000169
                                -0.000451  0.001296 -0.004245  0.008833 -0.002910 -0.034883 -0.029867 -0.040696  0.062520  0.033702
                                 0.274703  0.020192 -0.286527  1.082160 -0.000098  0.000127 -0.000098  0.000161  0.000325 -0.000273
                                 0.000627 -0.000673  0.000486 -0.000622

   3.2   0     0.0217   -1.8331  0.000000 -0.000000  0.000000 -0.000000  0.000000 -0.000000  0.000000 -0.000002  0.000006 -0.000026
                                 0.000128 -0.000722  0.003834 -0.003863 -0.088518 -0.005244  0.115729  0.019287 -0.010042 -0.352466
                                 0.142636  0.092230 -1.411371  1.162863  0.000200 -0.000260  0.000200 -0.000325 -0.000667  0.000561
                                -0.001248  0.001347 -0.001011  0.001255

                                   1 2py     1 2py     1 2py     1 2py     1 2py     1 2py     1 2py     1 2py     1 2py     1 2py  
                                   1 2py     1 2py     1 2py     1 2py     1 2py     1 2py     1 2py     1 2py     1 2py     1 2py  
                                   1 2py     1 2py     1 2py     1 2py     1 4f1-    1 4f3-    1 4f1-    1 4f3-    1 4f1-    1 4f3- 
                                   1 4f1-    1 4f3-    1 4f1-    1 4f3- 

   1.3   2    -1.8997  -11.4312  0.000000 -0.000000  0.000000 -0.000001  0.000004 -0.000018  0.000063 -0.000202  0.000585 -0.001611
                                 0.004478 -0.014038  0.049955 -0.082812 -0.298966  0.254606  0.562530  0.315515  0.045808 -0.004216
                                 0.002894  0.154635 -0.001235  0.000366  0.002933 -0.000767  0.004759 -0.000567  0.003665  0.001138
                                -0.000014  0.000028  0.000125  0.000028

   2.3   0     0.0077   -1.1914 -0.000000  0.000000 -0.000000  0.000000 -0.000000  0.000002 -0.000007  0.000022 -0.000063  0.000171
                                -0.000455  0.001314 -0.004325  0.008930 -0.001603 -0.034972 -0.031778 -0.041761  0.062530  0.041939
                                 0.278090  0.018965 -0.265410  1.060672  0.000024  0.000155  0.000459  0.000403  0.001718  0.000491
                                 0.001364 -0.000172  0.000493 -0.000492

   3.3   0     0.0211   -1.8180  0.000000 -0.000000  0.000000 -0.000000  0.000000 -0.000000  0.000000 -0.000002  0.000006 -0.000026
                                 0.000125 -0.000709  0.003766 -0.003763 -0.087247 -0.005351  0.114023  0.019896 -0.008780 -0.352613
                                 0.133570  0.090895 -1.396647  1.177610 -0.000049 -0.000302 -0.000885 -0.000776 -0.003333 -0.000950
                                -0.002615  0.000307 -0.001184  0.000844

                                   1 3d2-    1 3d2-    1 3d2-    1 3d2-    1 3d2-    1 3d2-    1 3d2-    1 3d2-    1 3d2-    1 3d2- 
                                   1 3d2-    1 3d2-    1 3d2-    1 3d2-    1 3d2-    1 3d2-    1 3d2-    1 5g2-    1 5g4-    1 5g2- 
                                   1 5g4-    1 5g2-    1 5g4-    1 5g2-    1 5g4- 

   1.4   +    -0.4375   -7.3963  0.000000 -0.000000  0.000001 -0.000007  0.000059  0.000162  0.007971 -0.020453  0.002000  0.275584
                                 0.377717  0.160115  0.022324  0.216026  0.171629 -0.002005  0.000605  0.001269 -0.000415  0.002843
                                -0.000532  0.001965  0.000149  0.000355  0.000056

   2.4   0     0.0236   -0.8733  0.000000 -0.000001  0.000007 -0.000027  0.000087 -0.000246  0.000512 -0.001232  0.003976 -0.072090
                                 0.025962 -0.050522  0.126005 -0.012307  0.058697 -0.353729  1.186130 -0.000015  0.000007 -0.000031
                                 0.000011 -0.000006 -0.000001 -0.000002 -0.000084

   3.4   0     0.0791   -1.3710 -0.000001  0.000004 -0.000022  0.000088 -0.000287  0.000772 -0.002582  0.006378 -0.013236  0.202217
                                -0.130973  0.165088 -0.430430  0.014370 -0.211386  1.627380 -0.782780 -0.000086  0.000040 -0.000168
                                 0.000072 -0.000023 -0.000029 -0.000005 -0.000505

                                   1 2pz     1 2pz     1 2pz     1 2pz     1 2pz     1 2pz     1 2pz     1 2pz     1 2pz     1 2pz  
                                   1 2pz     1 2pz     1 2pz     1 2pz     1 2pz     1 2pz     1 2pz     1 2pz     1 2pz     1 2pz  
                                   1 2pz     1 2pz     1 2pz     1 2pz     1 4f0     1 4f2+    1 4f0     1 4f2+    1 4f0     1 4f2+ 
                                   1 4f0     1 4f2+    1 4f0     1 4f2+ 

   1.5   2    -1.8999  -11.4317  0.000000 -0.000000  0.000000 -0.000001  0.000004 -0.000018  0.000063 -0.000202  0.000585 -0.001611
                                 0.004478 -0.014038  0.049955 -0.082801 -0.299028  0.254613  0.562737  0.315333  0.045752 -0.004166
                                 0.002886  0.154652 -0.001231  0.000364 -0.001097 -0.002616 -0.002450 -0.003876 -0.003305 -0.002071
                                -0.000011  0.000028 -0.000104 -0.000077

   2.5   0     0.0077   -1.1968 -0.000000  0.000000 -0.000000  0.000000 -0.000000  0.000002 -0.000007  0.000022 -0.000064  0.000171
                                -0.000457  0.001321 -0.004352  0.008972 -0.001320 -0.035067 -0.032270 -0.041989  0.062859  0.043404
                                 0.278646  0.018730 -0.262573  1.057502 -0.000144  0.000078 -0.000620 -0.000095 -0.001446 -0.000972
                                -0.000649 -0.001105  0.000052 -0.000693

   3.5   0     0.0211   -1.8176  0.000000 -0.000000  0.000000 -0.000000  0.000000 -0.000000  0.000000 -0.000002  0.000006 -0.000027
                                 0.000127 -0.000714  0.003783 -0.003799 -0.087212 -0.005206  0.114144  0.020113 -0.009232 -0.352967
                                 0.131990  0.090782 -1.393319  1.179401  0.000281 -0.000148  0.001188  0.000183  0.002781  0.001873
                                 0.001273  0.002097  0.000098  0.001422

                                   1 3d1+    1 3d1+    1 3d1+    1 3d1+    1 3d1+    1 3d1+    1 3d1+    1 3d1+    1 3d1+    1 3d1+ 
                                   1 3d1+    1 3d1+    1 3d1+    1 3d1+    1 3d1+    1 3d1+    1 3d1+    1 5g1+    1 5g3+    1 5g1+ 
                                   1 5g3+    1 5g1+    1 5g3+    1 5g1+    1 5g3+ 

   1.6   +    -0.4394   -7.4007  0.000000 -0.000000  0.000001 -0.000007  0.000059  0.000162  0.007975 -0.020463  0.001978  0.275919
                                 0.377687  0.159475  0.022054  0.216194  0.171714 -0.001985  0.000598  0.000012 -0.001220 -0.000385
                                -0.002599 -0.000790 -0.001616 -0.000172 -0.000281

   2.6   0     0.0236   -0.8733  0.000000 -0.000001  0.000007 -0.000027  0.000087 -0.000246  0.000513 -0.001233  0.003978 -0.072095
                                 0.025989 -0.050504  0.126048 -0.012301  0.058717 -0.353823  1.186172 -0.000002  0.000015 -0.000001
                                 0.000030  0.000006  0.000006  0.000076 -0.000032

   3.6   0     0.0791   -1.3711 -0.000001  0.000004 -0.000022  0.000088 -0.000287  0.000772 -0.002581  0.006375 -0.013235  0.202253
                                -0.130887  0.165248 -0.430290  0.014400 -0.211367  1.627236 -0.782684 -0.000012  0.000087 -0.000019
                                 0.000167  0.000054  0.000017  0.000458 -0.000196

                                   1 3d1-    1 3d1-    1 3d1-    1 3d1-    1 3d1-    1 3d1-    1 3d1-    1 3d1-    1 3d1-    1 3d1- 
                                   1 3d1-    1 3d1-    1 3d1-    1 3d1-    1 3d1-    1 3d1-    1 3d1-    1 5g1-    1 5g3-    1 5g1- 
                                   1 5g3-    1 5g1-    1 5g3-    1 5g1-    1 5g3- 

   1.7   +    -0.4676   -7.4692  0.000000 -0.000000  0.000001 -0.000006  0.000057  0.000170  0.008047 -0.020649  0.001619  0.281473
                                 0.376207  0.148939  0.018296  0.219354  0.173388 -0.001698  0.000501  0.000323 -0.000775  0.000596
                                -0.001500  0.000260 -0.000737  0.000039 -0.000115

   2.7   0     0.0236   -0.8735  0.000000 -0.000001  0.000007 -0.000027  0.000087 -0.000246  0.000516 -0.001242  0.003980 -0.071960
                                 0.026240 -0.050097  0.126438 -0.012201  0.058773 -0.353406  1.185894 -0.000004  0.000010 -0.000008
                                 0.000018  0.000002  0.000001  0.000015 -0.000044

   3.7   0     0.0789   -1.3733 -0.000001  0.000004 -0.000022  0.000088 -0.000285  0.000769 -0.002556  0.006313 -0.013159  0.201741
                                -0.129259  0.166776 -0.425086  0.014637 -0.210266  1.623233 -0.781972 -0.000023  0.000057 -0.000044
                                 0.000105  0.000020 -0.000011  0.000093 -0.000269

                                   1 4f2-    1 4f2-    1 4f2-    1 4f2-    1 4f2- 

   1.8   0     0.1907   -1.6825  0.008399 -0.015682  0.087909 -0.254135  1.133688

   2.8   0     0.5153   -2.4253  0.006545  0.096312 -0.085738  1.319843 -0.677361

 HOMO      3.1    -0.428004 =     -11.6466eV
 LUMO      2.5     0.007724 =       0.2102eV
 LUMO-HOMO         0.435727 =      11.8567eV


 **********************************************************************************************************************************
 DATASETS  * FILE   NREC   LENGTH (MB)   RECORD NAMES
              1      19       20.43       500      610      700      900      950      970     1000      129      960     1100   
                                          VAR    BASINP    GEOM    SYMINP    ZMAT    AOBASIS   BASIS     P2S    ABASIS      S 
                                         1400     1410     1420     1200     1210     1080     1600     1650     1700   
                                           T        V       ECP      H0       H01     AOSYM     SMH    MOLCAS    OPER   

              2       5        5.68       200      700     1000      520     4202   
                                        OPTIONS   GEOM     BASIS   MCVARS     RHF  

 PROGRAMS   *        TOTAL       RHF       INT
 CPU TIMES  *        23.57      1.22     21.90
 REAL TIME  *        25.63 SEC
 DISK USED  *         1.39 GB      
 SF USED    *         0.04 MB      
 GA USED    *         0.00 MB       (max)       0.00 MB       (current)
 **********************************************************************************************************************************


 PROGRAM * POP (Mulliken population analysis)

 
 Density matrix read from record         4202.2  Type=RHF/CHARGE (state 1.1)
 
 Population analysis by basis function type

 Unique atom        s        p        d        f        g    Total    Charge
   1  MO      3.98829  5.99958  4.01160  0.00042  0.00011 14.00000  + 0.00000


 **********************************************************************************************************************************
 DATASETS  * FILE   NREC   LENGTH (MB)   RECORD NAMES
              1      19       20.43       500      610      700      900      950      970     1000      129      960     1100   
                                          VAR    BASINP    GEOM    SYMINP    ZMAT    AOBASIS   BASIS     P2S    ABASIS      S 
                                         1400     1410     1420     1200     1210     1080     1600     1650     1700   
                                           T        V       ECP      H0       H01     AOSYM     SMH    MOLCAS    OPER   

              2       5        5.68       200      700     1000      520     4202   
                                        OPTIONS   GEOM     BASIS   MCVARS     RHF  

 PROGRAMS   *        TOTAL       POP       RHF       INT
 CPU TIMES  *        23.58      0.01      1.22     21.90
 REAL TIME  *        25.65 SEC
 DISK USED  *         1.39 GB      
 SF USED    *         0.04 MB      
 GA USED    *         0.00 MB       (max)       0.00 MB       (current)
 **********************************************************************************************************************************


 PROGRAM * MULTI (Direct Multiconfiguration SCF)       Authors: P.J. Knowles, H.-J. Werner (1984)     S.T. Elbert (1988)


 Number of closed-shell orbitals:   5 (   2   1   1   0   1   0   0   0 )
 Number of active  orbitals:        5 (   2   0   0   1   0   1   1   0 )
 Number of external orbitals:     246 (  70  33  33  24  33  24  24   5 )

 State symmetry 1

 Number of electrons:     4    Spin symmetry=Quintet   Space symmetry=1
 Number of states:        2
 Number of CSFs:          2   (2 determinants, 5 intermediate states)

 State symmetry 2

 Number of electrons:     4    Spin symmetry=Quintet   Space symmetry=4
 Number of states:        1
 Number of CSFs:          1   (1 determinants, 5 intermediate states)

 State symmetry 3

 Number of electrons:     4    Spin symmetry=Quintet   Space symmetry=6
 Number of states:        1
 Number of CSFs:          1   (1 determinants, 5 intermediate states)

 State symmetry 4

 Number of electrons:     4    Spin symmetry=Quintet   Space symmetry=7
 Number of states:        1
 Number of CSFs:          1   (1 determinants, 5 intermediate states)

 Molecular orbitals read from record     4202.2  Type=RHF/CANONICAL (state 1.1)
 *** IN SYMMETRY 1 ORBITAL  1 SYMMETRY CONTAMINATION OF 0.896D-02 HAS BEEN REMOVED
 *** IN SYMMETRY 1 ORBITAL  2 SYMMETRY CONTAMINATION OF 0.816D-01 HAS BEEN REMOVED
 *** IN SYMMETRY 1 ORBITAL  3 SYMMETRY CONTAMINATION OF 0.436D+00 HAS BEEN REMOVED
 *** IN SYMMETRY 1 ORBITAL  4 SYMMETRY CONTAMINATION OF 0.369D+00 HAS BEEN REMOVED

 EXTRA SYMMETRY OF MOS IN SYMMETRY 1:   1 1 3 2 1 3 2 1 3 2   1 3 2 1 4 5 6 3 2 4   5 6 3 2 1 3 3 2 5 4   2 3 1 4 5 6 2 3 1 2
                                        3 2 3 1 1 2 3 1 2 3   1 2 3 1 1 2 3 1 2 3   1 1 2 1 1 1 1 1 1 1   1 1 1 6
 *** IN SYMMETRY 2 ORBITAL  1 SYMMETRY CONTAMINATION OF 0.533D-02 HAS BEEN REMOVED
 EXTRA SYMMETRY OF MOS IN SYMMETRY 2:   1 1 1 1 3 2 1 3 2 1   3 2 1 3 2 1 2 3 1 1   1 1 1 1 1 1 1 1 1 1   1 1 1 1
 *** IN SYMMETRY 3 ORBITAL  1 SYMMETRY CONTAMINATION OF 0.775D-02 HAS BEEN REMOVED
 EXTRA SYMMETRY OF MOS IN SYMMETRY 3:   1 1 1 1 2 3 1 3 2 1   3 2 1 2 3 1 2 3 1 1   1 1 1 1 1 1 1 1 1 1   1 1 1 1
 *** IN SYMMETRY 4 ORBITAL  1 SYMMETRY CONTAMINATION OF 0.600D-02 HAS BEEN REMOVED
 EXTRA SYMMETRY OF MOS IN SYMMETRY 4:   1 1 1 1 2 3 1 2 3 1   1 2 3 1 2 3 1 1 1 1   1 1 1 1 1
 *** IN SYMMETRY 5 ORBITAL  1 SYMMETRY CONTAMINATION OF 0.864D-02 HAS BEEN REMOVED
 EXTRA SYMMETRY OF MOS IN SYMMETRY 5:   1 1 1 1 3 2 1 3 2 1   3 2 1 3 2 1 2 3 1 1   1 1 1 1 1 1 1 1 1 1   1 1 1 1
 *** IN SYMMETRY 6 ORBITAL  1 SYMMETRY CONTAMINATION OF 0.560D-02 HAS BEEN REMOVED
 EXTRA SYMMETRY OF MOS IN SYMMETRY 6:   1 1 1 1 2 3 1 3 2 1   1 3 2 1 3 2 1 1 1 1   1 1 1 1 1
 *** IN SYMMETRY 7 ORBITAL  1 SYMMETRY CONTAMINATION OF 0.346D-02 HAS BEEN REMOVED
 EXTRA SYMMETRY OF MOS IN SYMMETRY 7:   1 1 1 1 2 3 1 2 3 1   1 2 3 1 2 3 1 1 1 1   1 1 1 1 1

 Wavefunction dump at record             5202.2

 Convergence thresholds  0.10E-01 (gradient)  0.10E-05 (energy)  0.10E-02 (step length)

 Weight factors for state symmetry  1:    0.20000   0.20000
 Weight factors for state symmetry  2:    0.20000
 Weight factors for state symmetry  3:    0.20000
 Weight factors for state symmetry  4:    0.20000

 Number of orbital rotations:      455   (     4 Core/Active    239 Core/Virtual   0 Active/Active    212 Active/Virtual)
 Total number of variables:        462


 ITER. MIC  NCI  NEG     ENERGY(VAR)     ENERGY(PROJ)   ENERGY CHANGE     GRAD(0)  GRAD(ORB)   GRAD(CI)     STEP       TIME

   1   49   16    0     -67.30016586     -67.40514041   -0.10497455    0.20408050 0.00000000 0.00000000  0.57D+00      0.19
   2   23   20    0     -67.40455675     -67.40484745   -0.00029069    0.02392370 0.00000000 0.00000000  0.20D-01      0.36
   3   27   20    0     -67.40484871     -67.40484872   -0.00000001    0.00013642 0.00000000 0.00000000  0.14D-03      0.55

 ** WVFN ****  CONVERGENCE REACHED, FINAL GRADIENT:  0.68D-08



 Results for state 1.1
 =====================

 !MCSCF STATE 1.1 Energy              -67.404848722597
 Nuclear energy                         0.00000000
 Kinetic energy                        23.13322141
 One electron energy                 -115.04866460
 Two electron energy                   47.64381588
 Virial ratio                           3.91376836

 !MCSCF STATE 1.1 Dipole moment         0.00000000     0.00000000     0.00000000
 Dipole moment /Debye                   0.00000000     0.00000000     0.00000000

 Results for state 2.1
 =====================

 !MCSCF STATE 2.1 Energy              -67.404848722578
 Nuclear energy                         0.00000000
 Kinetic energy                        23.13322142
 One electron energy                 -115.04866461
 Two electron energy                   47.64381589
 Virial ratio                           3.91376836

 !MCSCF STATE 2.1 Dipole moment         0.00000000     0.00000000     0.00000000
 Dipole moment /Debye                   0.00000000     0.00000000     0.00000000



 Results for state 1.4
 =====================

 !MCSCF STATE 1.4 Energy              -67.404848722598
 Nuclear energy                         0.00000000
 Kinetic energy                        23.13322141
 One electron energy                 -115.04866460
 Two electron energy                   47.64381588
 Virial ratio                           3.91376836

 !MCSCF STATE 1.4 Dipole moment         0.00000000     0.00000000     0.00000000
 Dipole moment /Debye                   0.00000000     0.00000000     0.00000000



 Results for state 1.6
 =====================

 !MCSCF STATE 1.6 Energy              -67.404848722550
 Nuclear energy                         0.00000000
 Kinetic energy                        23.13322141
 One electron energy                 -115.04866460
 Two electron energy                   47.64381588
 Virial ratio                           3.91376836

 !MCSCF STATE 1.6 Dipole moment         0.00000000     0.00000000     0.00000000
 Dipole moment /Debye                   0.00000000     0.00000000     0.00000000



 Results for state 1.7
 =====================

 !MCSCF STATE 1.7 Energy              -67.404848722549
 Nuclear energy                         0.00000000
 Kinetic energy                        23.13322141
 One electron energy                 -115.04866460
 Two electron energy                   47.64381588
 Virial ratio                           3.91376836

 !MCSCF STATE 1.7 Dipole moment         0.00000000     0.00000000     0.00000000
 Dipole moment /Debye                   0.00000000     0.00000000     0.00000000

 State-averaged charge density matrix saved on record  5202.2 (density set 1)


 NATURAL ORBITALS (state averaged)
 =================================

   Orb     Occ        Energy       Coefficients

                                   1 1s      1 1s      1 1s      1 1s      1 1s      1 1s      1 1s      1 1s      1 1s      1 1s   
                                   1 1s      1 1s      1 1s      1 1s      1 1s      1 1s      1 1s      1 1s      1 1s      1 1s   
                                   1 1s      1 1s      1 1s      1 1s      1 1s      1 1s      1 1s      1 1s      1 3d0     1 3d2+ 
                                   1 3d0     1 3d2+    1 3d0     1 3d2+    1 3d0     1 3d2+    1 3d0     1 3d2+    1 3d0     1 3d2+ 
                                   1 3d0     1 3d2+    1 3d0     1 3d2+    1 3d0     1 3d2+    1 3d0     1 3d2+    1 3d0     1 3d2+ 
                                   1 3d0     1 3d2+    1 3d0     1 3d2+    1 3d0     1 3d2+    1 3d0     1 3d2+    1 3d0     1 3d2+ 
                                   1 3d0     1 3d2+    1 5g0     1 5g4+    1 5g2+    1 5g0     1 5g4+    1 5g2+    1 5g0     1 5g4+ 
                                   1 5g2+    1 5g0     1 5g4+    1 5g2+ 

   1.1  2.00000    -3.062919    -0.000000  0.000000 -0.000000  0.000000 -0.000000  0.000000 -0.000001  0.000002 -0.000007  0.000021
                                -0.000055  0.000143 -0.000363  0.000904 -0.002221  0.005366 -0.011726  0.000360  0.211706 -0.627851
                                -0.113955  0.819485  0.518485  0.027685 -0.011778  0.004657 -0.001772  0.000409  0.000000  0.000000
                                 0.000000  0.000000  0.000000  0.000000  0.000000  0.000000  0.000000  0.000000  0.000000  0.000000
                                 0.000000  0.000000  0.000000  0.000000  0.000000  0.000000  0.000000  0.000000  0.000000  0.000000
                                 0.000000  0.000000  0.000000  0.000000  0.000000  0.000000  0.000000  0.000000  0.000000  0.000000
                                 0.000000  0.000000  0.000000  0.000000  0.000000  0.000000  0.000000  0.000000  0.000000  0.000000
                                 0.000000  0.000000  0.000000  0.000000

   2.1  2.00000    -0.234176     0.000000 -0.000000  0.000000 -0.000000  0.000000 -0.000000  0.000000 -0.000001  0.000003 -0.000007
                                 0.000020 -0.000052  0.000131 -0.000326  0.000803 -0.001960  0.004466 -0.002563 -0.062581  0.208671
                                 0.025092 -0.326305 -0.353293  0.261821  0.628312  0.310229 -0.004227  0.002971  0.000000  0.000000
                                 0.000000  0.000000  0.000000  0.000000  0.000000  0.000000  0.000000  0.000000  0.000000  0.000000
                                 0.000000  0.000000  0.000000  0.000000  0.000000  0.000000  0.000000  0.000000  0.000000  0.000000
                                 0.000000  0.000000  0.000000  0.000000  0.000000  0.000000  0.000000  0.000000  0.000000  0.000000
                                 0.000000  0.000000  0.000000  0.000000  0.000000  0.000000  0.000000  0.000000  0.000000  0.000000
                                 0.000000  0.000000  0.000000  0.000000

   3.1  0.80000    -0.094128     0.000000  0.000000  0.000000  0.000000  0.000000  0.000000  0.000000  0.000000  0.000000  0.000000
                                 0.000000  0.000000  0.000000  0.000000  0.000000  0.000000  0.000000  0.000000  0.000000  0.000000
                                 0.000000  0.000000  0.000000  0.000000  0.000000  0.000000  0.000000  0.000000  0.000000  0.000000
                                -0.000000  0.000000  0.000001  0.000000 -0.000007  0.000000  0.000059  0.000000  0.000164  0.000000
                                 0.007989  0.000000 -0.020500  0.000000  0.001934  0.000000  0.276853  0.000000  0.377270  0.000000
                                 0.157765  0.000000  0.021532  0.000000  0.216806  0.000000  0.172047  0.000000 -0.001961  0.000000
                                 0.000588  0.000000  0.000000  0.000000  0.000000  0.000000  0.000000  0.000000  0.000000  0.000000
                                 0.000000  0.000000  0.000000  0.000000

   4.1  0.80000    -0.094128     0.000000  0.000000  0.000000  0.000000  0.000000  0.000000  0.000000  0.000000  0.000000  0.000000
                                 0.000000  0.000000  0.000000  0.000000  0.000000  0.000000  0.000000  0.000000  0.000000  0.000000
                                 0.000000  0.000000  0.000000  0.000000  0.000000  0.000000  0.000000  0.000000  0.000000  0.000000
                                 0.000000 -0.000000  0.000000  0.000001  0.000000 -0.000007  0.000000  0.000059  0.000000  0.000164
                                 0.000000  0.007989  0.000000 -0.020500  0.000000  0.001934  0.000000  0.276853  0.000000  0.377270
                                 0.000000  0.157765  0.000000  0.021532  0.000000  0.216806  0.000000  0.172047  0.000000 -0.001961
                                 0.000000  0.000588  0.000000  0.000000  0.000000  0.000000  0.000000  0.000000  0.000000  0.000000
                                 0.000000  0.000000  0.000000  0.000000

                                   1 2px     1 2px     1 2px     1 2px     1 2px     1 2px     1 2px     1 2px     1 2px     1 2px  
                                   1 2px     1 2px     1 2px     1 2px     1 2px     1 2px     1 2px     1 2px     1 2px     1 2px  
                                   1 2px     1 2px     1 2px     1 2px     1 4f1+    1 4f3+    1 4f1+    1 4f3+    1 4f1+    1 4f3+ 
                                   1 4f1+    1 4f3+    1 4f1+    1 4f3+ 

   1.2  2.00000    -1.899112     0.000000 -0.000000  0.000000 -0.000001  0.000004 -0.000018  0.000064 -0.000202  0.000586 -0.001612
                                 0.004480 -0.014040  0.049962 -0.082885 -0.298427  0.254821  0.561254  0.316342  0.046529 -0.004392
                                 0.002948  0.154196 -0.001263  0.000374  0.000000  0.000000  0.000000  0.000000  0.000000  0.000000
                                 0.000000  0.000000  0.000000  0.000000

                                   1 2py     1 2py     1 2py     1 2py     1 2py     1 2py     1 2py     1 2py     1 2py     1 2py  
                                   1 2py     1 2py     1 2py     1 2py     1 2py     1 2py     1 2py     1 2py     1 2py     1 2py  
                                   1 2py     1 2py     1 2py     1 2py     1 4f1-    1 4f3-    1 4f1-    1 4f3-    1 4f1-    1 4f3- 
                                   1 4f1-    1 4f3-    1 4f1-    1 4f3- 

   1.3  2.00000    -1.899112     0.000000 -0.000000  0.000000 -0.000001  0.000004 -0.000018  0.000064 -0.000202  0.000586 -0.001612
                                 0.004480 -0.014040  0.049962 -0.082885 -0.298427  0.254821  0.561254  0.316342  0.046529 -0.004392
                                 0.002948  0.154196 -0.001263  0.000374  0.000000  0.000000  0.000000  0.000000  0.000000  0.000000
                                 0.000000  0.000000  0.000000  0.000000

                                   1 3d2-    1 3d2-    1 3d2-    1 3d2-    1 3d2-    1 3d2-    1 3d2-    1 3d2-    1 3d2-    1 3d2- 
                                   1 3d2-    1 3d2-    1 3d2-    1 3d2-    1 3d2-    1 3d2-    1 3d2-    1 5g2-    1 5g4-    1 5g2- 
                                   1 5g4-    1 5g2-    1 5g4-    1 5g2-    1 5g4- 

   1.4  0.80000    -0.094128     0.000000 -0.000000  0.000001 -0.000007  0.000059  0.000164  0.007989 -0.020500  0.001934  0.276853
                                 0.377270  0.157765  0.021532  0.216806  0.172047 -0.001961  0.000588  0.000000  0.000000  0.000000
                                 0.000000  0.000000  0.000000  0.000000  0.000000

                                   1 2pz     1 2pz     1 2pz     1 2pz     1 2pz     1 2pz     1 2pz     1 2pz     1 2pz     1 2pz  
                                   1 2pz     1 2pz     1 2pz     1 2pz     1 2pz     1 2pz     1 2pz     1 2pz     1 2pz     1 2pz  
                                   1 2pz     1 2pz     1 2pz     1 2pz     1 4f0     1 4f2+    1 4f0     1 4f2+    1 4f0     1 4f2+ 
                                   1 4f0     1 4f2+    1 4f0     1 4f2+ 

   1.5  2.00000    -1.899112     0.000000 -0.000000  0.000000 -0.000001  0.000004 -0.000018  0.000064 -0.000202  0.000586 -0.001612
                                 0.004480 -0.014040  0.049962 -0.082885 -0.298427  0.254821  0.561254  0.316342  0.046529 -0.004392
                                 0.002948  0.154196 -0.001263  0.000374  0.000000  0.000000  0.000000  0.000000  0.000000  0.000000
                                 0.000000  0.000000  0.000000  0.000000

                                   1 3d1+    1 3d1+    1 3d1+    1 3d1+    1 3d1+    1 3d1+    1 3d1+    1 3d1+    1 3d1+    1 3d1+ 
                                   1 3d1+    1 3d1+    1 3d1+    1 3d1+    1 3d1+    1 3d1+    1 3d1+    1 5g1+    1 5g3+    1 5g1+ 
                                   1 5g3+    1 5g1+    1 5g3+    1 5g1+    1 5g3+ 

   1.6  0.80000    -0.094128     0.000000 -0.000000  0.000001 -0.000007  0.000059  0.000164  0.007989 -0.020500  0.001934  0.276853
                                 0.377270  0.157765  0.021532  0.216806  0.172047 -0.001961  0.000588  0.000000  0.000000  0.000000
                                 0.000000  0.000000  0.000000  0.000000  0.000000

                                   1 3d1-    1 3d1-    1 3d1-    1 3d1-    1 3d1-    1 3d1-    1 3d1-    1 3d1-    1 3d1-    1 3d1- 
                                   1 3d1-    1 3d1-    1 3d1-    1 3d1-    1 3d1-    1 3d1-    1 3d1-    1 5g1-    1 5g3-    1 5g1- 
                                   1 5g3-    1 5g1-    1 5g3-    1 5g1-    1 5g3- 

   1.7  0.80000    -0.094128     0.000000 -0.000000  0.000001 -0.000007  0.000059  0.000164  0.007989 -0.020500  0.001934  0.276853
                                 0.377270  0.157765  0.021532  0.216806  0.172047 -0.001961  0.000588  0.000000  0.000000  0.000000
                                 0.000000  0.000000  0.000000  0.000000  0.000000
 

 EXTRA SYMMETRY OF MOS IN SYMMETRY 1:   1 1 2 3 1 3 2 1 3 2   1 3 2 1 5 6 4 3 2 5   6 4 3 2 1 3 2 4 6 5   2 3 1 4 6 5 2 3 1 2
                                        3 2 3 1 1 2 3 1 2 3   1 2 3 1 1 2 3 1 3 2   1 1 3 2 1 1 1 1 1 1   1 1 1 1
 EXTRA SYMMETRY OF MOS IN SYMMETRY 2:   1 1 1 1 2 3 1 3 2 1   3 2 1 2 3 1 2 3 1 1   1 1 1 1 1 1 1 1 1 1   1 1 1 1
 EXTRA SYMMETRY OF MOS IN SYMMETRY 3:   1 1 1 1 3 2 1 3 2 1   3 2 1 3 2 1 2 3 1 1   1 1 1 1 1 1 1 1 1 1   1 1 1 1
 EXTRA SYMMETRY OF MOS IN SYMMETRY 4:   1 1 1 1 3 2 1 3 2 1   1 2 3 1 2 3 1 1 1 1   1 1 1 1 1
 EXTRA SYMMETRY OF MOS IN SYMMETRY 5:   1 1 1 1 3 2 1 2 3 1   3 2 1 3 2 1 2 3 1 1   1 1 1 1 1 1 1 1 1 1   1 1 1 1
 EXTRA SYMMETRY OF MOS IN SYMMETRY 6:   1 1 1 1 3 2 1 3 2 1   1 2 3 1 2 3 1 1 1 1   1 1 1 1 1
 EXTRA SYMMETRY OF MOS IN SYMMETRY 7:   1 1 1 1 3 2 1 3 2 1   1 2 3 1 2 3 1 1 1 1   1 1 1 1 1

 Natural orbital dump (state averaged) at molpro section  5202.2    (Orbital set 2)


 CI vector for state symmetry 1
 ==============================

 0a a a a          0.1505873   0.9885967
 a0 a a a          0.9885967  -0.1505873

 TOTAL ENERGIES                       -67.40484872   -67.40484872

 CI vector for state symmetry 2
 ==============================

 aa 0 a a          1.0000000

 TOTAL ENERGIES                       -67.40484872

 CI vector for state symmetry 3
 ==============================

 aa a 0 a          1.0000000

 TOTAL ENERGIES                       -67.40484872

 CI vector for state symmetry 4
 ==============================

 aa a a 0          1.0000000

 TOTAL ENERGIES                       -67.40484872



 **********************************************************************************************************************************
 DATASETS  * FILE   NREC   LENGTH (MB)   RECORD NAMES
              1      20       26.43       500      610      700      900      950      970     1000      129      960     1100   
                                          VAR    BASINP    GEOM    SYMINP    ZMAT    AOBASIS   BASIS     P2S    ABASIS      S 
                                         1400     1410     1420     1200     1210     1080     1600     1650     1700     1380   
                                           T        V       ECP      H0       H01     AOSYM     SMH    MOLCAS    OPER     JKOP   

              2       6        8.57       200      700     1000      520     4202     5202   
                                        OPTIONS   GEOM     BASIS   MCVARS     RHF     MCSCF   

 PROGRAMS   *        TOTAL     MULTI       POP       RHF       INT
 CPU TIMES  *        24.31      0.73      0.01      1.22     21.90
 REAL TIME  *        27.26 SEC
 DISK USED  *         1.39 GB      
 SF USED    *        32.14 MB      
 GA USED    *         0.00 MB       (max)       0.00 MB       (current)
 **********************************************************************************************************************************


 PROGRAM * RHF-SCF (OPEN SHELL)       Authors: W. Meyer, H.-J. Werner


 NUMBER OF ELECTRONS:       9+    5-    SPACE SYMMETRY=1    SPIN SYMMETRY: Quintet 
 CONVERGENCE THRESHOLDS:    1.00E-05 (Density)    1.00E-07 (Energy)
 MAX. NUMBER OF ITERATIONS:        0
 INTERPOLATION TYPE:            DIIS
 INTERPOLATION STEPS:              2 (START)      1 (STEP)
 LEVEL SHIFTS:                 -0.60 (CLOSED) -0.30 (OPEN) 

 Number of closed-shell orbitals:    5 (   2   1   1   0   1   0   0   0 )
 Number of open-shell orbitals:      4 (   1   0   0   1   0   1   1   0 )


 
 Extra symmetries of mos in symmetry 1:   1   1   3   2
 Molecular orbitals read from record     5202.2  Type=MCSCF/NATURAL (state averaged)

 Molecular orbital dump at record        2111.2

 ITERATION    DDIFF          GRAD             ENERGY        2-EL.EN.            DIPOLE MOMENTS         DIIS   ORB.
    1      0.000D+00      0.000D+00       -67.40484872     95.287632    0.00000    0.00000    0.00000    0    start

 Final alpha occupancy:   3   1   1   1   1   1   1   0
 Final beta  occupancy:   2   1   1   0   1   0   0   0

 !RHF STATE 1.1 Energy                -67.404848722578
 Nuclear energy                         0.00000000
 One-electron energy                 -115.04866461
 Two-electron energy                   47.64381589
 Virial quotient                       -2.91376836
 !RHF STATE 1.1 Dipole moment           0.00000000     0.00000000     0.00000000
 Dipole moment /Debye                   0.00000000     0.00000000     0.00000000

 Orbital energies:

         1.1          2.1          3.1          4.1          5.1
     -3.062919    -0.234176    -0.094128    -0.094128     0.008605

         1.2          2.2          3.2
     -1.899112     0.008450     0.024380

         1.3          2.3          3.3
     -1.899112     0.008450     0.024380

         1.4          2.4          3.4
     -0.094128     0.023613     0.079716

         1.5          2.5          3.5
     -1.899112     0.008450     0.024380

         1.6          2.6          3.6
     -0.094128     0.023613     0.079716

         1.7          2.7          3.7
     -0.094128     0.023613     0.079716

         1.8          2.8
      0.191198     0.529545

 HOMO      3.1    -0.094128 =      -2.5614eV
 LUMO      4.1    -0.094128 =      -2.5614eV
 LUMO-HOMO        -0.000000 =      -0.0000eV


 **********************************************************************************************************************************
 DATASETS  * FILE   NREC   LENGTH (MB)   RECORD NAMES
              1      20       26.43       500      610      700      900      950      970     1000      129      960     1100   
                                          VAR    BASINP    GEOM    SYMINP    ZMAT    AOBASIS   BASIS     P2S    ABASIS      S 
                                         1400     1410     1420     1200     1210     1080     1600     1650     1700     1380   
                                           T        V       ECP      H0       H01     AOSYM     SMH    MOLCAS    OPER     JKOP   

              2       7       11.64       200      700     1000      520     4202     5202     2111   
                                        OPTIONS   GEOM     BASIS   MCVARS     RHF     MCSCF     RHF  

 PROGRAMS   *        TOTAL       RHF     MULTI       POP       RHF       INT
 CPU TIMES  *        24.35      0.04      0.73      0.01      1.22     21.90
 REAL TIME  *        27.35 SEC
 DISK USED  *         1.39 GB      
 SF USED    *        32.14 MB      
 GA USED    *         0.00 MB       (max)       0.00 MB       (current)
 **********************************************************************************************************************************
 SETTING SCF(1)         =       -67.40484872  AU                              
 SETTING _CC_NORM_MAX   =         2.00000000                                  


 PROGRAM * CCSD (Restricted open-shell coupled cluster)     Authors: C. Hampel, H.-J. Werner, 1991, M. Deegan, P.J. Knowles, 1992


 Convergence thresholds:  THRVAR = 1.00D-08  THRDEN = 1.00D-06

 CCSD(T)     terms to be evaluated (factor= 1.000)


 Number of closed-shell orbitals:   5 (   2   1   1   0   1   0   0   0 )
 Number of active  orbitals:        4 (   1   0   0   1   0   1   1   0 )
 Number of external orbitals:     247 (  71  33  33  24  33  24  24   5 )

 Memory could be reduced to 33.67 Mwords without degradation in triples

 Number of N-1 electron functions:              14
 Number of N-2 electron functions:              91
 Number of singly external CSFs:               633
 Number of doubly external CSFs:            554905
 Total number of CSFs:                      555538

 Molecular orbitals read from record     2111.2  Type=RHF/CANONICAL (state 1.1)

 Integral transformation finished. Total CPU:   0.80 sec, npass=  1  Memory used:   5.85 MW

 Starting RMP2 calculation

 Wavefunction is spin-projected

 ITER.      SQ.NORM     CORR.ENERGY   TOTAL ENERGY   ENERGY CHANGE        DEN1      VAR(S)    VAR(P)  DIIS     TIME
   1      1.12580332    -0.46475562   -67.86960434    -0.46475562    -0.00206095  0.13D-03  0.14D-02  1  1     0.86
   2      1.13008912    -0.46704512   -67.87189384    -0.00228950    -0.00003764  0.13D-04  0.33D-04  2  2     0.92
   3      1.13086796    -0.46727531   -67.87212403    -0.00023019    -0.00000111  0.13D-05  0.33D-06  3  3     0.96
   4      1.13094671    -0.46728810   -67.87213683    -0.00001280    -0.00000006  0.75D-07  0.15D-07  4  4     1.03
   5      1.13094851    -0.46728709   -67.87213581     0.00000102    -0.00000000  0.99D-09  0.60D-09  5  5     1.11
   6      1.13094944    -0.46728723   -67.87213595    -0.00000014    -0.00000000  0.75D-11  0.22D-10  6  6     1.19

 Norm of t1 vector:      0.06441495      S-energy:    -0.00681658      T1 diagnostic:  0.00746350
 Norm of t2 vector:      0.35609010      P-energy:    -0.46047065
                                         Alpha-Beta:  -0.32060202
                                         Alpha-Alpha: -0.10394382
                                         Beta-Beta:   -0.03592480

 Spin contamination <S**2-Sz**2-Sz>     0.00000000
  Reference energy                    -67.404848722578
  RHF-RMP2 correlation energy          -0.467287231770
 !RHF-RMP2 energy                     -67.872135954348
 (NB above energy spin projected)

 Starting RCCSD calculation

 ITER.      SQ.NORM     CORR.ENERGY   TOTAL ENERGY   ENERGY CHANGE        DEN1      VAR(S)    VAR(P)  DIIS     TIME
   1      1.12380867    -0.45906610   -67.86391482    -0.45906610    -0.00851614  0.28D-02  0.26D-02  1  1     1.66
   2      1.13977094    -0.46756717   -67.87241590    -0.00850107    -0.00107480  0.57D-03  0.56D-03  2  2     1.99
   3      1.15085372    -0.46967325   -67.87452197    -0.00210607    -0.00025582  0.22D-03  0.11D-03  3  3     2.29
   4      1.16072992    -0.47111668   -67.87596540    -0.00144343    -0.00006651  0.66D-04  0.25D-04  4  4     2.62
   5      1.16502665    -0.47143124   -67.87627996    -0.00031456    -0.00004159  0.52D-04  0.10D-04  5  5     3.02
   6      1.16979062    -0.47160937   -67.87645809    -0.00017813    -0.00003060  0.45D-04  0.38D-05  6  6     3.39
   7      1.17575994    -0.47174679   -67.87659551    -0.00013742    -0.00002652  0.41D-04  0.31D-05  7  7     3.76
   8      1.18436510    -0.47186046   -67.87670919    -0.00011367    -0.00002411  0.37D-04  0.32D-05  8  8     4.11
   9      1.22155334    -0.47213483   -67.87698355    -0.00027436    -0.00001972  0.29D-04  0.35D-05  9  9     4.47
  10      1.25244414    -0.47222982   -67.87707854    -0.00009499    -0.00001715  0.22D-04  0.47D-05 10 10     4.87
  11      1.36027513    -0.47241395   -67.87726267    -0.00018413    -0.00001014  0.88D-05  0.59D-05 11 11     5.25
  12      1.46941051    -0.47246886   -67.87731758    -0.00005491    -0.00000457  0.25D-05  0.35D-05 12 12     5.66
  13      1.49816725    -0.47249918   -67.87734790    -0.00003032    -0.00000094  0.66D-06  0.56D-06 13 13     6.07
  14      1.51888331    -0.47244739   -67.87729612     0.00005179    -0.00000070  0.49D-06  0.37D-06 14 14     6.47
  15      1.53380742    -0.47247254   -67.87732126    -0.00002515    -0.00000013  0.62D-07  0.88D-07 15 15     6.93
  16      1.53514162    -0.47246998   -67.87731871     0.00000256    -0.00000002  0.70D-08  0.16D-07 15  1     7.36
  17      1.53602465    -0.47246524   -67.87731396     0.00000474    -0.00000000  0.19D-08  0.35D-08 15  2     7.79
  18      1.53789539    -0.47246093   -67.87730965     0.00000431    -0.00000000  0.33D-09  0.91D-09 15  6     8.25
  19      1.53735613    -0.47246164   -67.87731036    -0.00000071    -0.00000000  0.99D-10  0.26D-09 15  3     8.69

 Norm of t1 vector:      0.61170617      S-energy:    -0.01043638      T1 diagnostic:  0.11491896
                                                                       D1 diagnostic:  0.42930146
 Norm of t2 vector:      0.40394515      P-energy:    -0.46202526
                                         Alpha-Beta:  -0.33335687
                                         Alpha-Alpha: -0.09643505
                                         Beta-Beta:   -0.03223334

 Singles amplitudes (print threshold =  0.500E-01):

         I         SYM. A    A   T(IA) [Alpha-Alpha]

         2         1         2      0.43852826
         2         1         6     -0.05724409
         2         1         9     -0.07621758
         2         1        12      0.05274941
 
         I         SYM. A    A   T(IA) [Beta-Beta]

         2         1         2      0.39967115

 Doubles amplitudes (print threshold =  0.500E-01):

         I         J         SYM. A    SYM. B    A         B      T(IJ, AB) [Alpha-Beta]

         2         2         1         1         2         2     -0.11200601
         2         2         5         5         2         2     -0.05206636
         2         2         5         5         2         3     -0.05398490
         2         2         5         5         3         2     -0.05398490
         2         2         5         5         3         3     -0.05642674

 Spin contamination <S**2-Sz**2-Sz>     0.00000000

 Memory could be reduced to 35.36 Mwords without degradation in triples
 

  Correlated core orbitals:             1.1       1.2       1.3       1.5
  Orbital energies:                    -3.1677   -2.0455   -2.0455   -2.0152
 
  RCCSD core-core energy               -0.178942908401
  RCCSD core-valence energy            -0.188922889451
  RCCSD valence correlation energy     -0.104595840863
 

 RESULTS
 =======

  Reference energy                    -67.404848722578
  RCCSD singles energy                 -0.010436375561
  RCCSD pair energy                    -0.462025263155
  RCCSD correlation energy             -0.472461638716
  Triples (T) contribution             -0.020265357629
  Total correlation energy             -0.492726996345
 
  RHF-RCCSD energy                    -67.877310361294
  RHF-RCCSD[T] energy                 -67.901974858530
  RHF-RCCSD-T energy                  -67.893472466357
 !RHF-RCCSD(T) energy                 -67.897575718923

 Program statistics:

 Available memory in ccsd:               999999162
 Min. memory needed in ccsd:               1845183
 Max. memory used in ccsd:                 2501290
 Max. memory used in cckext:               1956937 (19 integral passes)
 Max. memory used in cckint:               5848146 ( 1 integral passes)



 **********************************************************************************************************************************
 DATASETS  * FILE   NREC   LENGTH (MB)   RECORD NAMES
              1      20       26.43       500      610      700      900      950      970     1000      129      960     1100   
                                          VAR    BASINP    GEOM    SYMINP    ZMAT    AOBASIS   BASIS     P2S    ABASIS      S 
                                         1400     1410     1420     1200     1210     1080     1600     1650     1700     1380   
                                           T        V       ECP      H0       H01     AOSYM     SMH    MOLCAS    OPER     JKOP   

              2       7       11.64       200      700     1000      520     4202     5202     2111   
                                        OPTIONS   GEOM     BASIS   MCVARS     RHF     MCSCF     RHF  

 PROGRAMS   *        TOTAL  RCCSD(T)       RHF     MULTI       POP       RHF       INT
 CPU TIMES  *        37.86     13.50      0.04      0.73      0.01      1.22     21.90
 REAL TIME  *        50.07 SEC
 DISK USED  *         3.45 GB      
 SF USED    *       511.68 MB      
 GA USED    *         0.00 MB       (max)       0.00 MB       (current)
 **********************************************************************************************************************************
 SETTING CCSD(1)        =       -67.89757572  AU                              

 DO I                   =         2.00000000   

 Running procedure=ID5S1


 PROGRAM * RHF-SCF (OPEN SHELL)       Authors: W. Meyer, H.-J. Werner


 NUMBER OF ELECTRONS:      10+    4-    SPACE SYMMETRY=1    SPIN SYMMETRY: Septet  
 CONVERGENCE THRESHOLDS:    1.00E-05 (Density)    1.00E-07 (Energy)
 MAX. NUMBER OF ITERATIONS:       60
 INTERPOLATION TYPE:            DIIS
 INTERPOLATION STEPS:              2 (START)      1 (STEP)
 LEVEL SHIFTS:                 -0.60 (CLOSED) -0.30 (OPEN) 

 Number of closed-shell orbitals:    4 (   1   1   1   0   1   0   0   0 )
 Number of open-shell orbitals:      6 (   3   0   0   1   0   1   1   0 )


 
 Extra symmetries of mos in symmetry 1:   1   3   2   1
 Orbital guess generated from atomic densities. Full valence occupancy:    4   1   1   1   1   1   1   0


 Molecular orbital dump at record        4202.2

 ITERATION    DDIFF          GRAD             ENERGY        2-EL.EN.            DIPOLE MOMENTS         DIIS   ORB.
    1      0.000D+00      0.000D+00       -67.39363263     92.623737    0.00000    0.00000    0.00000    0    start
    2      0.000D+00      0.873D-02       -67.48209657     97.689847    0.00000    0.00000    0.00000    1    diag,B
    3      0.430D-02      0.423D-02       -67.48927318     97.608495    0.00000    0.00000    0.00000    2    diag,B
    4      0.160D-02      0.162D-02       -67.49291073     97.927808    0.00000    0.00000    0.00000    3    diag,B
    5      0.178D-02      0.350D-03       -67.49332826     98.059430    0.00000    0.00000    0.00000    4    diag,B
    6      0.930D-03      0.765D-04       -67.49335918     98.074884    0.00000    0.00000    0.00000    5    diag,B
    7      0.277D-03      0.267D-04       -67.49336500     98.081132    0.00000    0.00000    0.00000    6    fixocc
    8      0.123D-03      0.101D-04       -67.49336593     98.083660    0.00000    0.00000    0.00000    7    diag,B
    9      0.493D-04      0.362D-05       -67.49336603     98.084041    0.00000    0.00000    0.00000    8    diag,B
   10      0.123D-04      0.775D-06       -67.49336604     98.084249    0.00000    0.00000    0.00000    9    orth
   11      0.717D-05      0.209D-06       -67.49336604     98.084254    0.00000    0.00000    0.00000    0    orth

 Final alpha occupancy:   4   1   1   1   1   1   1   0
 Final beta  occupancy:   1   1   1   0   1   0   0   0

 !RHF STATE 1.1 Energy                -67.493366036377
 Nuclear energy                         0.00000000
 One-electron energy                 -116.53549283
 Two-electron energy                   49.04212680
 Virial quotient                       -2.84416491
 !RHF STATE 1.1 Dipole moment           0.00000000     0.00000000     0.00000000
 Dipole moment /Debye                   0.00000000     0.00000000     0.00000000

 ELECTRON ORBITALS
 =================


   Orb  Occ    Energy  Couls-En    Coefficients

                                   1 1s      1 1s      1 1s      1 1s      1 1s      1 1s      1 1s      1 1s      1 1s      1 1s   
                                   1 1s      1 1s      1 1s      1 1s      1 1s      1 1s      1 1s      1 1s      1 1s      1 1s   
                                   1 1s      1 1s      1 1s      1 1s      1 1s      1 1s      1 1s      1 1s      1 3d0     1 3d2+ 
                                   1 3d0     1 3d2+    1 3d0     1 3d2+    1 3d0     1 3d2+    1 3d0     1 3d2+    1 3d0     1 3d2+ 
                                   1 3d0     1 3d2+    1 3d0     1 3d2+    1 3d0     1 3d2+    1 3d0     1 3d2+    1 3d0     1 3d2+ 
                                   1 3d0     1 3d2+    1 3d0     1 3d2+    1 3d0     1 3d2+    1 3d0     1 3d2+    1 3d0     1 3d2+ 
                                   1 3d0     1 3d2+    1 5g0     1 5g4+    1 5g2+    1 5g0     1 5g4+    1 5g2+    1 5g0     1 5g4+ 
                                   1 5g2+    1 5g0     1 5g4+    1 5g2+ 

   1.1   2    -2.9254  -13.7441 -0.000000  0.000000 -0.000000  0.000000 -0.000000  0.000000 -0.000001  0.000002 -0.000007  0.000020
                                -0.000052  0.000136 -0.000344  0.000857 -0.002109  0.005109 -0.011166 -0.000660  0.212426 -0.627411
                                -0.106523  0.798461  0.530038  0.038137 -0.022424  0.006735 -0.003315  0.000777  0.000000  0.000000
                                -0.000000 -0.000000  0.000000  0.000000 -0.000000 -0.000000  0.000000  0.000000 -0.000000 -0.000000
                                 0.000000  0.000000 -0.000000 -0.000000  0.000000  0.000000 -0.000000 -0.000000  0.000000  0.000000
                                -0.000000 -0.000000  0.000000  0.000000 -0.000000 -0.000000  0.000000  0.000000 -0.000000 -0.000000
                                 0.000000  0.000000  0.000000 -0.000000 -0.000000 -0.000000  0.000000 -0.000000  0.000000 -0.000000
                                 0.000000  0.000000  0.000000 -0.000000

   2.1   +    -0.3422   -7.0819 -0.000000  0.000000 -0.000000  0.000000 -0.000000  0.000000 -0.000000  0.000000 -0.000000  0.000000
                                -0.000000 -0.000000  0.000000 -0.000000  0.000000 -0.000000  0.000000 -0.000000 -0.000000  0.000000
                                 0.000000 -0.000000 -0.000000 -0.000000  0.000000 -0.000000 -0.000000 -0.000000 -0.000000 -0.000000
                                 0.000000  0.000000 -0.000000 -0.000002  0.000000  0.000010 -0.000001 -0.000066 -0.000002 -0.000117
                                -0.000131 -0.007528  0.000337  0.019271 -0.000033 -0.001916 -0.004372 -0.250372 -0.006593 -0.377544
                                -0.003694 -0.211535 -0.000837 -0.047928 -0.003500 -0.200443 -0.002856 -0.163531  0.000058  0.003347
                                -0.000021 -0.001194  0.000000 -0.000000  0.000000 -0.000000 -0.000000 -0.000000  0.000000 -0.000000
                                -0.000000  0.000000 -0.000000  0.000000

   3.1   +    -0.3422   -7.0819 -0.000000  0.000000 -0.000000  0.000000 -0.000000  0.000000 -0.000000  0.000000 -0.000000  0.000000
                                -0.000000  0.000000 -0.000000  0.000000 -0.000000  0.000000 -0.000000  0.000000 -0.000000 -0.000000
                                -0.000000  0.000000 -0.000000  0.000000 -0.000000  0.000000  0.000000  0.000000 -0.000000  0.000000
                                 0.000000 -0.000000 -0.000002  0.000000  0.000010 -0.000000 -0.000066  0.000001 -0.000117  0.000002
                                -0.007528  0.000131  0.019271 -0.000337 -0.001916  0.000033 -0.250372  0.004372 -0.377544  0.006593
                                -0.211535  0.003694 -0.047928  0.000837 -0.200443  0.003500 -0.163531  0.002856  0.003347 -0.000058
                                -0.001194  0.000021  0.000000 -0.000000 -0.000000 -0.000000  0.000000  0.000000  0.000000 -0.000000
                                -0.000000  0.000000  0.000000  0.000000

   4.1   +    -0.2393   -4.4044  0.000000 -0.000000  0.000000 -0.000000  0.000000 -0.000000  0.000000 -0.000001  0.000002 -0.000007
                                 0.000019 -0.000048  0.000122 -0.000304  0.000751 -0.001839  0.004197 -0.002031 -0.063181  0.208523
                                 0.024403 -0.322026 -0.355090  0.246408  0.653217  0.297245 -0.003255  0.002350 -0.000000  0.000000
                                 0.000000 -0.000000 -0.000000  0.000000  0.000000 -0.000000 -0.000000  0.000000  0.000000 -0.000000
                                -0.000000  0.000000  0.000000 -0.000000 -0.000000  0.000000  0.000000 -0.000000 -0.000000  0.000000
                                 0.000000  0.000000  0.000000 -0.000000  0.000000  0.000000 -0.000000  0.000000  0.000000  0.000000
                                -0.000000 -0.000000  0.000000 -0.000000  0.000000 -0.000000  0.000000 -0.000000 -0.000000 -0.000000
                                 0.000000  0.000000  0.000000 -0.000000

   5.1   0     0.0086   -0.9318 -0.000000  0.000000 -0.000000  0.000000 -0.000000  0.000000 -0.000000  0.000000 -0.000001  0.000003
                                -0.000009  0.000024 -0.000060  0.000147 -0.000353  0.000816 -0.001783  0.002952  0.001127 -0.011812
                                -0.017131  0.054949  0.004780  0.114057 -0.447951  0.727960 -1.689723  1.963671  0.000000  0.000000
                                -0.000000 -0.000000  0.000000  0.000000 -0.000000 -0.000000  0.000000 -0.000000 -0.000000  0.000000
                                 0.000000 -0.000000 -0.000000  0.000000 -0.000000 -0.000000  0.000000 -0.000000  0.000000 -0.000000
                                 0.000000  0.000000  0.000000 -0.000000  0.000000 -0.000000  0.000000 -0.000000  0.000000 -0.000000
                                 0.000000  0.000000 -0.000000 -0.000000  0.000000  0.000000  0.000000 -0.000000 -0.000000 -0.000000
                                 0.000000  0.000000  0.000000 -0.000000

   6.1   0     0.0236   -0.8725 -0.000000 -0.000000  0.000000 -0.000000  0.000000 -0.000000  0.000000 -0.000000  0.000000 -0.000000
                                 0.000000 -0.000000  0.000000  0.000000 -0.000000  0.000000 -0.000000  0.000000 -0.000000  0.000000
                                -0.000000  0.000000 -0.000000  0.000000 -0.000000  0.000000 -0.000000  0.000000 -0.000000 -0.000000
                                 0.000001  0.000000 -0.000007 -0.000001  0.000027  0.000004 -0.000086 -0.000014  0.000244  0.000040
                                -0.000481 -0.000079  0.001153  0.000190 -0.003930 -0.000647  0.071955  0.011841 -0.024008 -0.003951
                                 0.051937  0.008547 -0.122811 -0.020210  0.012821  0.002110 -0.057403 -0.009446  0.351147  0.057786
                                -1.171705 -0.192819 -0.000000  0.000000 -0.000000  0.000000 -0.000000  0.000000 -0.000000  0.000000
                                -0.000000  0.000000 -0.000000 -0.000000

                                   1 2px     1 2px     1 2px     1 2px     1 2px     1 2px     1 2px     1 2px     1 2px     1 2px  
                                   1 2px     1 2px     1 2px     1 2px     1 2px     1 2px     1 2px     1 2px     1 2px     1 2px  
                                   1 2px     1 2px     1 2px     1 2px     1 4f1+    1 4f3+    1 4f1+    1 4f3+    1 4f1+    1 4f3+ 
                                   1 4f1+    1 4f3+    1 4f1+    1 4f3+ 

   1.2   2    -1.7751  -11.2808  0.000000 -0.000000  0.000000 -0.000001  0.000004 -0.000018  0.000064 -0.000202  0.000586 -0.001612
                                 0.004477 -0.014000  0.049697 -0.082634 -0.291400  0.255303  0.547725  0.325687  0.055480 -0.005805
                                 0.003631  0.146990 -0.001591  0.000473 -0.000000 -0.000000  0.000000  0.000000 -0.000000  0.000000
                                 0.000000 -0.000000 -0.000000  0.000000

   2.2   0     0.0081   -1.0971 -0.000000  0.000000 -0.000000  0.000000 -0.000000  0.000002 -0.000007  0.000021 -0.000060  0.000161
                                -0.000425  0.001201 -0.003841  0.008207 -0.007973 -0.033748 -0.020827 -0.038902  0.051642  0.016635
                                 0.270639  0.024828 -0.318748  1.116654 -0.000000  0.000000 -0.000000  0.000000 -0.000000  0.000000
                                -0.000000  0.000000 -0.000000  0.000000

   3.2   0     0.0229   -1.7879 -0.000000  0.000000 -0.000000  0.000000 -0.000000  0.000000 -0.000000  0.000001 -0.000000 -0.000008
                                 0.000076 -0.000558  0.003231 -0.002711 -0.085336 -0.008589  0.105695  0.016710  0.013900 -0.344890
                                 0.170751  0.090501 -1.473116  1.151336  0.000000 -0.000000  0.000000 -0.000000  0.000000 -0.000000
                                 0.000000 -0.000000  0.000000 -0.000000

                                   1 2py     1 2py     1 2py     1 2py     1 2py     1 2py     1 2py     1 2py     1 2py     1 2py  
                                   1 2py     1 2py     1 2py     1 2py     1 2py     1 2py     1 2py     1 2py     1 2py     1 2py  
                                   1 2py     1 2py     1 2py     1 2py     1 4f1-    1 4f3-    1 4f1-    1 4f3-    1 4f1-    1 4f3- 
                                   1 4f1-    1 4f3-    1 4f1-    1 4f3- 

[...]

 PROGRAMS   *        TOTAL       RHF     MULTI       POP       RHF  RCCSD(T)       RHF  RCCSD(T)       RHF     MULTI       POP
 CPU TIMES  *       160.42      0.03      0.24      0.00      0.55      3.27      0.53      3.85      0.07      0.55      0.00
 REAL TIME  *       241.76 SEC
 DISK USED  *         3.54 GB      
 SF USED    *       577.30 MB      
 GA USED    *         0.00 MB       (max)       0.00 MB       (current)
 **********************************************************************************************************************************
 SETTING SCF(15)        =       -44.02922267  AU                              
 SETTING _CC_NORM_MAX   =         2.00000000                                  


 PROGRAM * CCSD (Restricted open-shell coupled cluster)     Authors: C. Hampel, H.-J. Werner, 1991, M. Deegan, P.J. Knowles, 1992


 Convergence thresholds:  THRVAR = 1.00D-08  THRDEN = 1.00D-06

 CCSD(T)     terms to be evaluated (factor= 1.000)


 Number of closed-shell orbitals:   1 (   1   0   0   0   0   0   0   0 )
 Number of active  orbitals:        3 (   0   1   1   0   1   0   0   0 )
 Number of external orbitals:     252 (  73  33  33  25  33  25  25   5 )

 Memory could be reduced to 22.65 Mwords without degradation in triples

 Number of N-1 electron functions:               5
 Number of N-2 electron functions:              10
 Number of singly external CSFs:               248
 Number of doubly external CSFs:             60788
 Total number of CSFs:                       61036

 Molecular orbitals read from record     2128.2  Type=RHF/CANONICAL (state 1.8)

 Integral transformation finished. Total CPU:   0.34 sec, npass=  1  Memory used:   2.98 MW

 Starting RMP2 calculation

 Wavefunction is spin-projected

 ITER.      SQ.NORM     CORR.ENERGY   TOTAL ENERGY   ENERGY CHANGE        DEN1      VAR(S)    VAR(P)  DIIS     TIME
   1      1.02227843    -0.12604509   -44.15526776    -0.12604509    -0.00021502  0.41D-07  0.41D-04  1  1     0.39
   2      1.02237683    -0.12627211   -44.15549478    -0.00022702    -0.00000004  0.18D-10  0.56D-08  2  2     0.40
   3      1.02237736    -0.12627281   -44.15549548    -0.00000070    -0.00000000  0.78D-15  0.17D-11  3  3     0.40

 Norm of t1 vector:      0.00799201      S-energy:    -0.00037585      T1 diagnostic:  0.00014692
 Norm of t2 vector:      0.14937700      P-energy:    -0.12589696
                                         Alpha-Beta:  -0.09574609
                                         Alpha-Alpha: -0.03015087
                                         Beta-Beta:    0.00000000

 Spin contamination <S**2-Sz**2-Sz>     0.00000000
  Reference energy                    -44.029222668620
  RHF-RMP2 correlation energy          -0.126272810797
 !RHF-RMP2 energy                     -44.155495479416
 (NB above energy spin projected)

 Starting RCCSD calculation

 ITER.      SQ.NORM     CORR.ENERGY   TOTAL ENERGY   ENERGY CHANGE        DEN1      VAR(S)    VAR(P)  DIIS     TIME
   1      1.02714866    -0.13698199   -44.16620466    -0.13698199    -0.00280672  0.13D-04  0.53D-03  1  1     0.52
   2      1.02878573    -0.13998544   -44.16920811    -0.00300345    -0.00003637  0.12D-06  0.59D-05  2  2     0.62
   3      1.02893408    -0.14015218   -44.16937485    -0.00016674    -0.00000055  0.22D-08  0.89D-07  3  3     0.73
   4      1.02894972    -0.14017050   -44.16939317    -0.00001832    -0.00000000  0.62D-10  0.37D-09  4  4     0.83
   5      1.02894969    -0.14016998   -44.16939265     0.00000051    -0.00000000  0.96D-13  0.18D-11  5  5     0.94

 Norm of t1 vector:      0.00896533      S-energy:    -0.00036377      T1 diagnostic:  0.00136470
                                                                       D1 diagnostic:  0.00199283
 Norm of t2 vector:      0.16990973      P-energy:    -0.13980622
                                         Alpha-Beta:  -0.10904651
                                         Alpha-Alpha: -0.03075971
                                         Beta-Beta:    0.00000000

 Spin contamination <S**2-Sz**2-Sz>     0.00000000

 Memory could be reduced to 23.19 Mwords without degradation in triples
 

  Correlated core orbitals:             1.1       1.2       1.3       1.5
  Orbital energies:                    -8.2495   -6.9190   -6.9190   -6.9190
 
  RCCSD core-core energy               -0.140169984445
 

 RESULTS
 =======

  Reference energy                    -44.029222668620
  RCCSD singles energy                 -0.000363766672
  RCCSD pair energy                    -0.139806217773
  RCCSD correlation energy             -0.140169984445
  Triples (T) contribution             -0.002916396719
  Total correlation energy             -0.143086381164
 
  RHF-RCCSD energy                    -44.169392653065
  RHF-RCCSD[T] energy                 -44.172307700437
  RHF-RCCSD-T energy                  -44.172308037595
 !RHF-RCCSD(T) energy                 -44.172309049783

 Program statistics:

 Available memory in ccsd:               999999732
 Min. memory needed in ccsd:                483476
 Max. memory used in ccsd:                  537222
 Max. memory used in cckext:                553794 ( 5 integral passes)
 Max. memory used in cckint:               2980326 ( 1 integral passes)



 **********************************************************************************************************************************
 DATASETS  * FILE   NREC   LENGTH (MB)   RECORD NAMES
              1      20       28.70       500      610      700      900      950      970     1000      129      960     1100   
                                          VAR    BASINP    GEOM    SYMINP    ZMAT    AOBASIS   BASIS     P2S    ABASIS      S 
                                         1400     1410     1420     1200     1210     1080     1600     1650     1700     1380   
                                           T        V       ECP      H0       H01     AOSYM     SMH    MOLCAS    OPER     JKOP   

              2      22       52.94       200      700     1000      520     4202     5202     2111     2101     2105     2107   
                                        OPTIONS   GEOM     BASIS   MCVARS     RHF     MCSCF     RHF      RHF      RHF      RHF  
                                         2109     2103     5202(1)  2113     2115     2117     2119     2121     2123     2125   
                                          RHF      RHF     MCSCF     RHF      RHF      RHF      RHF      RHF      RHF      RHF  
                                         2126     2128   
                                          RHF      RHF  

 PROGRAMS   *        TOTAL  RCCSD(T)       RHF     MULTI       POP       RHF  RCCSD(T)       RHF  RCCSD(T)       RHF     MULTI
 CPU TIMES  *       162.27      1.83      0.03      0.24      0.00      0.55      3.27      0.53      3.85      0.07      0.55
 REAL TIME  *       245.34 SEC
 DISK USED  *         3.54 GB      
 SF USED    *       577.30 MB      
 GA USED    *         0.00 MB       (max)       0.00 MB       (current)
 **********************************************************************************************************************************
 SETTING CCSD(15)       =       -44.17230905  AU                              

 DO I                   =        16.00000000   

 Running procedure=XIIIS2


 PROGRAM * RHF-SCF (CLOSED SHELL)       Authors: W. Meyer, H.-J. Werner


 NUMBER OF ELECTRONS:       1+    1-    SPACE SYMMETRY=1    SPIN SYMMETRY: Singlet 
 CONVERGENCE THRESHOLDS:    1.00E-05 (Density)    1.00E-07 (Energy)
 MAX. NUMBER OF ITERATIONS:       60
 INTERPOLATION TYPE:            DIIS
 INTERPOLATION STEPS:              2 (START)      1 (STEP)
 LEVEL SHIFTS:                  0.00 (CLOSED)  0.00 (OPEN) 

 Number of closed-shell orbitals:    1 (   1   0   0   0   0   0   0   0 )


 Orbital guess generated from atomic densities. Full valence occupancy:    4   1   1   1   1   1   1   0


 Molecular orbital dump at record        2129.2

 ITERATION    DDIFF          GRAD             ENERGY        2-EL.EN.            DIPOLE MOMENTS         DIIS   ORB.
    1      0.000D+00      0.000D+00       -20.82281069      1.600279    0.00000    0.00000    0.00000    0    start
    2      0.000D+00      0.105D+00       -21.16415458      1.775518    0.00000    0.00000    0.00000    1    diag
    3      0.304D-01      0.948D-02       -21.16690087      1.791287    0.00000    0.00000    0.00000    2    diag
    4      0.379D-02      0.556D-04       -21.16690095      1.791365    0.00000    0.00000    0.00000    3    diag
    5      0.279D-04      0.167D-05       -21.16690095      1.791363    0.00000    0.00000    0.00000    4    diag
    6      0.830D-06      0.389D-07       -21.16690095      1.791363    0.00000    0.00000    0.00000    0    orth

 Final occupancy:   1   0   0   0   0   0   0   0

 !RHF STATE 1.1 Energy                -21.166900948150
 Nuclear energy                         0.00000000
 One-electron energy                  -22.06258243
 Two-electron energy                    0.89568149
 Virial quotient                       -5.67138328
 !RHF STATE 1.1 Dipole moment           0.00000000     0.00000000     0.00000000
 Dipole moment /Debye                   0.00000000     0.00000000     0.00000000

 Orbital energies:

         1.1          2.1          3.1
    -10.135610    -6.449470    -6.449470

         1.2          2.2
     -8.332782    -4.676849

         1.3          2.3
     -8.332782    -4.676849

         1.4          2.4
     -6.449470    -3.744873

         1.5          2.5
     -8.332782    -4.676849

         1.6          2.6
     -6.449470    -3.744873

         1.7          2.7
     -6.449470    -3.744873

         1.8          2.8
     -4.676849    -2.964662

 HOMO      1.1   -10.135610 =    -275.8040eV
 LUMO      1.2    -8.332782 =    -226.7465eV
 LUMO-HOMO         1.802828 =      49.0574eV


 **********************************************************************************************************************************
 DATASETS  * FILE   NREC   LENGTH (MB)   RECORD NAMES
              1      20       28.70       500      610      700      900      950      970     1000      129      960     1100   
                                          VAR    BASINP    GEOM    SYMINP    ZMAT    AOBASIS   BASIS     P2S    ABASIS      S 
                                         1400     1410     1420     1200     1210     1080     1600     1650     1700     1380   
                                           T        V       ECP      H0       H01     AOSYM     SMH    MOLCAS    OPER     JKOP   

              2      23       55.79       200      700     1000      520     4202     5202     2111     2101     2105     2107   
                                        OPTIONS   GEOM     BASIS   MCVARS     RHF     MCSCF     RHF      RHF      RHF      RHF  
                                         2109     2103     5202(1)  2113     2115     2117     2119     2121     2123     2125   
                                          RHF      RHF     MCSCF     RHF      RHF      RHF      RHF      RHF      RHF      RHF  
                                         2126     2128     2129   
                                          RHF      RHF      RHF  

 PROGRAMS   *        TOTAL       RHF  RCCSD(T)       RHF     MULTI       POP       RHF  RCCSD(T)       RHF  RCCSD(T)       RHF
 CPU TIMES  *       162.74      0.45      1.83      0.03      0.24      0.00      0.55      3.27      0.53      3.85      0.07
 REAL TIME  *       245.99 SEC
 DISK USED  *         3.54 GB      
 SF USED    *       577.30 MB      
 GA USED    *         0.00 MB       (max)       0.00 MB       (current)
 **********************************************************************************************************************************
 SETTING SCF(16)        =       -21.16690095  AU                              
 SETTING _CC_NORM_MAX   =         2.00000000                                  


 PROGRAM * CCSD (Restricted open-shell coupled cluster)     Authors: C. Hampel, H.-J. Werner, 1991, M. Deegan, P.J. Knowles, 1992


 Convergence thresholds:  THRVAR = 1.00D-08  THRDEN = 1.00D-06

 CCSD(T)     terms to be evaluated (factor= 1.000)


 Number of closed-shell orbitals:   1 (   1   0   0   0   0   0   0   0 )
 Number of external orbitals:     255 (  73  34  34  25  34  25  25   5 )

 Memory could be reduced to 16.47 Mwords without degradation in triples

 Number of N-1 electron functions:               2
 Number of N-2 electron functions:               1
 Number of singly external CSFs:               146
 Number of doubly external CSFs:             10697
 Total number of CSFs:                       10843

 Molecular orbitals read from record     2129.2  Type=RHF/CANONICAL (state 1.1)

 Integral transformation finished. Total CPU:   0.12 sec, npass=  1  Memory used:   1.19 MW

 Starting RMP2 calculation

 Wavefunction is spin-projected

 ITER.      SQ.NORM     CORR.ENERGY   TOTAL ENERGY   ENERGY CHANGE        DEN1      VAR(S)    VAR(P)  DIIS     TIME
   1      1.01220373    -0.05307156   -21.21997250    -0.05307156    -0.00010789  0.22D-18  0.27D-04  1  1     0.19
   2      1.01226440    -0.05318495   -21.22008590    -0.00011339    -0.00000001  0.34D-22  0.99D-09  2  2     0.19
   3      1.01226461    -0.05318523   -21.22008618    -0.00000028    -0.00000000  0.16D-25  0.22D-13  3  3     0.19

 Norm of t1 vector:      0.00000001      S-energy:    -0.00000000      T1 diagnostic:  0.00000001
 Norm of t2 vector:      0.11074569      P-energy:    -0.05318523
                                         Alpha-Beta:  -0.05318523
                                         Alpha-Alpha:  0.00000000
                                         Beta-Beta:    0.00000000

 Spin contamination <S**2-Sz**2-Sz>     0.00000000
  Reference energy                    -21.166900948150
  RHF-RMP2 correlation energy          -0.053185228966
 !RHF-RMP2 energy                     -21.220086177116
 (NB above energy spin projected)

 Starting RCCSD calculation

 ITER.      SQ.NORM     CORR.ENERGY   TOTAL ENERGY   ENERGY CHANGE        DEN1      VAR(S)    VAR(P)  DIIS     TIME
   1      1.01694449    -0.05983745   -21.22673840    -0.05983745    -0.00302675  0.43D-05  0.74D-03  1  1     0.22
   2      1.02030327    -0.06402097   -21.23092192    -0.00418353    -0.00003048  0.31D-07  0.46D-05  2  2     0.25
   3      1.02053330    -0.06425160   -21.23115255    -0.00023062    -0.00000017  0.45D-09  0.18D-07  3  3     0.29
   4      1.02053550    -0.06425211   -21.23115306    -0.00000051    -0.00000000  0.88D-13  0.95D-10  4  4     0.32

 Norm of t1 vector:      0.00281163      S-energy:    -0.00000000      T1 diagnostic:  0.00140582
                                                                       D1 diagnostic:  0.00198812
 Norm of t2 vector:      0.14327455      P-energy:    -0.06425211
                                         Alpha-Beta:  -0.06425211
                                         Alpha-Alpha:  0.00000000
                                         Beta-Beta:    0.00000000

 Doubles amplitudes (print threshold =  0.500E-01):

         I         J         SYM. A    SYM. B    A         B      T(IJ, AB) [Alpha-Beta]

         1         1         2         2         1         1     -0.08024098
         1         1         3         3         1         1     -0.08024098
         1         1         5         5         1         1     -0.08024098

 Spin contamination <S**2-Sz**2-Sz>     0.00000000

 Memory could be reduced to 16.25 Mwords without degradation in triples
 

  Correlated core orbitals:             1.1
  Orbital energies:                   -10.1356
 
  RCCSD core-core energy               -0.064252112618
 

 RESULTS
 =======

  Reference energy                    -21.166900948150
  RCCSD singles energy                 -0.000000000150
  RCCSD pair energy                    -0.064252112468
  RCCSD correlation energy             -0.064252112618
  Triples (T) contribution              0.000000000000
  Total correlation energy             -0.064252112618
 
  RHF-RCCSD energy                    -21.231153060768
  RHF-RCCSD[T] energy                 -21.231153060768
  RHF-RCCSD-T energy                  -21.231153060768
 !RHF-RCCSD(T) energy                 -21.231153060768

 Program statistics:

 Available memory in ccsd:               999999882
 Min. memory needed in ccsd:                305597
 Max. memory used in ccsd:                  305597
 Max. memory used in cckext:                399463 ( 4 integral passes)
 Max. memory used in cckint:               1191926 ( 1 integral passes)



 **********************************************************************************************************************************
 DATASETS  * FILE   NREC   LENGTH (MB)   RECORD NAMES
              1      20       28.70       500      610      700      900      950      970     1000      129      960     1100   
                                          VAR    BASINP    GEOM    SYMINP    ZMAT    AOBASIS   BASIS     P2S    ABASIS      S 
                                         1400     1410     1420     1200     1210     1080     1600     1650     1700     1380   
                                           T        V       ECP      H0       H01     AOSYM     SMH    MOLCAS    OPER     JKOP   

              2      23       55.79       200      700     1000      520     4202     5202     2111     2101     2105     2107   
                                        OPTIONS   GEOM     BASIS   MCVARS     RHF     MCSCF     RHF      RHF      RHF      RHF  
                                         2109     2103     5202(1)  2113     2115     2117     2119     2121     2123     2125   
                                          RHF      RHF     MCSCF     RHF      RHF      RHF      RHF      RHF      RHF      RHF  
                                         2126     2128     2129   
                                          RHF      RHF      RHF  

 PROGRAMS   *        TOTAL  RCCSD(T)       RHF  RCCSD(T)       RHF     MULTI       POP       RHF  RCCSD(T)       RHF  RCCSD(T)
 CPU TIMES  *       163.28      0.55      0.45      1.83      0.03      0.24      0.00      0.55      3.27      0.53      3.85
 REAL TIME  *       248.14 SEC
 DISK USED  *         3.54 GB      
 SF USED    *       577.30 MB      
 GA USED    *         0.00 MB       (max)       0.00 MB       (current)
 **********************************************************************************************************************************
 SETTING CCSD(16)       =       -21.23115306  AU                              
 Output type csv         
                                                                                                                                                                                                                                                                

       SCF,CCSD
   -67.40484872,   -67.89757572
   -67.49336604,   -67.95365510
   -67.38576280,   -67.83228364
   -67.46769715,   -67.97860716
   -67.20732578,   -67.63830795
   -67.26270335,   -67.69110162
   -67.04522012,   -67.51703599
   -66.70329012,   -67.10189029
   -65.74246773,   -66.10915079
   -64.30217118,   -64.64099524
   -62.34229098,   -62.65574255
   -61.51703863,   -61.82842771
   -61.08407501,   -61.43403520
   -59.86853929,   -60.14980037
   -44.02922267,   -44.17230905
   -21.16690095,   -21.23115306
                                                  

 RCCSD(T)/USERDEF energy=    -21.231153060768

        RCCSD(T)        RHF-SCF         RCCSD(T)        MULTI           RHF-SCF         RCCSD(T)        RHF-SCF         RCCSD(T)
    -21.23115306    -21.16690095    -44.17230905    -44.02922267    -44.02922267    -60.14980037    -59.86853929    -61.43403520
 **********************************************************************************************************************************
 Molpro calculation terminated
 Variable memory released
