
 Primary working directories    : /global/cscratch1/sd/gwang18
 Secondary working directories  : /global/cscratch1/sd/gwang18
 Wavefunction directory         : /global/homes/g/gwang18/wfu/
 Main file repository           : /global/cscratch1/sd/gwang18/

 SHA1      : 19cd028119e0e09f93f0674bd8af7968d9b3eff6
 NAME      : 2015.1.36
 ARCHNAME  : linux/x86_64
 FC        : /opt/cray/pe/craype/2.5.14/bin/ftn
 BLASLIB   : -L/opt/intel/compilers_and_libraries_2018.1.163/linux/mkl/lib/intel64 -Wl,-_start-group -lmkl_intel_ilp64 -lmkl_intel_thread -lmkl_core -Wl,-_end-group -liomp5
 id        : lbl

 Nodes     nprocs
 nid02115    23
 Number of processes for MPI-2 version of Molpro:   nprocs(total)=   24   nprocs(compute)=   23   nprocs(helper)=    1

 Using customized tuning parameters: mindgm=7; mindgv=16; mindgc=1; mindgr=1; noblas=0; minvec=7
 default implementation of scratch files=sf  

 ***,Calculation for Ag atom, singlet and triplet
 memory,512,m
 geometry={
 1
 Ag
 Ag  0.0 0.0 0.0
 }
 
 basis={
 Including file /global/u2/g/gwang18/projects/ag-ecp/atom/ae/dkh/basis/aug-cc-pCVQZ.basis
 }
 
 set,dkroll=1,dkho=10,dkhp=4
 
 Including file /global/u2/g/gwang18/projects/ag-ecp/atom/ae/dkh/basis/states.proc
 
 do i=1,18
     if (i.eq.1) then
         Is1dten
     else if (i.eq.2) then
         As2dten
     else if (i.eq.3) then
         Ip1dten
     else if (i.eq.4) then
         Is2d9
     else if (i.eq.5) then
         IIdten
     else if (i.eq.6) then
         IIs1d9
     else if (i.eq.7) then
         IIId9
     else if (i.eq.8) then
         IVd8
     else if (i.eq.9) then
         Vd7
     else if (i.eq.10) then
         VId6
     else if (i.eq.11) then
         VIId5
     else if (i.eq.12) then
         VIIId4
     else if (i.eq.13) then
         IXd3
     else if (i.eq.14) then
         Xd2
     else if (i.eq.15) then
         XId1
     else if (i.eq.16) then
         XIIKr
     else if (i.eq.17) then
         XVp3
     else if (i.eq.18) then
         XVIIIs2
     endif
     scf(i)=energy
     _CC_NORM_MAX=2.0
     {rccsd(t),shifts=0.3,shiftp=0.3,maxit=200;
     thresh,coeff=1d-3,energy=1d-5;
     core}
     ccsd(i)=energy
 enddo
 
 table,scf,ccsd
 type,csv
 save

 Variables initialized (889), CPU time= 0.01 sec
 Commands  initialized (702), CPU time= 0.01 sec, 572 directives.
 Default parameters read. Elapsed time= 0.22 sec

 Checking input...
 Passed
1


                                         ***  PROGRAM SYSTEM MOLPRO  ***
                                       Copyright, TTI GmbH Stuttgart, 2015
                                    Version 2015.1 linked Dec 29 2018 15:55:43


 **********************************************************************************************************************************
 LABEL *   Calculation for Ag atom, singlet and triplet                                  
  64 bit mpp version                                                                     DATE: 28-Jun-19          TIME: 14:02:27  
 **********************************************************************************************************************************

 SHA1:             19cd028119e0e09f93f0674bd8af7968d9b3eff6
 **********************************************************************************************************************************

Geometry recognized as XYZ


 Variable memory set to  512000000 words,  buffer space   230000 words

 SETTING BASIS          =    USERDEF
 SETTING DKROLL         =         1.00000000                                  
 SETTING DKHO           =        10.00000000                                  
 SETTING DKHP           =         4.00000000                                  

 DO I                   =         1.00000000   

 Running procedure=IS1DTEN


 Recomputing integrals since basis changed


 Using spherical harmonics



 PROGRAM * SEWARD (Integral evaluation for generally contracted gaussian basis sets)     Author: Roland Lindh, 1990

 Geometry written to block  1 of record 700

 Orientation using atomic masses  
 Molecule type: Atom
 Symmetry elements: X,Y,Z
 Rotational constants:       0.0000000      0.0000000      0.0000000 GHz  (calculated with average atomic masses)

 Point group  D2h 



 ATOMIC COORDINATES

 NR  ATOM    CHARGE       X              Y              Z

   1  AG     47.00    0.000000000    0.000000000    0.000000000

 NUCLEAR CHARGE:                   47
 NUMBER OF PRIMITIVE AOS:         420
 NUMBER OF SYMMETRY AOS:          329
 NUMBER OF CONTRACTIONS:          329   (  90Ag  +  46B3u +  46B2u +  30B1g +  46B1u +  30B2g +  30B3g +  11Au  )
 NUMBER OF CORE ORBITALS:          18   (   6Ag  +   3B3u +   3B2u +   1B1g +   3B1u +   1B2g +   1B3g +   0Au  )
 NUMBER OF VALENCE ORBITALS:        6   (   3Ag  +   0B3u +   0B2u +   1B1g +   0B1u +   1B2g +   1B3g +   0Au  )


 NUCLEAR REPULSION ENERGY    0.00000000

 One-electron integrals computed with SEWARD

 10nd-order Douglas-Kroll-Hess method activated. McWeeny DKH parametrization is used.

 Computing Douglas-Kroll / X2C integrals

 AO integral compression algorithm  1   Integral accuracy      1.0D-11

     774.898 MB (compressed) written to integral file ( 29.2%)

     Node minimum: 10.748 MB, node maximum: 108.265 MB


 NUMBER OF SORTED TWO-ELECTRON INTEGRALS:    8292971.     BUFFER LENGTH:  32768
 NUMBER OF SEGMENTS:   1  SEGMENT LENGTH:    8292971      RECORD LENGTH: 524288

 Memory used in sort:       8.85 MW

 SORT1 READ   331308337. AND WROTE     3644569. INTEGRALS IN     11 RECORDS. CPU TIME:     9.24 SEC, REAL TIME:     9.49 SEC
 SORT2 READ    93071899. AND WROTE   190665150. INTEGRALS IN   2645 RECORDS. CPU TIME:     0.20 SEC, REAL TIME:     0.52 SEC

 Node minimum:     8240501.  Node maximum:     8383297. integrals

 OPERATOR DM      FOR CENTER  0  COORDINATES:    0.000000    0.000000    0.000000

 EXTRA SYMMETRY OF AOS IN SYMMETRY 1:   1 1 1 1 1 1 1 1 1 1   1 1 1 1 1 1 1 1 1 1   1 1 1 1 1 1 1 1 1 1   1 1 1 1 2 3 2 3 2 3
                                        2 3 2 3 2 3 2 3 2 3   2 3 2 3 2 3 2 3 2 3   2 3 2 3 2 3 2 3 2 3   2 3 2 3 2 3 2 3 4 5
                                        6 4 5 6 4 5 6 4 5 6
 EXTRA SYMMETRY OF AOS IN SYMMETRY 2:   1 1 1 1 1 1 1 1 1 1   1 1 1 1 1 1 1 1 1 1   1 1 1 1 1 1 1 2 3 2   3 2 3 2 3 2 3 4 5 6
                                        4 5 6 4 5 6
 EXTRA SYMMETRY OF AOS IN SYMMETRY 3:   1 1 1 1 1 1 1 1 1 1   1 1 1 1 1 1 1 1 1 1   1 1 1 1 1 1 1 2 3 2   3 2 3 2 3 2 3 4 5 6
                                        4 5 6 4 5 6
 EXTRA SYMMETRY OF AOS IN SYMMETRY 4:   1 1 1 1 1 1 1 1 1 1   1 1 1 1 1 1 1 1 1 1   1 1 2 3 2 3 2 3 2 3
 EXTRA SYMMETRY OF AOS IN SYMMETRY 5:   1 1 1 1 1 1 1 1 1 1   1 1 1 1 1 1 1 1 1 1   1 1 1 1 1 1 1 2 3 2   3 2 3 2 3 2 3 4 5 6
                                        4 5 6 4 5 6
 EXTRA SYMMETRY OF AOS IN SYMMETRY 6:   1 1 1 1 1 1 1 1 1 1   1 1 1 1 1 1 1 1 1 1   1 1 2 3 2 3 2 3 2 3
 EXTRA SYMMETRY OF AOS IN SYMMETRY 7:   1 1 1 1 1 1 1 1 1 1   1 1 1 1 1 1 1 1 1 1   1 1 2 3 2 3 2 3 2 3
 EXTRA SYMMETRY OF AOS IN SYMMETRY 8:   1 1 1 1 1 2 3 2 3 2   3

 Eigenvalues of metric

         1 0.129E-06 0.785E-06 0.902E-06 0.902E-06 0.454E-05 0.180E-04 0.180E-04 0.247E-04
         2 0.807E-05 0.961E-04 0.455E-03 0.224E-02 0.353E-02 0.600E-02 0.982E-02 0.137E-01
         3 0.807E-05 0.961E-04 0.455E-03 0.224E-02 0.353E-02 0.600E-02 0.982E-02 0.137E-01
         4 0.902E-06 0.180E-04 0.123E-03 0.420E-03 0.173E-02 0.627E-02 0.105E-01 0.204E-01
         5 0.807E-05 0.961E-04 0.455E-03 0.224E-02 0.353E-02 0.600E-02 0.982E-02 0.137E-01
         6 0.902E-06 0.180E-04 0.123E-03 0.420E-03 0.173E-02 0.627E-02 0.105E-01 0.204E-01
         7 0.902E-06 0.180E-04 0.123E-03 0.420E-03 0.173E-02 0.627E-02 0.105E-01 0.204E-01
         8 0.180E+00 0.270E+00 0.270E+00 0.397E+00 0.844E+00 0.906E+00 0.906E+00 0.149E+01


 **********************************************************************************************************************************
 DATASETS  * FILE   NREC   LENGTH (MB)   RECORD NAMES
              1      22       21.17       500      610      700      900      950      970     1000      129      960     1700   
                                          VAR    BASINP    GEOM    SYMINP    ZMAT    AOBASIS   BASIS     P2S    ABASIS    OPER   
                                         1101     1401     1411     1412     1650     1100     1400     1410     1200     1210   
                                          SR      EKINR    POTR     PVPR    MOLCAS      S      EKIN      POT      H0       H01  
                                         1080     1600   
                                         AOSYM     SMH  

 PROGRAMS   *        TOTAL       INT
 CPU TIMES  *        99.92     99.33
 REAL TIME  *       104.96 SEC
 DISK USED  *         1.91 GB      
 GA USED    *         0.00 MB       (max)       0.00 MB       (current)
 **********************************************************************************************************************************


 PROGRAM * RHF-SCF (OPEN SHELL)       Authors: W. Meyer, H.-J. Werner


 NUMBER OF ELECTRONS:      24+   23-    SPACE SYMMETRY=1    SPIN SYMMETRY: Doublet 
 CONVERGENCE THRESHOLDS:    1.00E-05 (Density)    1.00E-07 (Energy)
 MAX. NUMBER OF ITERATIONS:       60
 INTERPOLATION TYPE:            DIIS
 INTERPOLATION STEPS:              2 (START)      1 (STEP)
 LEVEL SHIFTS:                 -0.60 (CLOSED) -0.30 (OPEN) 


 Singly occupied orbitals:      9.1
 
 Extra symmetries of mos in symmetry 1:   1   1   1   1   3   2   3   2   1
 Orbital guess generated from atomic densities. Full valence occupancy:    9   3   3   2   3   2   2   0


 Molecular orbital dump at record        4202.2

 ITERATION    DDIFF          GRAD             ENERGY        2-EL.EN.            DIPOLE MOMENTS         DIIS   ORB.
    1      0.000D+00      0.000D+00     -5285.60572561   3439.629552    0.00000    0.00000    0.00000    0    start
    2      0.000D+00      0.100D+00     -5304.33157743   4357.221254    0.00000    0.00000    0.00000    1    diag,B
    3      0.691D+01      0.148D+00     -5310.04262880   4212.134437    0.00000    0.00000    0.00000    2    diag,B
    4      0.440D-01      0.673D-01     -5312.49097674   4096.139655    0.00000    0.00000    0.00000    3    diag,B
    5      0.356D-01      0.190D-01     -5312.86807605   4044.385698    0.00000    0.00000    0.00000    4    diag,B
    6      0.166D-01      0.337D-02     -5312.90209902   4031.463959    0.00000    0.00000    0.00000    5    diag,B
    7      0.811D-02      0.324D-02     -5312.91065378   4034.024033    0.00000    0.00000    0.00000    6    fixocc
    8      0.386D-02      0.124D-02     -5312.91325954   4035.128070    0.00000    0.00000    0.00000    7    diag,B
    9      0.215D-02      0.218D-03     -5312.91365813   4035.350913    0.00000    0.00000    0.00000    8    diag,B
   10      0.159D-02      0.858D-04     -5312.91375041   4035.140221    0.00000    0.00000    0.00000    9    orth
   11      0.832D-03      0.361D-04     -5312.91376163   4035.049543    0.00000    0.00000    0.00000    9    diag,B
   12      0.134D-03      0.935D-05     -5312.91376331   4035.023507    0.00000    0.00000    0.00000    9    diag,B
   13      0.126D-03      0.328D-05     -5312.91376348   4035.021413    0.00000    0.00000    0.00000    9    diag,B
   14      0.275D-04      0.698D-06     -5312.91376348   4035.019966    0.00000    0.00000    0.00000    9    diag,B
   15      0.758D-05      0.265D-06     -5312.91376348   4035.020056    0.00000    0.00000    0.00000    0    orth

 Final alpha occupancy:   9   3   3   2   3   2   2   0
 Final beta  occupancy:   8   3   3   2   3   2   2   0

 !RHF STATE 1.1 Energy              -5312.913763483168
 Nuclear energy                         0.00000000
 One-electron energy                -7330.42379149
 Two-electron energy                 2017.51002800
 Virial quotient                       -0.88082580
 !RHF STATE 1.1 Dipole moment           0.00000000     0.00000000     0.00000000
 Dipole moment /Debye                   0.00000000     0.00000000     0.00000000

 ELECTRON ORBITALS
 =================


   Orb  Occ    Energy  Couls-En    Coefficients

                                   1 1s      1 1s      1 1s      1 1s      1 1s      1 1s      1 1s      1 1s      1 1s      1 1s   
                                   1 1s      1 1s      1 1s      1 1s      1 1s      1 1s      1 1s      1 1s      1 1s      1 1s   
                                   1 1s      1 1s      1 1s      1 1s      1 1s      1 1s      1 1s      1 1s      1 1s      1 1s   
                                   1 1s      1 1s      1 1s      1 1s      1 3d0     1 3d2+    1 3d0     1 3d2+    1 3d0     1 3d2+ 
                                   1 3d0     1 3d2+    1 3d0     1 3d2+    1 3d0     1 3d2+    1 3d0     1 3d2+    1 3d0     1 3d2+ 
                                   1 3d0     1 3d2+    1 3d0     1 3d2+    1 3d0     1 3d2+    1 3d0     1 3d2+    1 3d0     1 3d2+ 
                                   1 3d0     1 3d2+    1 3d0     1 3d2+    1 3d0     1 3d2+    1 3d0     1 3d2+    1 3d0     1 3d2+ 
                                   1 3d0     1 3d2+    1 3d0     1 3d2+    1 3d0     1 3d2+    1 3d0     1 3d2+    1 5g0     1 5g4+ 
                                   1 5g2+    1 5g0     1 5g4+    1 5g2+    1 5g0     1 5g4+    1 5g2+    1 5g0     1 5g4+    1 5g2+ 


   1.1   2  -942.4333-2081.2697  0.000273 -0.000188  0.000535  0.000078  0.000893  0.000946  0.002224  0.003606  0.007098  0.013251
                                 0.026529  0.053485  0.109095  0.206804  0.322480  0.310300  0.114773  0.001901  0.010582 -0.015422
                                 0.018271 -0.020566  0.017610 -0.010489  0.004593 -0.003606  0.003400 -0.002980  0.001539 -0.000248
                                 0.000099 -0.000029  0.000009 -0.000002 -0.000000  0.000000  0.000000  0.000000 -0.000000 -0.000000
                                 0.000000  0.000000  0.000000 -0.000000  0.000000  0.000000 -0.000000 -0.000000  0.000000  0.000000
                                -0.000000 -0.000000  0.000000  0.000000 -0.000000 -0.000000  0.000000  0.000000 -0.000000 -0.000000
                                 0.000000  0.000000 -0.000000 -0.000000  0.000000  0.000000 -0.000000 -0.000000  0.000000  0.000000
                                -0.000000 -0.000000  0.000000  0.000000 -0.000000  0.000000  0.000000 -0.000000  0.000000 -0.000000
                                 0.000000 -0.000000  0.000000 -0.000000  0.000000 -0.000000  0.000000 -0.000000 -0.000000 -0.000000

   2.1   2  -141.9192 -426.3426 -0.000092  0.000064 -0.000181 -0.000027 -0.000303 -0.000323 -0.000757 -0.001238 -0.002437 -0.004619
                                -0.009310 -0.019397 -0.041014 -0.085628 -0.156678 -0.205303 -0.015630  0.470829  0.473971  0.109936
                                 0.076844  0.037889 -0.051207  0.042193 -0.023275  0.020620 -0.020903  0.019072 -0.010069  0.001679
                                -0.000679  0.000200 -0.000060  0.000014 -0.000000  0.000000 -0.000000 -0.000000 -0.000000  0.000000
                                -0.000000  0.000000 -0.000000 -0.000000 -0.000000 -0.000000 -0.000000 -0.000000 -0.000000  0.000000
                                 0.000000 -0.000000 -0.000000  0.000000  0.000000 -0.000000 -0.000000  0.000000  0.000000 -0.000000
                                -0.000000  0.000000  0.000000 -0.000000 -0.000000  0.000000  0.000000 -0.000000 -0.000000  0.000000
                                 0.000000 -0.000000 -0.000000  0.000000  0.000000 -0.000000 -0.000000 -0.000000  0.000000 -0.000000
                                 0.000000 -0.000000  0.000000 -0.000000  0.000000 -0.000000  0.000000  0.000000 -0.000000 -0.000000

   3.1   2   -27.3732 -145.4525  0.000040 -0.000028  0.000079  0.000012  0.000132  0.000141  0.000330  0.000540  0.001063  0.002017
                                 0.004074  0.008518  0.018128  0.038340  0.072043  0.099248  0.004870 -0.337331 -0.512442 -0.035119
                                -0.055250  0.525596  0.320664  0.384661  0.099652  0.005165  0.001911  0.000832 -0.000167  0.000191
                                -0.000063  0.000018 -0.000009  0.000001  0.000000 -0.000000  0.000000  0.000000  0.000000  0.000000
                                 0.000000 -0.000000  0.000000  0.000000  0.000000  0.000000  0.000000  0.000000  0.000000  0.000000
                                -0.000000  0.000000  0.000000  0.000000 -0.000000  0.000000  0.000000  0.000000 -0.000000 -0.000000
                                 0.000000  0.000000 -0.000000 -0.000000  0.000000 -0.000000 -0.000000  0.000000  0.000000 -0.000000
                                -0.000000  0.000000  0.000000 -0.000000 -0.000000  0.000000  0.000000 -0.000000 -0.000000 -0.000000
                                -0.000000 -0.000000 -0.000000  0.000000  0.000000 -0.000000  0.000000  0.000000 -0.000000  0.000000

   4.1   2    -4.2726  -57.9489 -0.000017  0.000012 -0.000033 -0.000005 -0.000055 -0.000059 -0.000138 -0.000225 -0.000444 -0.000843
                                -0.001703 -0.003563 -0.007594 -0.016100 -0.030415 -0.042319 -0.001902  0.155906  0.257966  0.007749
                                 0.048293 -0.389095 -0.301518 -0.480359  0.089186  0.520061  0.442607  0.200075  0.133360  0.027078
                                -0.003712  0.001541 -0.000254  0.000092 -0.000000  0.000000 -0.000000 -0.000000 -0.000000  0.000000
                                -0.000000 -0.000000 -0.000000 -0.000000 -0.000000 -0.000000 -0.000000 -0.000000 -0.000000 -0.000000
                                -0.000000  0.000000 -0.000000 -0.000000 -0.000000 -0.000000  0.000000 -0.000000 -0.000000  0.000000
                                 0.000001 -0.000000 -0.000001  0.000000  0.000001 -0.000000 -0.000000  0.000000  0.000000 -0.000000
                                -0.000000  0.000000 -0.000000 -0.000000 -0.000000  0.000000  0.000000 -0.000000 -0.000000 -0.000000
                                -0.000000 -0.000000 -0.000000  0.000000  0.000000 -0.000000  0.000000 -0.000000  0.000000  0.000000

   5.1   2   -14.4793 -124.0012 -0.000000  0.000000 -0.000000  0.000000 -0.000000  0.000000 -0.000000  0.000000 -0.000000 -0.000000
                                -0.000000 -0.000000 -0.000000  0.000000 -0.000000  0.000000 -0.000000  0.000000 -0.000000  0.000000
                                -0.000000  0.000000 -0.000000  0.000000 -0.000000  0.000000 -0.000000  0.000000 -0.000000  0.000000
                                -0.000000  0.000000 -0.000000  0.000000  0.000000  0.000025  0.000000  0.000045  0.000000  0.000286
                                 0.000000  0.001143  0.000000  0.005574  0.000000  0.022844  0.000000  0.082993  0.000001  0.215387
                                 0.000000  0.014289  0.000001  0.366786  0.000001  0.362684  0.000000  0.018932  0.000001  0.252046
                                -0.000001 -0.240209  0.000001  0.241665 -0.000000 -0.177080  0.000000  0.101532 -0.000000 -0.030083
                                 0.000000  0.006509 -0.000000 -0.001287  0.000000  0.000405 -0.000000 -0.000110 -0.000000  0.000000
                                 0.000000  0.000000 -0.000000 -0.000000 -0.000000  0.000000  0.000000  0.000000 -0.000000 -0.000000

   6.1   2   -14.4793 -124.0012  0.000000 -0.000000  0.000000  0.000000  0.000000  0.000000  0.000000  0.000000  0.000000  0.000000
                                 0.000000  0.000000  0.000000  0.000000  0.000000  0.000000 -0.000000 -0.000000 -0.000000  0.000000
                                -0.000001  0.000001 -0.000001  0.000001 -0.000001  0.000001 -0.000001  0.000002 -0.000001  0.000000
                                -0.000000  0.000000 -0.000000  0.000000  0.000025 -0.000000  0.000045 -0.000000  0.000286 -0.000000
                                 0.001143 -0.000000  0.005574 -0.000000  0.022844 -0.000000  0.082993 -0.000000  0.215387 -0.000001
                                 0.014289 -0.000000  0.366786 -0.000001  0.362684 -0.000001  0.018932 -0.000000  0.252046 -0.000001
                                -0.240209  0.000001  0.241665 -0.000001 -0.177080  0.000000  0.101533 -0.000000 -0.030084  0.000000
                                 0.006509 -0.000000 -0.001287  0.000000  0.000405 -0.000000 -0.000110  0.000000  0.000000  0.000000
                                -0.000000 -0.000000  0.000000 -0.000000  0.000000 -0.000000 -0.000000 -0.000000  0.000000  0.000000

   7.1   2    -0.5113  -38.6479  0.000000 -0.000000  0.000000  0.000000  0.000000  0.000000  0.000000  0.000000  0.000000  0.000000
                                 0.000000  0.000000  0.000000  0.000000  0.000000  0.000000  0.000000 -0.000000  0.000000 -0.000000
                                 0.000000 -0.000000  0.000000 -0.000000  0.000000 -0.000000  0.000000 -0.000000  0.000000 -0.000000
                                 0.000000 -0.000000  0.000000 -0.000000 -0.000000 -0.000008 -0.000000 -0.000014 -0.000000 -0.000092
                                -0.000000 -0.000362 -0.000000 -0.001793 -0.000000 -0.007334 -0.000000 -0.027083 -0.000000 -0.070529
                                -0.000000 -0.005618 -0.000000 -0.116072 -0.000000 -0.103829  0.000000  0.039009  0.000000  0.062950
                                 0.000000  0.138277  0.000000  0.163133  0.000000  0.138094  0.000000  0.202493  0.000000  0.167156
                                 0.000000  0.216015  0.000000  0.114547  0.000000  0.020646  0.000000  0.000827  0.000000 -0.000000
                                -0.000000 -0.000000  0.000000  0.000000  0.000000  0.000000  0.000000 -0.000000 -0.000000 -0.000000

   8.1   2    -0.5113  -38.6479 -0.000000  0.000000 -0.000000 -0.000000 -0.000000 -0.000000 -0.000000 -0.000000 -0.000000 -0.000000
                                -0.000000 -0.000000 -0.000000 -0.000000 -0.000000 -0.000000 -0.000000  0.000002  0.000003 -0.000000
                                 0.000001 -0.000005 -0.000002 -0.000006  0.000003  0.000007  0.000010  0.000001  0.000007 -0.000004
                                -0.000013 -0.000022 -0.000004 -0.000000 -0.000008  0.000000 -0.000014  0.000000 -0.000092  0.000000
                                -0.000362  0.000000 -0.001793  0.000000 -0.007334  0.000000 -0.027083  0.000000 -0.070529  0.000000
                                -0.005618  0.000000 -0.116072  0.000000 -0.103829  0.000000  0.039009 -0.000000  0.062947 -0.000000
                                 0.138283 -0.000000  0.163123 -0.000000  0.138109 -0.000000  0.202479 -0.000000  0.167164 -0.000000
                                 0.216011 -0.000000  0.114550 -0.000000  0.020641 -0.000000  0.000832 -0.000000 -0.000000 -0.000000
                                -0.000000  0.000000  0.000000 -0.000000  0.000000  0.000000 -0.000000 -0.000000  0.000000 -0.000000

   9.1   +    -0.2369  -16.4746  0.000004 -0.000003  0.000007  0.000001  0.000012  0.000013  0.000031  0.000050  0.000099  0.000188
                                 0.000380  0.000796  0.001696  0.003599  0.006801  0.009488  0.000401 -0.035307 -0.059936  0.000238
                                -0.016793  0.105128  0.064297  0.140947 -0.053495 -0.144317 -0.222531 -0.005289 -0.177364  0.025424
                                 0.210947  0.580089  0.342946  0.012733 -0.000000  0.000000 -0.000000  0.000000 -0.000000  0.000000
                                -0.000000  0.000000 -0.000000  0.000000 -0.000000  0.000000 -0.000001  0.000000 -0.000002  0.000000
                                -0.000000  0.000000 -0.000004  0.000000 -0.000003  0.000000  0.000001 -0.000000  0.000002  0.000000
                                 0.000004 -0.000000  0.000006  0.000000  0.000004 -0.000000  0.000007  0.000000  0.000005 -0.000000
                                 0.000008  0.000000  0.000006 -0.000000  0.000005  0.000000  0.000003 -0.000000  0.000000  0.000000
                                -0.000000  0.000000 -0.000000  0.000000  0.000000  0.000000 -0.000000 -0.000000  0.000000  0.000000

  10.1   0     0.0299   -5.0702 -0.000001  0.000001 -0.000002 -0.000000 -0.000003 -0.000003 -0.000008 -0.000012 -0.000025 -0.000044
                                -0.000097 -0.000182 -0.000436 -0.000817 -0.001783 -0.001965 -0.001089  0.012836 -0.018091  0.091701
                                -0.241686  0.489391 -0.838964  0.818944 -0.863430  1.624917 -2.991818  5.164548 -4.137235  2.171543
                                -2.286609  2.104350 -3.195849  2.650880  0.000000  0.000000 -0.000000 -0.000000  0.000000  0.000000
                                 0.000000 -0.000000  0.000000 -0.000000  0.000000 -0.000000  0.000000 -0.000000  0.000000 -0.000000
                                 0.000000  0.000000  0.000000 -0.000000  0.000001  0.000000 -0.000001 -0.000000  0.000004  0.000000
                                -0.000009 -0.000000  0.000011  0.000000 -0.000012 -0.000000  0.000008  0.000000 -0.000004 -0.000000
                                 0.000000  0.000000 -0.000001 -0.000000 -0.000000  0.000000 -0.000001 -0.000000  0.000000  0.000000
                                 0.000000 -0.000000 -0.000000 -0.000000 -0.000000 -0.000000 -0.000000 -0.000000 -0.000000  0.000000

  11.1   0     0.1024   -6.3256 -0.000000  0.000000 -0.000000 -0.000000 -0.000000 -0.000000 -0.000000 -0.000000 -0.000000 -0.000000
                                -0.000000 -0.000000 -0.000000 -0.000000 -0.000000 -0.000000  0.000000  0.000000  0.000001 -0.000001
                                 0.000003 -0.000005  0.000006 -0.000007  0.000005 -0.000005  0.000009 -0.000007  0.000004  0.000002
                                -0.000006  0.000005 -0.000010  0.000004 -0.000000  0.000000  0.000004 -0.000000 -0.000003  0.000000
                                 0.000050 -0.000000  0.000051 -0.000000  0.000677 -0.000000  0.001117 -0.000000  0.010114 -0.000000
                                -0.012494  0.000000  0.024180 -0.000000 -0.046390  0.000000  0.139897 -0.000000 -0.529570  0.000001
                                 1.314263 -0.000003 -2.157215  0.000005  2.914095 -0.000007 -2.711905  0.000007  1.525119 -0.000004
                                -0.796638  0.000002  0.580534 -0.000001 -0.837757  0.000002  1.443320 -0.000004  0.000000  0.000000
                                -0.000000 -0.000000 -0.000000  0.000000  0.000000  0.000000 -0.000000 -0.000000 -0.000000  0.000000

                                   1 2px     1 2px     1 2px     1 2px     1 2px     1 2px     1 2px     1 2px     1 2px     1 2px  
                                   1 2px     1 2px     1 2px     1 2px     1 2px     1 2px     1 2px     1 2px     1 2px     1 2px  
                                   1 2px     1 2px     1 2px     1 2px     1 2px     1 2px     1 2px     1 4f1+    1 4f3+    1 4f1+ 
                                   1 4f3+    1 4f1+    1 4f3+    1 4f1+    1 4f3+    1 4f1+    1 4f3+    1 6h1+    1 6h3+    1 6h5+ 
                                   1 6h1+    1 6h3+    1 6h5+    1 6h1+    1 6h3+    1 6h5+ 

   1.2   2  -127.0963 -404.8539  0.000019 -0.000002  0.000046  0.000047  0.000155  0.000327  0.000912  0.002563  0.008027  0.025736
                                 0.080611  0.214743  0.402402  0.367443  0.066982  0.051702 -0.081427  0.074710 -0.037483  0.020145
                                -0.013362  0.009597 -0.002918  0.000422 -0.000248  0.000122 -0.000039 -0.000000  0.000000 -0.000000
                                -0.000000  0.000000  0.000000 -0.000000 -0.000000 -0.000000 -0.000000 -0.000000  0.000000  0.000000
                                 0.000000 -0.000000  0.000000  0.000000 -0.000000 -0.000000

   2.2   2   -22.3710 -136.5619 -0.000009  0.000001 -0.000021 -0.000021 -0.000072 -0.000145 -0.000424 -0.001148 -0.003747 -0.011822
                                -0.038818 -0.106066 -0.217254 -0.154423  0.281420  0.132088  0.569069 -0.022226  0.224972 -0.058188
                                 0.051176 -0.036662  0.011701 -0.001735  0.001044 -0.000519  0.000168 -0.000000  0.000000  0.000000
                                -0.000000 -0.000000  0.000000  0.000000 -0.000000 -0.000000  0.000000 -0.000000 -0.000000 -0.000000
                                 0.000000 -0.000000 -0.000000  0.000000  0.000000 -0.000000

   3.2   2    -2.7434  -52.0566  0.000003 -0.000000  0.000008  0.000008  0.000028  0.000057  0.000168  0.000452  0.001487  0.004673
                                 0.015486  0.042501  0.088686  0.058311 -0.156558 -0.072992 -0.367751  0.051163 -0.010271  0.477384
                                 0.415671  0.112152  0.141213  0.012672 -0.003478  0.001709 -0.000535 -0.000000 -0.000000  0.000000
                                 0.000000  0.000000 -0.000000 -0.000000  0.000000  0.000000 -0.000000  0.000000 -0.000000  0.000000
                                -0.000000  0.000000 -0.000000  0.000000  0.000000  0.000000

   4.2   0     0.0190   -5.7254 -0.000000  0.000000 -0.000000 -0.000000 -0.000001 -0.000003 -0.000008 -0.000023 -0.000070 -0.000237
                                -0.000746 -0.002142 -0.004247 -0.003347  0.012020 -0.010295  0.057297 -0.054712  0.052662 -0.090306
                                 0.088973 -0.168112  0.100980 -0.053725  0.370074 -0.500778  1.237140  0.000000 -0.000000  0.000000
                                 0.000000 -0.000000 -0.000000  0.000001  0.000000  0.000000  0.000000 -0.000000 -0.000000 -0.000000
                                 0.000000  0.000000  0.000000 -0.000000  0.000000 -0.000000

   5.2   0     0.0599   -7.7038  0.000000 -0.000000  0.000001  0.000001  0.000003  0.000005  0.000017  0.000040  0.000146  0.000421
                                 0.001492  0.003876  0.008648  0.004275 -0.005831 -0.039797  0.051955 -0.114094  0.125812 -0.087428
                                 0.314670 -0.343417  0.244953 -0.377843  0.526671 -2.187238  1.611505 -0.000000 -0.000000 -0.000000
                                 0.000000  0.000000 -0.000000 -0.000001  0.000000 -0.000000  0.000000  0.000000 -0.000000 -0.000000
                                -0.000000  0.000000  0.000000  0.000000  0.000000  0.000000

                                   1 2py     1 2py     1 2py     1 2py     1 2py     1 2py     1 2py     1 2py     1 2py     1 2py  
                                   1 2py     1 2py     1 2py     1 2py     1 2py     1 2py     1 2py     1 2py     1 2py     1 2py  
                                   1 2py     1 2py     1 2py     1 2py     1 2py     1 2py     1 2py     1 4f1-    1 4f3-    1 4f1- 
                                   1 4f3-    1 4f1-    1 4f3-    1 4f1-    1 4f3-    1 4f1-    1 4f3-    1 6h1-    1 6h3-    1 6h5- 
                                   1 6h1-    1 6h3-    1 6h5-    1 6h1-    1 6h3-    1 6h5- 

   1.3   2  -127.0963 -404.8539  0.000019 -0.000002  0.000046  0.000047  0.000155  0.000327  0.000912  0.002563  0.008027  0.025736
                                 0.080611  0.214743  0.402402  0.367443  0.066982  0.051702 -0.081427  0.074710 -0.037483  0.020145
                                -0.013362  0.009597 -0.002918  0.000422 -0.000248  0.000122 -0.000039 -0.000000 -0.000000 -0.000000
                                 0.000000  0.000000 -0.000000 -0.000000  0.000000 -0.000000  0.000000 -0.000000 -0.000000 -0.000000
                                 0.000000  0.000000  0.000000  0.000000  0.000000  0.000000

   2.3   2   -22.3710 -136.5619 -0.000009  0.000001 -0.000021 -0.000021 -0.000072 -0.000145 -0.000424 -0.001148 -0.003747 -0.011822
                                -0.038818 -0.106066 -0.217254 -0.154423  0.281420  0.132088  0.569069 -0.022226  0.224972 -0.058188
                                 0.051176 -0.036662  0.011701 -0.001735  0.001044 -0.000519  0.000168 -0.000000 -0.000000  0.000000
                                 0.000000 -0.000000 -0.000000  0.000000  0.000000 -0.000000 -0.000000 -0.000000 -0.000000 -0.000000
                                 0.000000  0.000000 -0.000000  0.000000  0.000000 -0.000000

   3.3   2    -2.7434  -52.0566  0.000003 -0.000000  0.000008  0.000008  0.000028  0.000057  0.000168  0.000452  0.001487  0.004673
                                 0.015486  0.042501  0.088686  0.058311 -0.156558 -0.072992 -0.367751  0.051163 -0.010271  0.477384
                                 0.415671  0.112152  0.141213  0.012672 -0.003478  0.001709 -0.000535 -0.000000  0.000000  0.000000
                                -0.000000  0.000000  0.000000 -0.000000 -0.000000  0.000000  0.000000  0.000000 -0.000000  0.000000
                                -0.000000  0.000000 -0.000000  0.000000  0.000000  0.000000

   4.3   0     0.0190   -5.7254 -0.000000  0.000000 -0.000000 -0.000000 -0.000001 -0.000003 -0.000008 -0.000023 -0.000070 -0.000237
                                -0.000746 -0.002142 -0.004247 -0.003347  0.012020 -0.010295  0.057297 -0.054712  0.052662 -0.090306
                                 0.088973 -0.168112  0.100980 -0.053725  0.370074 -0.500778  1.237140  0.000000  0.000000  0.000000
                                 0.000000 -0.000000  0.000000  0.000001 -0.000000  0.000000 -0.000000 -0.000000  0.000000 -0.000000
                                 0.000000 -0.000000  0.000000 -0.000000 -0.000000 -0.000000

   5.3   0     0.0599   -7.7038  0.000000 -0.000000  0.000001  0.000001  0.000003  0.000005  0.000017  0.000040  0.000146  0.000421
                                 0.001492  0.003876  0.008648  0.004275 -0.005831 -0.039797  0.051955 -0.114094  0.125812 -0.087428
                                 0.314670 -0.343417  0.244953 -0.377843  0.526671 -2.187238  1.611505 -0.000000  0.000000 -0.000000
                                -0.000000  0.000000  0.000000 -0.000001 -0.000000 -0.000000 -0.000000  0.000000  0.000000  0.000000
                                -0.000000 -0.000000  0.000000  0.000000 -0.000000 -0.000000

                                   1 3d2-    1 3d2-    1 3d2-    1 3d2-    1 3d2-    1 3d2-    1 3d2-    1 3d2-    1 3d2-    1 3d2- 
                                   1 3d2-    1 3d2-    1 3d2-    1 3d2-    1 3d2-    1 3d2-    1 3d2-    1 3d2-    1 3d2-    1 3d2- 
                                   1 3d2-    1 3d2-    1 5g2-    1 5g4-    1 5g2-    1 5g4-    1 5g2-    1 5g4-    1 5g2-    1 5g4- 


   1.4   2   -14.4793 -124.0012  0.000025  0.000045  0.000286  0.001143  0.005574  0.022844  0.082993  0.215387  0.014289  0.366786
                                 0.362684  0.018932  0.252046 -0.240209  0.241665 -0.177080  0.101532 -0.030083  0.006509 -0.001287
                                 0.000405 -0.000110  0.000000  0.000000 -0.000000 -0.000000  0.000000  0.000000 -0.000000 -0.000000

   2.4   2    -0.5113  -38.6479 -0.000008 -0.000014 -0.000092 -0.000362 -0.001793 -0.007334 -0.027083 -0.070529 -0.005618 -0.116072
                                -0.103829  0.039009  0.062950  0.138277  0.163134  0.138094  0.202493  0.167156  0.216015  0.114547
                                 0.020646  0.000827 -0.000000 -0.000000  0.000000  0.000000  0.000000  0.000000 -0.000000 -0.000000

   3.4   0     0.1024   -6.3256 -0.000000  0.000004 -0.000003  0.000050  0.000051  0.000677  0.001117  0.010114 -0.012494  0.024180
                                -0.046390  0.139897 -0.529572  1.314268 -2.157223  2.914106 -2.711914  1.525125 -0.796639  0.580536
                                -0.837760  1.443322  0.000000  0.000000 -0.000000 -0.000000  0.000000  0.000000 -0.000000  0.000000

   4.4   0     0.3075   -9.4050  0.000004 -0.000005  0.000043  0.000010  0.000535  0.001015  0.007209  0.000757  0.033349 -0.017688
                                 0.154529 -0.366434  1.308152 -3.370274  5.402645 -7.475188  6.872242 -4.017192  2.024187 -1.643386
                                 2.631103 -1.276639  0.000000  0.000000 -0.000000 -0.000000  0.000000  0.000000 -0.000000  0.000000

                                   1 2pz     1 2pz     1 2pz     1 2pz     1 2pz     1 2pz     1 2pz     1 2pz     1 2pz     1 2pz  
                                   1 2pz     1 2pz     1 2pz     1 2pz     1 2pz     1 2pz     1 2pz     1 2pz     1 2pz     1 2pz  
                                   1 2pz     1 2pz     1 2pz     1 2pz     1 2pz     1 2pz     1 2pz     1 4f0     1 4f2+    1 4f0  
                                   1 4f2+    1 4f0     1 4f2+    1 4f0     1 4f2+    1 4f0     1 4f2+    1 6h2+    1 6h4+    1 6h0  
                                   1 6h2+    1 6h4+    1 6h0     1 6h2+    1 6h4+    1 6h0  

   1.5   2  -127.0963 -404.8539  0.000019 -0.000002  0.000046  0.000047  0.000155  0.000327  0.000912  0.002563  0.008027  0.025736
                                 0.080611  0.214743  0.402402  0.367443  0.066982  0.051702 -0.081427  0.074710 -0.037483  0.020145
                                -0.013362  0.009597 -0.002918  0.000422 -0.000248  0.000122 -0.000039  0.000000  0.000000 -0.000000
                                -0.000000  0.000000  0.000000 -0.000000 -0.000000 -0.000000 -0.000000  0.000000  0.000000 -0.000000
                                -0.000000 -0.000000  0.000000  0.000000 -0.000000  0.000000

   2.5   2   -22.3710 -136.5619 -0.000009  0.000001 -0.000021 -0.000021 -0.000072 -0.000145 -0.000424 -0.001148 -0.003747 -0.011822
                                -0.038818 -0.106066 -0.217254 -0.154423  0.281420  0.132088  0.569069 -0.022226  0.224972 -0.058188
                                 0.051176 -0.036662  0.011701 -0.001735  0.001044 -0.000519  0.000168 -0.000000 -0.000000  0.000000
                                 0.000000 -0.000000 -0.000000  0.000000  0.000000 -0.000000 -0.000000 -0.000000  0.000000 -0.000000
                                 0.000000 -0.000000  0.000000  0.000000 -0.000000  0.000000

   3.5   2    -2.7434  -52.0566  0.000003 -0.000000  0.000008  0.000008  0.000028  0.000057  0.000168  0.000452  0.001487  0.004673
                                 0.015486  0.042501  0.088687  0.058311 -0.156558 -0.072992 -0.367752  0.051163 -0.010271  0.477384
                                 0.415671  0.112153  0.141212  0.012672 -0.003478  0.001709 -0.000535 -0.000000 -0.000000  0.000000
                                -0.000000  0.000000  0.000000  0.000000 -0.000000  0.000000  0.000000 -0.000000  0.000000  0.000000
                                 0.000000 -0.000000 -0.000000  0.000000 -0.000000  0.000000

   4.5   0     0.0190   -5.7255 -0.000000  0.000000 -0.000000 -0.000000 -0.000001 -0.000003 -0.000008 -0.000023 -0.000070 -0.000237
                                -0.000746 -0.002142 -0.004247 -0.003347  0.012021 -0.010295  0.057296 -0.054711  0.052661 -0.090305
                                 0.088970 -0.168109  0.100977 -0.053719  0.370073 -0.500753  1.237118  0.000000 -0.000000  0.000000
                                -0.000000 -0.000000 -0.000000  0.000001 -0.000000  0.000000 -0.000000 -0.000000  0.000000 -0.000000
                                 0.000000 -0.000000  0.000000  0.000000  0.000000 -0.000000

   5.5   0     0.0599   -7.7038  0.000000 -0.000000  0.000001  0.000001  0.000003  0.000005  0.000017  0.000040  0.000146  0.000421
                                 0.001492  0.003876  0.008648  0.004275 -0.005832 -0.039797  0.051954 -0.114093  0.125811 -0.087426
                                 0.314667 -0.343413  0.244951 -0.377842  0.526659 -2.187223  1.611516 -0.000000  0.000000 -0.000000
                                 0.000000 -0.000000  0.000000 -0.000001  0.000000 -0.000000  0.000000  0.000000 -0.000000  0.000000
                                -0.000000  0.000000 -0.000000 -0.000000 -0.000000  0.000000

                                   1 3d1+    1 3d1+    1 3d1+    1 3d1+    1 3d1+    1 3d1+    1 3d1+    1 3d1+    1 3d1+    1 3d1+ 
                                   1 3d1+    1 3d1+    1 3d1+    1 3d1+    1 3d1+    1 3d1+    1 3d1+    1 3d1+    1 3d1+    1 3d1+ 
                                   1 3d1+    1 3d1+    1 5g1+    1 5g3+    1 5g1+    1 5g3+    1 5g1+    1 5g3+    1 5g1+    1 5g3+ 


   1.6   2   -14.4793 -124.0012  0.000025  0.000045  0.000286  0.001143  0.005574  0.022844  0.082993  0.215387  0.014289  0.366786
                                 0.362684  0.018932  0.252045 -0.240208  0.241665 -0.177079  0.101532 -0.030083  0.006509 -0.001287
                                 0.000405 -0.000110  0.000000  0.000000 -0.000000 -0.000000  0.000000 -0.000000 -0.000000 -0.000000

   2.6   2    -0.5113  -38.6479 -0.000008 -0.000014 -0.000092 -0.000362 -0.001793 -0.007334 -0.027083 -0.070529 -0.005618 -0.116072
                                -0.103829  0.039009  0.062950  0.138277  0.163134  0.138094  0.202493  0.167156  0.216015  0.114546
                                 0.020645  0.000826 -0.000000 -0.000000  0.000000  0.000000  0.000000 -0.000000 -0.000000 -0.000000

   3.6   0     0.1024   -6.3256 -0.000000  0.000004 -0.000003  0.000050  0.000051  0.000677  0.001117  0.010114 -0.012494  0.024180
                                -0.046390  0.139897 -0.529570  1.314264 -2.157216  2.914097 -2.711906  1.525121 -0.796637  0.580535
                                -0.837758  1.443320  0.000000 -0.000000 -0.000000  0.000000  0.000000 -0.000000 -0.000000  0.000000

   4.6   0     0.3075   -9.4050  0.000004 -0.000005  0.000043  0.000010  0.000535  0.001015  0.007209  0.000757  0.033349 -0.017688
                                 0.154529 -0.366433  1.308148 -3.370263  5.402629 -7.475167  6.872223 -4.017182  2.024182 -1.643381
                                 2.631101 -1.276640  0.000000  0.000000 -0.000000 -0.000000  0.000000  0.000000 -0.000000 -0.000000

                                   1 3d1-    1 3d1-    1 3d1-    1 3d1-    1 3d1-    1 3d1-    1 3d1-    1 3d1-    1 3d1-    1 3d1- 
                                   1 3d1-    1 3d1-    1 3d1-    1 3d1-    1 3d1-    1 3d1-    1 3d1-    1 3d1-    1 3d1-    1 3d1- 
                                   1 3d1-    1 3d1-    1 5g1-    1 5g3-    1 5g1-    1 5g3-    1 5g1-    1 5g3-    1 5g1-    1 5g3- 


   1.7   2   -14.4793 -124.0012  0.000025  0.000045  0.000286  0.001143  0.005574  0.022844  0.082993  0.215387  0.014289  0.366786
                                 0.362684  0.018932  0.252045 -0.240208  0.241665 -0.177079  0.101532 -0.030083  0.006509 -0.001287
                                 0.000405 -0.000110  0.000000 -0.000000 -0.000000  0.000000  0.000000  0.000000 -0.000000  0.000000

   2.7   2    -0.5113  -38.6479 -0.000008 -0.000014 -0.000092 -0.000362 -0.001793 -0.007334 -0.027083 -0.070529 -0.005618 -0.116072
                                -0.103829  0.039009  0.062950  0.138277  0.163134  0.138094  0.202493  0.167156  0.216015  0.114546
                                 0.020645  0.000826 -0.000000  0.000000  0.000000 -0.000000  0.000000  0.000000 -0.000000  0.000000

   3.7   0     0.1024   -6.3256 -0.000000  0.000004 -0.000003  0.000050  0.000051  0.000677  0.001117  0.010114 -0.012494  0.024180
                                -0.046390  0.139897 -0.529570  1.314264 -2.157216  2.914097 -2.711906  1.525121 -0.796637  0.580535
                                -0.837758  1.443320  0.000000  0.000000 -0.000000 -0.000000  0.000000  0.000000 -0.000000 -0.000000

   4.7   0     0.3075   -9.4050  0.000004 -0.000005  0.000043  0.000010  0.000535  0.001015  0.007209  0.000757  0.033349 -0.017688
                                 0.154529 -0.366433  1.308148 -3.370263  5.402629 -7.475167  6.872223 -4.017182  2.024182 -1.643381
                                 2.631101 -1.276640  0.000000 -0.000000 -0.000000  0.000000  0.000000 -0.000000 -0.000000  0.000000

                                   1 4f2-    1 4f2-    1 4f2-    1 4f2-    1 4f2-    1 6h4-    1 6h2-    1 6h4-    1 6h2-    1 6h4- 
                                   1 6h2- 

   1.8   0     0.6721  -12.6460  0.003029  0.071837 -0.128453  1.062384  0.004607 -0.000000 -0.000000  0.000000  0.000000  0.000000
                                 0.000000

   2.8   0     1.7246  -22.3830  0.110106  0.128756  1.100455 -0.611788  0.019778 -0.000000 -0.000000  0.000000  0.000001 -0.000000
                                 0.000000

 HOMO      9.1    -0.236930 =      -6.4472eV
 LUMO      4.5     0.018958 =       0.5159eV
 LUMO-HOMO         0.255887 =       6.9631eV


 **********************************************************************************************************************************
 DATASETS  * FILE   NREC   LENGTH (MB)   RECORD NAMES
              1      22       21.17       500      610      700      900      950      970     1000      129      960     1700   
                                          VAR    BASINP    GEOM    SYMINP    ZMAT    AOBASIS   BASIS     P2S    ABASIS    OPER   
                                         1101     1401     1411     1412     1650     1100     1400     1410     1200     1210   
                                          SR      EKINR    POTR     PVPR    MOLCAS      S      EKIN      POT      H0       H01  
                                         1080     1600   
                                         AOSYM     SMH  

              2       5        5.88       200      700     1000      520     4202   
                                        OPTIONS   GEOM     BASIS   MCVARS     RHF  

 PROGRAMS   *        TOTAL       RHF       INT
 CPU TIMES  *       101.53      1.61     99.33
 REAL TIME  *       107.97 SEC
 DISK USED  *         2.59 GB      
 SF USED    *         0.07 MB      
 GA USED    *         0.00 MB       (max)       0.00 MB       (current)
 **********************************************************************************************************************************


 PROGRAM * POP (Mulliken population analysis)

 
 Density matrix read from record         4202.2  Type=RHF/CHARGE (state 1.1)
 
 Population analysis by basis function type

 Unique atom        s        p        d        f        g    Total    Charge
   1  AG      9.00000 18.00000 20.00000  0.00000  0.00000 47.00000  + 0.00000


 **********************************************************************************************************************************
 DATASETS  * FILE   NREC   LENGTH (MB)   RECORD NAMES
              1      22       21.17       500      610      700      900      950      970     1000      129      960     1700   
                                          VAR    BASINP    GEOM    SYMINP    ZMAT    AOBASIS   BASIS     P2S    ABASIS    OPER   
                                         1101     1401     1411     1412     1650     1100     1400     1410     1200     1210   
                                          SR      EKINR    POTR     PVPR    MOLCAS      S      EKIN      POT      H0       H01  
                                         1080     1600   
                                         AOSYM     SMH  

              2       5        5.88       200      700     1000      520     4202   
                                        OPTIONS   GEOM     BASIS   MCVARS     RHF  

 PROGRAMS   *        TOTAL       POP       RHF       INT
 CPU TIMES  *       101.54      0.00      1.61     99.33
 REAL TIME  *       108.06 SEC
 DISK USED  *         2.59 GB      
 SF USED    *         0.07 MB      
 GA USED    *         0.00 MB       (max)       0.00 MB       (current)
 **********************************************************************************************************************************


 PROGRAM * MULTI (Direct Multiconfiguration SCF)       Authors: P.J. Knowles, H.-J. Werner (1984)     S.T. Elbert (1988)


 Number of closed-shell orbitals:  23 (   8   3   3   2   3   2   2   0 )
 Number of active  orbitals:        1 (   1   0   0   0   0   0   0   0 )
 Number of external orbitals:     305 (  81  43  43  28  43  28  28  11 )

 State symmetry 1

 Orbital occupancy restrictions for symmetry 1
  1      1       2                               

 Number of electrons:     1    Spin symmetry=Doublet   Space symmetry=1
 Number of states:        1
 Number of CSFs:          1
 
 Maximum number of shells:             1
 Maximum number of spin couplings:     1

 Storage for configuration lists       2, coupling coefficients      1, address lists      7

 Molecular orbitals read from record     4202.2  Type=RHF/CANONICAL (state 1.1)
 *** IN SYMMETRY 1 ORBITAL  8 SYMMETRY CONTAMINATION OF 0.584D-04 HAS BEEN REMOVED
 *** IN SYMMETRY 1 ORBITAL  9 SYMMETRY CONTAMINATION OF 0.277D-04 HAS BEEN REMOVED

 EXTRA SYMMETRY OF MOS IN SYMMETRY 1:   1 1 1 1 3 2 3 2 1 1   2 3 1 2 3 1 2 3 1 2   3 4 6 5 1 2 3 4 6 5   1 2 3 1 2 3 4 6 5 2
                                        3 1 2 3 5 6 4 1 2 3   1 2 3 1 2 3 1 3 2 1   3 2 1 3 2 3 2 1 3 2   1 3 2 1 3 2 1 3 2 1
                                        1 1 1 1 1 1 1 1 1 1
 EXTRA SYMMETRY OF MOS IN SYMMETRY 2:   1 1 1 1 1 1 1 2 3 1   2 3 1 2 3 4 5 6 1 3   2 4 5 6 1 6 5 4 3 2   1 1 1 1 1 1 1 1 1 1
                                        1 1 1 1 1 1
 EXTRA SYMMETRY OF MOS IN SYMMETRY 3:   1 1 1 1 1 1 1 2 3 1   2 3 1 2 3 4 5 6 1 3   2 4 5 6 1 6 5 4 3 2   1 1 1 1 1 1 1 1 1 1
                                        1 1 1 1 1 1
 EXTRA SYMMETRY OF MOS IN SYMMETRY 4:   1 1 1 1 1 1 2 3 1 2   3 1 1 2 3 1 1 3 2 1   1 1 1 1 1 1 1 1 1 1
 EXTRA SYMMETRY OF MOS IN SYMMETRY 5:   1 1 1 1 1 1 1 2 3 1   2 3 1 2 3 6 4 5 1 3   2 6 4 5 1 5 4 6 3 2   1 1 1 1 1 1 1 1 1 1
                                        1 1 1 1 1 1
 EXTRA SYMMETRY OF MOS IN SYMMETRY 6:   1 1 1 1 1 1 2 3 1 2   3 1 1 2 3 1 1 3 2 1   1 1 1 1 1 1 1 1 1 1
 EXTRA SYMMETRY OF MOS IN SYMMETRY 7:   1 1 1 1 1 1 2 3 1 2   3 1 1 2 3 1 1 3 2 1   1 1 1 1 1 1 1 1 1 1
 EXTRA SYMMETRY OF MOS IN SYMMETRY 8:   1 1 1 3 2 1 3 2 2 3   1

 Wavefunction dump at record             5202.2

 Convergence thresholds  0.10E-01 (gradient)  0.10E-05 (energy)  0.10E-02 (step length)

 Number of orbital rotations:     1292   (     8 Core/Active   1203 Core/Virtual   0 Active/Active     81 Active/Virtual)
 Total number of variables:       1293


 ITER. MIC  NCI  NEG     ENERGY(VAR)     ENERGY(PROJ)   ENERGY CHANGE     GRAD(0)  GRAD(ORB)   GRAD(CI)     STEP       TIME

   1   27    4    0   -5312.91376348   -5312.91376348   -0.00000000    0.00000917 0.00000000 0.00000000  0.14D-04      1.36

 ** WVFN ****  CONVERGENCE REACHED, FINAL GRADIENT:  0.51D-09


 First order charge density matrix for state 1.1 saved on record  5202.2 (density set 1)

 Results for state 1.1
 =====================

 !MCSCF STATE 1.1 Energy            -5312.913763483542
 Nuclear energy                         0.00000000
 Kinetic energy                      6031.74176223
 One electron energy                -7330.42372153
 Two electron energy                 2017.50995805
 Virial ratio                           1.88082580

 !MCSCF STATE 1.1 Dipole moment         0.00000000     0.00000000     0.00000000
 Dipole moment /Debye                   0.00000000     0.00000000     0.00000000


 NATURAL ORBITALS
 ================

   Orb     Occ        Energy       Coefficients

                                   1 1s      1 1s      1 1s      1 1s      1 1s      1 1s      1 1s      1 1s      1 1s      1 1s   
                                   1 1s      1 1s      1 1s      1 1s      1 1s      1 1s      1 1s      1 1s      1 1s      1 1s   
                                   1 1s      1 1s      1 1s      1 1s      1 1s      1 1s      1 1s      1 1s      1 1s      1 1s   
                                   1 1s      1 1s      1 1s      1 1s      1 3d0     1 3d2+    1 3d0     1 3d2+    1 3d0     1 3d2+ 
                                   1 3d0     1 3d2+    1 3d0     1 3d2+    1 3d0     1 3d2+    1 3d0     1 3d2+    1 3d0     1 3d2+ 
                                   1 3d0     1 3d2+    1 3d0     1 3d2+    1 3d0     1 3d2+    1 3d0     1 3d2+    1 3d0     1 3d2+ 
                                   1 3d0     1 3d2+    1 3d0     1 3d2+    1 3d0     1 3d2+    1 3d0     1 3d2+    1 3d0     1 3d2+ 
                                   1 3d0     1 3d2+    1 3d0     1 3d2+    1 3d0     1 3d2+    1 3d0     1 3d2+    1 5g0     1 5g4+ 
                                   1 5g2+    1 5g0     1 5g4+    1 5g2+    1 5g0     1 5g4+    1 5g2+    1 5g0     1 5g4+    1 5g2+ 


   1.1  2.00000  -942.433305     0.000273 -0.000188  0.000535  0.000078  0.000893  0.000946  0.002224  0.003606  0.007098  0.013251
                                 0.026529  0.053485  0.109095  0.206804  0.322480  0.310300  0.114773  0.001901  0.010582 -0.015422
                                 0.018271 -0.020566  0.017610 -0.010489  0.004593 -0.003606  0.003400 -0.002980  0.001539 -0.000248
                                 0.000099 -0.000029  0.000009 -0.000002  0.000000  0.000000  0.000000  0.000000  0.000000  0.000000
                                 0.000000  0.000000  0.000000  0.000000  0.000000  0.000000  0.000000  0.000000  0.000000  0.000000
                                 0.000000  0.000000  0.000000  0.000000  0.000000  0.000000  0.000000  0.000000  0.000000  0.000000
                                 0.000000  0.000000  0.000000  0.000000  0.000000  0.000000  0.000000  0.000000  0.000000  0.000000
                                 0.000000  0.000000  0.000000  0.000000  0.000000  0.000000  0.000000  0.000000  0.000000  0.000000
                                 0.000000  0.000000  0.000000  0.000000  0.000000  0.000000  0.000000  0.000000  0.000000  0.000000

   2.1  2.00000  -141.919186    -0.000092  0.000064 -0.000181 -0.000027 -0.000303 -0.000323 -0.000757 -0.001238 -0.002437 -0.004619
                                -0.009310 -0.019397 -0.041014 -0.085628 -0.156678 -0.205303 -0.015630  0.470829  0.473971  0.109936
                                 0.076844  0.037889 -0.051207  0.042193 -0.023275  0.020620 -0.020903  0.019072 -0.010069  0.001679
                                -0.000679  0.000200 -0.000060  0.000014  0.000000  0.000000  0.000000  0.000000  0.000000  0.000000
                                 0.000000  0.000000  0.000000  0.000000  0.000000  0.000000  0.000000  0.000000  0.000000  0.000000
                                 0.000000  0.000000  0.000000  0.000000  0.000000  0.000000  0.000000  0.000000  0.000000  0.000000
                                 0.000000  0.000000  0.000000  0.000000  0.000000  0.000000  0.000000  0.000000  0.000000  0.000000
                                 0.000000  0.000000  0.000000  0.000000  0.000000  0.000000  0.000000  0.000000  0.000000  0.000000
                                 0.000000  0.000000  0.000000  0.000000  0.000000  0.000000  0.000000  0.000000  0.000000  0.000000

   3.1  2.00000   -27.373210     0.000040 -0.000028  0.000079  0.000012  0.000132  0.000141  0.000330  0.000540  0.001063  0.002017
                                 0.004074  0.008518  0.018128  0.038340  0.072043  0.099248  0.004870 -0.337331 -0.512442 -0.035119
                                -0.055250  0.525596  0.320664  0.384661  0.099652  0.005165  0.001911  0.000832 -0.000167  0.000191
                                -0.000063  0.000018 -0.000009  0.000001  0.000000  0.000000  0.000000  0.000000  0.000000  0.000000
                                 0.000000  0.000000  0.000000  0.000000  0.000000  0.000000  0.000000  0.000000  0.000000  0.000000
                                 0.000000  0.000000  0.000000  0.000000  0.000000  0.000000  0.000000  0.000000  0.000000  0.000000
                                 0.000000  0.000000  0.000000  0.000000  0.000000  0.000000  0.000000  0.000000  0.000000  0.000000
                                 0.000000  0.000000  0.000000  0.000000  0.000000  0.000000  0.000000  0.000000  0.000000  0.000000
                                 0.000000  0.000000  0.000000  0.000000  0.000000  0.000000  0.000000  0.000000  0.000000  0.000000

   4.1  2.00000   -14.479339    -0.000000  0.000000 -0.000000 -0.000000 -0.000000 -0.000000 -0.000000 -0.000000 -0.000000 -0.000000
                                -0.000000 -0.000000 -0.000000 -0.000000 -0.000000 -0.000000 -0.000000  0.000000  0.000000  0.000000
                                 0.000000 -0.000000 -0.000000 -0.000000  0.000000  0.000000  0.000000  0.000000  0.000000  0.000000
                                -0.000000  0.000000 -0.000000  0.000000  0.000025  0.000000  0.000045  0.000000  0.000286  0.000000
                                 0.001143  0.000000  0.005574  0.000000  0.022844  0.000000  0.082993  0.000000  0.215387  0.000000
                                 0.014289  0.000000  0.366786  0.000000  0.362684  0.000000  0.018932  0.000000  0.252046  0.000000
                                -0.240209 -0.000000  0.241665  0.000000 -0.177080 -0.000000  0.101533  0.000000 -0.030084 -0.000000
                                 0.006509  0.000000 -0.001287 -0.000000  0.000405  0.000000 -0.000110 -0.000000  0.000000  0.000000
                                 0.000000  0.000000  0.000000  0.000000  0.000000  0.000000  0.000000  0.000000  0.000000  0.000000

   5.1  2.00000   -14.479339    -0.000000  0.000000 -0.000000 -0.000000 -0.000000 -0.000000 -0.000000 -0.000000 -0.000000 -0.000000
                                -0.000000 -0.000000 -0.000000 -0.000000  0.000000  0.000000 -0.000000 -0.000000 -0.000000 -0.000000
                                -0.000000  0.000000  0.000000  0.000000  0.000000 -0.000000 -0.000000 -0.000000 -0.000000 -0.000000
                                 0.000000 -0.000000  0.000000 -0.000000 -0.000000  0.000025 -0.000000  0.000045 -0.000000  0.000286
                                -0.000000  0.001143 -0.000000  0.005574 -0.000000  0.022844 -0.000000  0.082993 -0.000000  0.215387
                                -0.000000  0.014289 -0.000000  0.366786 -0.000000  0.362684 -0.000000  0.018932 -0.000000  0.252046
                                 0.000000 -0.240209 -0.000000  0.241665  0.000000 -0.177080 -0.000000  0.101532  0.000000 -0.030083
                                -0.000000  0.006509  0.000000 -0.001287 -0.000000  0.000405  0.000000 -0.000110  0.000000  0.000000
                                 0.000000  0.000000  0.000000  0.000000  0.000000  0.000000  0.000000  0.000000  0.000000  0.000000

   6.1  2.00000    -4.272577    -0.000017  0.000012 -0.000033 -0.000005 -0.000055 -0.000059 -0.000138 -0.000225 -0.000444 -0.000843
                                -0.001703 -0.003563 -0.007594 -0.016100 -0.030415 -0.042319 -0.001902  0.155906  0.257966  0.007749
                                 0.048293 -0.389095 -0.301518 -0.480359  0.089186  0.520061  0.442607  0.200075  0.133360  0.027078
                                -0.003712  0.001541 -0.000254  0.000092  0.000000  0.000000  0.000000  0.000000  0.000000  0.000000
                                 0.000000  0.000000  0.000000  0.000000  0.000000  0.000000  0.000000  0.000000  0.000000  0.000000
                                 0.000000  0.000000  0.000000  0.000000  0.000000  0.000000  0.000000  0.000000  0.000000  0.000000
                                 0.000000  0.000000  0.000000  0.000000  0.000000  0.000000  0.000000  0.000000  0.000000  0.000000
                                 0.000000  0.000000  0.000000  0.000000  0.000000  0.000000  0.000000  0.000000  0.000000  0.000000
                                 0.000000  0.000000  0.000000  0.000000  0.000000  0.000000  0.000000  0.000000  0.000000  0.000000

   7.1  2.00000    -0.511270     0.000000 -0.000000  0.000000  0.000000  0.000000  0.000000  0.000000  0.000000  0.000000  0.000000
                                 0.000000  0.000000  0.000000  0.000000  0.000000  0.000000  0.000000 -0.000000 -0.000000 -0.000000
                                -0.000000  0.000000  0.000000  0.000000 -0.000000 -0.000000 -0.000000 -0.000000 -0.000000 -0.000000
                                 0.000000 -0.000000  0.000000 -0.000000 -0.000008  0.000000 -0.000014  0.000000 -0.000092  0.000000
                                -0.000362  0.000000 -0.001793  0.000000 -0.007334  0.000000 -0.027083  0.000000 -0.070529  0.000000
                                -0.005618 -0.000000 -0.116072  0.000000 -0.103829  0.000000  0.039009  0.000000  0.062949  0.000000
                                 0.138279  0.000000  0.163130  0.000000  0.138099  0.000000  0.202489  0.000000  0.167158  0.000000
                                 0.216013  0.000000  0.114547  0.000000  0.020645  0.000000  0.000830  0.000000  0.000000  0.000000
                                 0.000000  0.000000  0.000000  0.000000  0.000000  0.000000  0.000000  0.000000  0.000000  0.000000

   8.1  2.00000    -0.511270    -0.000000  0.000000 -0.000000 -0.000000 -0.000000 -0.000000 -0.000000 -0.000000 -0.000000 -0.000000
                                -0.000000 -0.000000 -0.000000 -0.000000 -0.000000 -0.000000 -0.000000  0.000000  0.000000  0.000000
                                 0.000000 -0.000000 -0.000000 -0.000000  0.000000  0.000000  0.000000  0.000000  0.000000  0.000000
                                -0.000000  0.000000 -0.000000  0.000000 -0.000000 -0.000008 -0.000000 -0.000014 -0.000000 -0.000092
                                -0.000000 -0.000362 -0.000000 -0.001793 -0.000000 -0.007334 -0.000000 -0.027083 -0.000000 -0.070529
                                -0.000000 -0.005618 -0.000000 -0.116072 -0.000000 -0.103829 -0.000000  0.039009 -0.000000  0.062949
                                 0.000000  0.138279 -0.000000  0.163130  0.000000  0.138099 -0.000000  0.202489  0.000000  0.167158
                                -0.000000  0.216013  0.000000  0.114547 -0.000000  0.020645  0.000000  0.000830  0.000000  0.000000
                                 0.000000  0.000000  0.000000  0.000000  0.000000  0.000000  0.000000  0.000000  0.000000  0.000000

   9.1  1.00000    -0.105690     0.000004 -0.000003  0.000007  0.000001  0.000012  0.000013  0.000031  0.000050  0.000099  0.000188
                                 0.000380  0.000796  0.001696  0.003599  0.006801  0.009488  0.000401 -0.035307 -0.059938  0.000241
                                -0.016803  0.105150  0.064262  0.140983 -0.053532 -0.144247 -0.222666 -0.005053 -0.177560  0.025533
                                 0.210830  0.580195  0.342855  0.012780 -0.000000  0.000000 -0.000000  0.000000 -0.000000  0.000000
                                -0.000000  0.000000 -0.000000  0.000000 -0.000000  0.000000 -0.000000  0.000000 -0.000000  0.000000
                                -0.000000  0.000000 -0.000000  0.000000 -0.000000  0.000000  0.000000  0.000000  0.000000  0.000000
                                 0.000000 -0.000000  0.000000  0.000000  0.000000 -0.000000  0.000000  0.000000  0.000000  0.000000
                                 0.000000  0.000000  0.000000  0.000000  0.000000  0.000000  0.000000  0.000000  0.000000  0.000000
                                 0.000000  0.000000  0.000000  0.000000  0.000000  0.000000  0.000000  0.000000  0.000000  0.000000

                                   1 2px     1 2px     1 2px     1 2px     1 2px     1 2px     1 2px     1 2px     1 2px     1 2px  
                                   1 2px     1 2px     1 2px     1 2px     1 2px     1 2px     1 2px     1 2px     1 2px     1 2px  
                                   1 2px     1 2px     1 2px     1 2px     1 2px     1 2px     1 2px     1 4f1+    1 4f3+    1 4f1+ 
                                   1 4f3+    1 4f1+    1 4f3+    1 4f1+    1 4f3+    1 4f1+    1 4f3+    1 6h1+    1 6h3+    1 6h5+ 
                                   1 6h1+    1 6h3+    1 6h5+    1 6h1+    1 6h3+    1 6h5+ 

   1.2  2.00000  -127.096271     0.000019 -0.000002  0.000046  0.000047  0.000155  0.000327  0.000912  0.002563  0.008027  0.025736
                                 0.080611  0.214743  0.402402  0.367443  0.066982  0.051702 -0.081427  0.074710 -0.037483  0.020145
                                -0.013362  0.009597 -0.002918  0.000422 -0.000248  0.000122 -0.000039  0.000000  0.000000  0.000000
                                 0.000000  0.000000  0.000000  0.000000  0.000000  0.000000  0.000000  0.000000  0.000000  0.000000
                                 0.000000  0.000000  0.000000  0.000000  0.000000  0.000000

   2.2  2.00000   -22.371020    -0.000009  0.000001 -0.000021 -0.000021 -0.000072 -0.000145 -0.000424 -0.001148 -0.003747 -0.011822
                                -0.038818 -0.106066 -0.217254 -0.154423  0.281420  0.132088  0.569069 -0.022226  0.224972 -0.058188
                                 0.051176 -0.036662  0.011701 -0.001735  0.001044 -0.000519  0.000168  0.000000  0.000000  0.000000
                                 0.000000  0.000000  0.000000  0.000000  0.000000  0.000000  0.000000  0.000000  0.000000  0.000000
                                 0.000000  0.000000  0.000000  0.000000  0.000000  0.000000

   3.2  2.00000    -2.743413     0.000003 -0.000000  0.000008  0.000008  0.000028  0.000057  0.000168  0.000452  0.001487  0.004673
                                 0.015486  0.042501  0.088686  0.058311 -0.156558 -0.072992 -0.367751  0.051163 -0.010271  0.477384
                                 0.415670  0.112153  0.141212  0.012672 -0.003478  0.001709 -0.000535  0.000000  0.000000  0.000000
                                 0.000000  0.000000  0.000000  0.000000  0.000000  0.000000  0.000000  0.000000  0.000000  0.000000
                                 0.000000  0.000000  0.000000  0.000000  0.000000  0.000000

                                   1 2py     1 2py     1 2py     1 2py     1 2py     1 2py     1 2py     1 2py     1 2py     1 2py  
                                   1 2py     1 2py     1 2py     1 2py     1 2py     1 2py     1 2py     1 2py     1 2py     1 2py  
                                   1 2py     1 2py     1 2py     1 2py     1 2py     1 2py     1 2py     1 4f1-    1 4f3-    1 4f1- 
                                   1 4f3-    1 4f1-    1 4f3-    1 4f1-    1 4f3-    1 4f1-    1 4f3-    1 6h1-    1 6h3-    1 6h5- 
                                   1 6h1-    1 6h3-    1 6h5-    1 6h1-    1 6h3-    1 6h5- 

   1.3  2.00000  -127.096271     0.000019 -0.000002  0.000046  0.000047  0.000155  0.000327  0.000912  0.002563  0.008027  0.025736
                                 0.080611  0.214743  0.402402  0.367443  0.066982  0.051702 -0.081427  0.074710 -0.037483  0.020145
                                -0.013362  0.009597 -0.002918  0.000422 -0.000248  0.000122 -0.000039  0.000000  0.000000  0.000000
                                 0.000000  0.000000  0.000000  0.000000  0.000000  0.000000  0.000000  0.000000  0.000000  0.000000
                                 0.000000  0.000000  0.000000  0.000000  0.000000  0.000000

   2.3  2.00000   -22.371020    -0.000009  0.000001 -0.000021 -0.000021 -0.000072 -0.000145 -0.000424 -0.001148 -0.003747 -0.011822
                                -0.038818 -0.106066 -0.217254 -0.154423  0.281420  0.132088  0.569069 -0.022226  0.224972 -0.058188
                                 0.051176 -0.036662  0.011701 -0.001735  0.001044 -0.000519  0.000168  0.000000  0.000000  0.000000
                                 0.000000  0.000000  0.000000  0.000000  0.000000  0.000000  0.000000  0.000000  0.000000  0.000000
                                 0.000000  0.000000  0.000000  0.000000  0.000000  0.000000

   3.3  2.00000    -2.743413     0.000003 -0.000000  0.000008  0.000008  0.000028  0.000057  0.000168  0.000452  0.001487  0.004673
                                 0.015486  0.042501  0.088686  0.058311 -0.156558 -0.072992 -0.367751  0.051163 -0.010271  0.477384
                                 0.415670  0.112153  0.141212  0.012672 -0.003478  0.001709 -0.000535  0.000000  0.000000  0.000000
                                 0.000000  0.000000  0.000000  0.000000  0.000000  0.000000  0.000000  0.000000  0.000000  0.000000
                                 0.000000  0.000000  0.000000  0.000000  0.000000  0.000000

                                   1 3d2-    1 3d2-    1 3d2-    1 3d2-    1 3d2-    1 3d2-    1 3d2-    1 3d2-    1 3d2-    1 3d2- 
                                   1 3d2-    1 3d2-    1 3d2-    1 3d2-    1 3d2-    1 3d2-    1 3d2-    1 3d2-    1 3d2-    1 3d2- 
                                   1 3d2-    1 3d2-    1 5g2-    1 5g4-    1 5g2-    1 5g4-    1 5g2-    1 5g4-    1 5g2-    1 5g4- 


   1.4  2.00000   -14.479339     0.000025  0.000045  0.000286  0.001143  0.005574  0.022844  0.082993  0.215387  0.014289  0.366786
                                 0.362684  0.018932  0.252046 -0.240209  0.241665 -0.177080  0.101532 -0.030083  0.006509 -0.001287
                                 0.000405 -0.000110  0.000000  0.000000  0.000000  0.000000  0.000000  0.000000  0.000000  0.000000

   2.4  2.00000    -0.511270    -0.000008 -0.000014 -0.000092 -0.000362 -0.001793 -0.007334 -0.027083 -0.070529 -0.005618 -0.116072
                                -0.103829  0.039009  0.062949  0.138279  0.163130  0.138098  0.202489  0.167158  0.216013  0.114547
                                 0.020645  0.000830  0.000000  0.000000  0.000000  0.000000  0.000000  0.000000  0.000000  0.000000

                                   1 2pz     1 2pz     1 2pz     1 2pz     1 2pz     1 2pz     1 2pz     1 2pz     1 2pz     1 2pz  
                                   1 2pz     1 2pz     1 2pz     1 2pz     1 2pz     1 2pz     1 2pz     1 2pz     1 2pz     1 2pz  
                                   1 2pz     1 2pz     1 2pz     1 2pz     1 2pz     1 2pz     1 2pz     1 4f0     1 4f2+    1 4f0  
                                   1 4f2+    1 4f0     1 4f2+    1 4f0     1 4f2+    1 4f0     1 4f2+    1 6h2+    1 6h4+    1 6h0  
                                   1 6h2+    1 6h4+    1 6h0     1 6h2+    1 6h4+    1 6h0  

   1.5  2.00000  -127.096271     0.000019 -0.000002  0.000046  0.000047  0.000155  0.000327  0.000912  0.002563  0.008027  0.025736
                                 0.080611  0.214743  0.402402  0.367443  0.066982  0.051702 -0.081427  0.074710 -0.037483  0.020145
                                -0.013362  0.009597 -0.002918  0.000422 -0.000248  0.000122 -0.000039  0.000000  0.000000  0.000000
                                 0.000000  0.000000  0.000000  0.000000  0.000000  0.000000  0.000000  0.000000  0.000000  0.000000
                                 0.000000  0.000000  0.000000  0.000000  0.000000  0.000000

   2.5  2.00000   -22.371020    -0.000009  0.000001 -0.000021 -0.000021 -0.000072 -0.000145 -0.000424 -0.001148 -0.003747 -0.011822
                                -0.038818 -0.106066 -0.217254 -0.154423  0.281420  0.132088  0.569069 -0.022226  0.224972 -0.058188
                                 0.051176 -0.036662  0.011701 -0.001735  0.001044 -0.000519  0.000168  0.000000  0.000000  0.000000
                                 0.000000  0.000000  0.000000  0.000000  0.000000  0.000000  0.000000  0.000000  0.000000  0.000000
                                 0.000000  0.000000  0.000000  0.000000  0.000000  0.000000

   3.5  2.00000    -2.743413     0.000003 -0.000000  0.000008  0.000008  0.000028  0.000057  0.000168  0.000452  0.001487  0.004673
                                 0.015486  0.042501  0.088686  0.058311 -0.156558 -0.072992 -0.367751  0.051163 -0.010271  0.477384
                                 0.415670  0.112153  0.141212  0.012672 -0.003478  0.001709 -0.000535  0.000000  0.000000  0.000000
                                 0.000000  0.000000  0.000000  0.000000  0.000000  0.000000  0.000000  0.000000  0.000000  0.000000
                                 0.000000  0.000000  0.000000  0.000000  0.000000  0.000000

                                   1 3d1+    1 3d1+    1 3d1+    1 3d1+    1 3d1+    1 3d1+    1 3d1+    1 3d1+    1 3d1+    1 3d1+ 
                                   1 3d1+    1 3d1+    1 3d1+    1 3d1+    1 3d1+    1 3d1+    1 3d1+    1 3d1+    1 3d1+    1 3d1+ 
                                   1 3d1+    1 3d1+    1 5g1+    1 5g3+    1 5g1+    1 5g3+    1 5g1+    1 5g3+    1 5g1+    1 5g3+ 


   1.6  2.00000   -14.479339     0.000025  0.000045  0.000286  0.001143  0.005574  0.022844  0.082993  0.215387  0.014289  0.366786
                                 0.362684  0.018932  0.252045 -0.240208  0.241665 -0.177079  0.101532 -0.030083  0.006509 -0.001287
                                 0.000405 -0.000110  0.000000  0.000000  0.000000  0.000000  0.000000  0.000000  0.000000  0.000000

   2.6  2.00000    -0.511270    -0.000008 -0.000014 -0.000092 -0.000362 -0.001793 -0.007334 -0.027083 -0.070529 -0.005618 -0.116072
                                -0.103829  0.039009  0.062949  0.138279  0.163130  0.138099  0.202489  0.167158  0.216013  0.114547
                                 0.020645  0.000830  0.000000  0.000000  0.000000  0.000000  0.000000  0.000000  0.000000  0.000000

                                   1 3d1-    1 3d1-    1 3d1-    1 3d1-    1 3d1-    1 3d1-    1 3d1-    1 3d1-    1 3d1-    1 3d1- 
                                   1 3d1-    1 3d1-    1 3d1-    1 3d1-    1 3d1-    1 3d1-    1 3d1-    1 3d1-    1 3d1-    1 3d1- 
                                   1 3d1-    1 3d1-    1 5g1-    1 5g3-    1 5g1-    1 5g3-    1 5g1-    1 5g3-    1 5g1-    1 5g3- 


   1.7  2.00000   -14.479339     0.000025  0.000045  0.000286  0.001143  0.005574  0.022844  0.082993  0.215387  0.014289  0.366786
                                 0.362684  0.018932  0.252045 -0.240208  0.241665 -0.177079  0.101532 -0.030083  0.006509 -0.001287
                                 0.000405 -0.000110  0.000000  0.000000  0.000000  0.000000  0.000000  0.000000  0.000000  0.000000

   2.7  2.00000    -0.511270    -0.000008 -0.000014 -0.000092 -0.000362 -0.001793 -0.007334 -0.027083 -0.070529 -0.005618 -0.116072
                                -0.103829  0.039009  0.062949  0.138279  0.163130  0.138099  0.202489  0.167158  0.216013  0.114547
                                 0.020645  0.000830  0.000000  0.000000  0.000000  0.000000  0.000000  0.000000  0.000000  0.000000
 

 EXTRA SYMMETRY OF MOS IN SYMMETRY 1:   1 1 1 2 3 1 2 3 1 1   3 2 1 3 2 1 3 2 1 3   2 5 4 6 1 3 2 5 6 4   1 2 3 1 2 3 5 4 6 2
                                        3 1 2 3 4 5 6 1 2 3   1 2 3 1 2 3 1 2 3 1   2 3 1 2 3 2 3 1 2 3   1 3 2 1 3 2 1 3 2 1
                                        1 1 1 1 1 1 1 1 1 1
 EXTRA SYMMETRY OF MOS IN SYMMETRY 2:   1 1 1 1 1 1 1 2 3 1   3 2 1 2 3 5 4 6 1 2   3 5 6 4 1 5 6 4 2 3   1 1 1 1 1 1 1 1 1 1
                                        1 1 1 1 1 1
 EXTRA SYMMETRY OF MOS IN SYMMETRY 3:   1 1 1 1 1 1 1 2 3 1   3 2 1 2 3 5 4 6 1 2   3 5 6 4 1 5 6 4 2 3   1 1 1 1 1 1 1 1 1 1
                                        1 1 1 1 1 1
 EXTRA SYMMETRY OF MOS IN SYMMETRY 4:   1 1 1 1 1 1 3 2 1 3   2 1 1 3 2 1 1 3 2 1   1 1 1 1 1 1 1 1 1 1
 EXTRA SYMMETRY OF MOS IN SYMMETRY 5:   1 1 1 1 1 1 1 2 3 1   2 3 1 2 3 4 6 5 1 3   2 6 4 5 1 4 5 6 2 3   1 1 1 1 1 1 1 1 1 1
                                        1 1 1 1 1 1
 EXTRA SYMMETRY OF MOS IN SYMMETRY 6:   1 1 1 1 1 1 3 2 1 3   2 1 1 3 2 1 1 3 2 1   1 1 1 1 1 1 1 1 1 1
 EXTRA SYMMETRY OF MOS IN SYMMETRY 7:   1 1 1 1 1 1 3 2 1 3   2 1 1 3 2 1 1 3 2 1   1 1 1 1 1 1 1 1 1 1
 EXTRA SYMMETRY OF MOS IN SYMMETRY 8:   1 1 1 3 2 1 3 2 3 2   1

 Natural orbital dump at molpro section  5202.2    (Orbital set 2)


 CI vector
 =========

 /             1.0000000


 **********************************************************************************************************************************
 DATASETS  * FILE   NREC   LENGTH (MB)   RECORD NAMES
              1      23       72.88       500      610      700      900      950      970     1000      129      960     1700   
                                          VAR    BASINP    GEOM    SYMINP    ZMAT    AOBASIS   BASIS     P2S    ABASIS    OPER   
                                         1101     1401     1411     1412     1650     1100     1400     1410     1200     1210   
                                          SR      EKINR    POTR     PVPR    MOLCAS      S      EKIN      POT      H0       H01  
                                         1080     1600     1380   
                                         AOSYM     SMH     JKOP   

              2       6        9.00       200      700     1000      520     4202     5202   
                                        OPTIONS   GEOM     BASIS   MCVARS     RHF     MCSCF   

 PROGRAMS   *        TOTAL     MULTI       POP       RHF       INT
 CPU TIMES  *       104.33      2.79      0.00      1.61     99.33
 REAL TIME  *       114.12 SEC
 DISK USED  *         2.59 GB      
 SF USED    *       203.52 MB      
 GA USED    *         0.00 MB       (max)       0.00 MB       (current)
 **********************************************************************************************************************************


 PROGRAM * RHF-SCF (OPEN SHELL)       Authors: W. Meyer, H.-J. Werner


 NUMBER OF ELECTRONS:      24+   23-    SPACE SYMMETRY=1    SPIN SYMMETRY: Doublet 
 CONVERGENCE THRESHOLDS:    1.00E-05 (Density)    1.00E-07 (Energy)
 MAX. NUMBER OF ITERATIONS:        0
 INTERPOLATION TYPE:            DIIS
 INTERPOLATION STEPS:              2 (START)      1 (STEP)
 LEVEL SHIFTS:                 -0.60 (CLOSED) -0.30 (OPEN) 


 Singly occupied orbitals:      9.1
 Molecular orbitals read from record     5202.2  Type=MCSCF/NATURAL (state 1.1)

 Molecular orbital dump at record        2103.2

 ITERATION    DDIFF          GRAD             ENERGY        2-EL.EN.            DIPOLE MOMENTS         DIIS   ORB.
    1      0.000D+00      0.000D+00     -5312.91376348   4035.019916    0.00000    0.00000    0.00000    0    start

 Final alpha occupancy:   9   3   3   2   3   2   2   0
 Final beta  occupancy:   8   3   3   2   3   2   2   0

 !RHF STATE 1.1 Energy              -5312.913763483536
 Nuclear energy                         0.00000000
 One-electron energy                -7330.42372153
 Two-electron energy                 2017.50995805
 Virial quotient                       -0.88082580
 !RHF STATE 1.1 Dipole moment           0.00000000     0.00000000     0.00000000
 Dipole moment /Debye                   0.00000000     0.00000000     0.00000000

 Orbital energies:

         1.1          2.1          3.1          4.1          5.1          6.1          7.1          8.1          9.1         10.1
   -942.433305  -141.919186   -27.373210   -14.479339   -14.479339    -4.272577    -0.511270    -0.511270    -0.105690     0.031776

        11.1
      0.103873

         1.2          2.2          3.2          4.2          5.2
   -127.096271   -22.371020    -2.743413     0.022334     0.070921

         1.3          2.3          3.3          4.3          5.3
   -127.096271   -22.371020    -2.743413     0.022334     0.070921

         1.4          2.4          3.4          4.4
    -14.479339    -0.511270     0.103873     0.313018

         1.5          2.5          3.5          4.5          5.5
   -127.096271   -22.371020    -2.743413     0.022334     0.070921

         1.6          2.6          3.6          4.6
    -14.479339    -0.511270     0.103873     0.313018

         1.7          2.7          3.7          4.7
    -14.479339    -0.511270     0.103873     0.313018

         1.8          2.8
      0.679885     1.728363

 HOMO      9.1    -0.105690 =      -2.8760eV
 LUMO      4.2     0.022334 =       0.6077eV
 LUMO-HOMO         0.128024 =       3.4837eV


 **********************************************************************************************************************************
 DATASETS  * FILE   NREC   LENGTH (MB)   RECORD NAMES
              1      23       72.88       500      610      700      900      950      970     1000      129      960     1700   
                                          VAR    BASINP    GEOM    SYMINP    ZMAT    AOBASIS   BASIS     P2S    ABASIS    OPER   
                                         1101     1401     1411     1412     1650     1100     1400     1410     1200     1210   
                                          SR      EKINR    POTR     PVPR    MOLCAS      S      EKIN      POT      H0       H01  
                                         1080     1600     1380   
                                         AOSYM     SMH     JKOP   

              2       7       12.06       200      700     1000      520     4202     5202     2103   
                                        OPTIONS   GEOM     BASIS   MCVARS     RHF     MCSCF     RHF  

 PROGRAMS   *        TOTAL       RHF     MULTI       POP       RHF       INT
 CPU TIMES  *       104.53      0.20      2.79      0.00      1.61     99.33
 REAL TIME  *       114.48 SEC
 DISK USED  *         2.59 GB      
 SF USED    *       203.52 MB      
 GA USED    *         0.00 MB       (max)       0.00 MB       (current)
 **********************************************************************************************************************************
 SETTING SCF(1)         =     -5312.91376348  AU                              
 SETTING _CC_NORM_MAX   =         2.00000000                                  


 PROGRAM * CCSD (Restricted open-shell coupled cluster)     Authors: C. Hampel, H.-J. Werner, 1991, M. Deegan, P.J. Knowles, 1992


 Input parameters for THRESH:

 ENERGY =    1.00D-05
 COEFF  =    0.001000

 Convergence thresholds:  THRVAR = 1.00D-06  THRDEN = 1.00D-05

 CCSD(T)     terms to be evaluated (factor= 1.000)


 Number of closed-shell orbitals:  23 (   8   3   3   2   3   2   2   0 )
 Number of active  orbitals:        1 (   1   0   0   0   0   0   0   0 )
 Number of external orbitals:     305 (  81  43  43  28  43  28  28  11 )

 Memory could be reduced to 150.91 Mwords without degradation in triples

 Number of N-1 electron functions:              47
 Number of N-2 electron functions:            1081
 Number of singly external CSFs:              2504
 Number of doubly external CSFs:           9889798
 Total number of CSFs:                     9892302

 Molecular orbitals read from record     2103.2  Type=RHF/CANONICAL (state 1.1)

 Integral transformation finished. Total CPU:   5.08 sec, npass=  1  Memory used:  31.39 MW

 Starting RMP2 calculation

 Wavefunction is spin-projected

 ITER.      SQ.NORM     CORR.ENERGY   TOTAL ENERGY   ENERGY CHANGE        DEN1      VAR(S)    VAR(P)  DIIS     TIME
   1      1.14353946    -2.00464748 -5314.91841096    -2.00464748    -0.00231666  0.52D-05  0.71D-03  1  1     7.28
   2      1.14525279    -2.00710844 -5314.92087192    -0.00246096    -0.00001029  0.13D-06  0.57D-05  2  2     9.52
   3      1.14538780    -2.00720978 -5314.92097327    -0.00010134    -0.00000007  0.21D-08  0.46D-07  3  3    12.33
   4      1.14539411    -2.00721137 -5314.92097485    -0.00000159    -0.00000000  0.27D-10  0.37D-09  4  4    15.38

 Norm of t1 vector:      0.01377232      S-energy:    -0.00028163      T1 diagnostic:  0.00001067
 Norm of t2 vector:      0.38105700      P-energy:    -2.00692974
                                         Alpha-Beta:  -1.33395315
                                         Alpha-Alpha: -0.34548618
                                         Beta-Beta:   -0.32749041

 Spin contamination <S**2-Sz**2-Sz>     0.00000000
  Reference energy                  -5312.913763483542
  RHF-RMP2 correlation energy          -2.007211370811
 !RHF-RMP2 energy                   -5314.920974854354
 (NB above energy spin projected)

 Starting RCCSD calculation

 ITER.      SQ.NORM     CORR.ENERGY   TOTAL ENERGY   ENERGY CHANGE        DEN1      VAR(S)    VAR(P)  DIIS     TIME
   1      1.11528265    -1.87917878 -5314.79294226    -1.87917878    -0.02609615  0.22D-02  0.25D-02  0  0    34.13
   2      1.12477496    -1.90367557 -5314.81743905    -0.02449678    -0.00143667  0.35D-03  0.26D-03  1  1    52.19
   3      1.12579354    -1.90276843 -5314.81653192     0.00090713    -0.00068178  0.29D-03  0.96D-04  2  2    70.71
   4      1.12496546    -1.90156899 -5314.81533248     0.00119944    -0.00053810  0.39D-03  0.64D-04  3  3    89.85
   5      1.12604502    -1.90163470 -5314.81539818    -0.00006571    -0.00035583  0.30D-03  0.36D-04  4  4   108.87
   6      1.12661571    -1.90185126 -5314.81561475    -0.00021657    -0.00029534  0.26D-03  0.28D-04  5  5   128.89
   7      1.12725858    -1.90215850 -5314.81592198    -0.00030723    -0.00022612  0.22D-03  0.20D-04  6  6   149.59
   8      1.12871112    -1.90267044 -5314.81643393    -0.00051195    -0.00013326  0.14D-03  0.11D-04  6  1   168.53
   9      1.12967105    -1.90289847 -5314.81666195    -0.00022802    -0.00008914  0.94D-04  0.60D-05  6  3   188.43
  10      1.12943604    -1.90285140 -5314.81661488     0.00004707    -0.00009847  0.11D-03  0.60D-05  6  4   208.20
  11      1.13016882    -1.90301330 -5314.81677678    -0.00016190    -0.00007017  0.81D-04  0.36D-05  6  2   226.89
  12      1.13121863    -1.90322100 -5314.81698449    -0.00020770    -0.00003948  0.45D-04  0.19D-05  6  1   245.98
  13      1.13172300    -1.90334446 -5314.81710795    -0.00012346    -0.00003014  0.36D-04  0.13D-05  6  2   265.59
  14      1.13167199    -1.90333812 -5314.81710160     0.00000634    -0.00003034  0.36D-04  0.13D-05  6  4   284.88
  15      1.13162582    -1.90333481 -5314.81709830     0.00000331    -0.00003151  0.38D-04  0.14D-05  6  3   304.36
  16      1.13175671    -1.90334393 -5314.81710741    -0.00000912    -0.00002821  0.34D-04  0.12D-05  6  4   323.25
  17      1.13163654    -1.90331267 -5314.81707616     0.00003126    -0.00002934  0.35D-04  0.13D-05  6  6   342.57
  18      1.13152504    -1.90328940 -5314.81705289     0.00002327    -0.00003143  0.38D-04  0.15D-05  6  5   361.61
  19      1.13182298    -1.90332672 -5314.81709021    -0.00003732    -0.00002575  0.29D-04  0.12D-05  6  2   380.51
  20      1.13129411    -1.90323515 -5314.81699863     0.00009157    -0.00003643  0.42D-04  0.19D-05  6  4   400.33
  21      1.13189423    -1.90333961 -5314.81710309    -0.00010446    -0.00002373  0.28D-04  0.11D-05  6  3   420.14
  22      1.13185869    -1.90333340 -5314.81709688     0.00000621    -0.00002438  0.29D-04  0.11D-05  6  6   439.07
  23      1.13198745    -1.90336062 -5314.81712411    -0.00002723    -0.00002194  0.27D-04  0.94D-06  6  1   458.21
  24      1.13272868    -1.90348058 -5314.81724407    -0.00011996    -0.00001130  0.13D-04  0.44D-06  6  4   477.30
  25      1.13240466    -1.90343077 -5314.81719425     0.00004982    -0.00001540  0.19D-04  0.63D-06  6  6   497.03
  26      1.13204017    -1.90336838 -5314.81713186     0.00006239    -0.00002072  0.26D-04  0.88D-06  6  1   516.38
  27      1.13284170    -1.90349283 -5314.81725631    -0.00012445    -0.00000955  0.11D-04  0.38D-06  6  3   536.86
  28      1.13254544    -1.90344638 -5314.81720987     0.00004644    -0.00001305  0.16D-04  0.53D-06  6  4   556.61
  29      1.13219599    -1.90338879 -5314.81715228     0.00005759    -0.00001788  0.22D-04  0.76D-06  6  6   576.83
  30      1.13241063    -1.90342401 -5314.81718749    -0.00003522    -0.00001467  0.18D-04  0.61D-06  6  1   595.70
  31      1.13262487    -1.90345909 -5314.81722257    -0.00003508    -0.00001183  0.15D-04  0.48D-06  6  6   615.71
  32      1.13264522    -1.90346207 -5314.81722556    -0.00000298    -0.00001151  0.14D-04  0.47D-06  6  3   635.27
  33      1.13288731    -1.90349980 -5314.81726328    -0.00003772    -0.00000877  0.11D-04  0.35D-06  6  4   655.35
  34      1.13258924    -1.90345253 -5314.81721601     0.00004727    -0.00001221  0.15D-04  0.50D-06  6  3   674.56
  35      1.13271768    -1.90347403 -5314.81723751    -0.00002151    -0.00001064  0.13D-04  0.43D-06  6  6   694.70
  36      1.13264878    -1.90346367 -5314.81722716     0.00001036    -0.00001148  0.14D-04  0.47D-06  6  4   714.89
  37      1.13248854    -1.90343872 -5314.81720221     0.00002495    -0.00001350  0.17D-04  0.55D-06  6  5   734.31
  38      1.13252718    -1.90344480 -5314.81720828    -0.00000608    -0.00001298  0.16D-04  0.53D-06  6  2   753.03
  39      1.13283141    -1.90349241 -5314.81725590    -0.00004762    -0.00000928  0.12D-04  0.36D-06  6  1   772.40
  40      1.13304127    -1.90352490 -5314.81728838    -0.00003248    -0.00000715  0.89D-05  0.27D-06  6  3   792.06
  41      1.13281594    -1.90349010 -5314.81725359     0.00003479    -0.00000944  0.12D-04  0.37D-06  6  5   812.47
  42      1.13284726    -1.90349502 -5314.81725851    -0.00000492    -0.00000910  0.12D-04  0.36D-06  6  4   833.30
  43      1.13268759    -1.90346996 -5314.81723344     0.00002507    -0.00001090  0.14D-04  0.43D-06  6  1   852.67
  44      1.13303928    -1.90352470 -5314.81728818    -0.00005474    -0.00000715  0.90D-05  0.27D-06  6  6   871.91
  45      1.13282051    -1.90349108 -5314.81725457     0.00003361    -0.00000932  0.12D-04  0.36D-06  6  3   891.79
  46      1.13292132    -1.90350680 -5314.81727028    -0.00001571    -0.00000821  0.11D-04  0.32D-06  6  1   911.69
  47      1.13314476    -1.90354116 -5314.81730464    -0.00003436    -0.00000605  0.77D-05  0.23D-06  6  4   930.89
  48      1.13301395    -1.90352124 -5314.81728472     0.00001992    -0.00000726  0.93D-05  0.28D-06  6  3   950.03
  49      1.13330147    -1.90356507 -5314.81732856    -0.00004384    -0.00000476  0.60D-05  0.18D-06  6  5   969.93
  50      1.13326255    -1.90355921 -5314.81732269     0.00000586    -0.00000506  0.64D-05  0.19D-06  6  1   989.33
  51      1.13333002    -1.90356945 -5314.81733293    -0.00001024    -0.00000453  0.57D-05  0.17D-06  6  6  1009.23
  52      1.13336447    -1.90357461 -5314.81733810    -0.00000516    -0.00000427  0.54D-05  0.16D-06  6  4  1028.89
  53      1.13331347    -1.90356724 -5314.81733072     0.00000738    -0.00000463  0.59D-05  0.17D-06  6  2  1047.26
  54      1.13353405    -1.90360026 -5314.81736374    -0.00003302    -0.00000313  0.39D-05  0.11D-06  6  3  1066.26
  55      1.13357055    -1.90360568 -5314.81736916    -0.00000542    -0.00000291  0.36D-05  0.10D-06  6  5  1085.93
  56      1.13368557    -1.90362266 -5314.81738614    -0.00001698    -0.00000232  0.28D-05  0.80D-07  6  3  1105.21
  57      1.13370329    -1.90362529 -5314.81738878    -0.00000264    -0.00000223  0.26D-05  0.76D-07  6  5  1125.07
  58      1.13364608    -1.90361667 -5314.81738015     0.00000862    -0.00000254  0.30D-05  0.88D-07  6  3  1145.26
  59      1.13362989    -1.90361421 -5314.81737769     0.00000246    -0.00000264  0.32D-05  0.92D-07  6  1  1164.68
  60      1.13362461    -1.90361356 -5314.81737704     0.00000065    -0.00000263  0.32D-05  0.92D-07  6  2  1184.61
  61      1.13358138    -1.90360719 -5314.81737067     0.00000637    -0.00000287  0.35D-05  0.10D-06  6  4  1203.45
  62      1.13390127    -1.90365433 -5314.81741781    -0.00004714    -0.00000147  0.15D-05  0.45D-07  6  6  1223.25
  63      1.13391218    -1.90365585 -5314.81741933    -0.00000153    -0.00000143  0.14D-05  0.44D-07  6  4  1243.00
  64      1.13378843    -1.90363797 -5314.81740145     0.00001788    -0.00000183  0.21D-05  0.61D-07  6  5  1262.10
  65      1.13373534    -1.90363016 -5314.81739364     0.00000781    -0.00000207  0.24D-05  0.70D-07  6  2  1280.90
  66      1.13367563    -1.90362138 -5314.81738486     0.00000879    -0.00000233  0.28D-05  0.81D-07  6  3  1301.30
  67      1.13371186    -1.90362666 -5314.81739015    -0.00000529    -0.00000222  0.26D-05  0.75D-07  6  6  1321.11
  68      1.13372446    -1.90362853 -5314.81739201    -0.00000187    -0.00000216  0.25D-05  0.72D-07  6  3  1340.86
  69      1.13377477    -1.90363608 -5314.81739957    -0.00000755    -0.00000191  0.22D-05  0.64D-07  6  2  1360.16
