
 Primary working directories    : /global/cscratch1/sd/gwang18
 Secondary working directories  : /global/cscratch1/sd/gwang18
 Wavefunction directory         : /global/homes/g/gwang18/wfu/
 Main file repository           : /global/cscratch1/sd/gwang18/

 SHA1      : 19cd028119e0e09f93f0674bd8af7968d9b3eff6
 NAME      : 2015.1.36
 ARCHNAME  : linux/x86_64
 FC        : /opt/cray/pe/craype/2.5.14/bin/ftn
 BLASLIB   : -L/opt/intel/compilers_and_libraries_2018.1.163/linux/mkl/lib/intel64 -Wl,-_start-group -lmkl_intel_ilp64 -lmkl_intel_thread -lmkl_core -Wl,-_end-group -liomp5
 id        : lbl

 Nodes     nprocs
 nid00849    15
 Number of processes for MPI-2 version of Molpro:   nprocs(total)=   16   nprocs(compute)=   15   nprocs(helper)=    1

 Using customized tuning parameters: mindgm=7; mindgv=16; mindgc=1; mindgr=1; noblas=0; minvec=7
 default implementation of scratch files=sf  

 ***,I
 memory,512,m
 
 gthresh,twoint=1.e-12
 gprint,basis,orbitals
 
 angstrom
 geometry={
 1                                                                               ! Number of atoms
 I 0.0 0.0 0.0
 }
 
 basis={
 Including file /global/u2/g/gwang18/projects/cc-so-ecp/i/basis/coefficients/ecp.molpro
 Including file /global/u2/g/gwang18/projects/cc-so-ecp/i/basis/coefficients/basis.molpro
 }
 
 {rhf
  start,atden
  wf,7,5,1
  occ,1,1,1,0,1,0,0,0
  closed,1,1,1,0,0,0,0,0
  orbital,4202.2
 }
 pop
 {multi
  start,4202.2
  occ,1,1,1,0,1,0,0,0
  closed,1,0,0,0,0,0,0,0
  wf,7,2,1;state,1
  wf,7,3,1;state,1
  wf,7,5,1;state,1
  natorb,ci,print
  orbital,5202.2
 }
 {rhf,nitord=1,maxit=0
  start,5202.2
  wf,7,5,1
  occ,1,1,1,0,1,0,0,0
  closed,1,1,1,0,0,0,0,0
  print,orbitals=2
 }
 

 Variables initialized (889), CPU time= 0.01 sec
 Commands  initialized (702), CPU time= 0.00 sec, 572 directives.
 Default parameters read. Elapsed time= 0.31 sec

 Checking input...
 Passed
1


                                         ***  PROGRAM SYSTEM MOLPRO  ***
                                       Copyright, TTI GmbH Stuttgart, 2015
                                    Version 2015.1 linked Dec 29 2018 15:55:43


 **********************************************************************************************************************************
 LABEL *   I                                                                             
  64 bit mpp version                                                                     DATE: 13-Dec-21          TIME: 07:32:48  
 **********************************************************************************************************************************

 SHA1:             19cd028119e0e09f93f0674bd8af7968d9b3eff6
 **********************************************************************************************************************************

 THRESHOLDS:

 ZERO    =  1.00D-12  ONEINT  =  1.00D-12  TWOINT  =  1.00D-12  PREFAC  =  1.00D-14  LOCALI  =  1.00D-09  EORDER  =  1.00D-04
 ENERGY  =  0.00D+00  ETEST   =  0.00D+00  EDENS   =  0.00D+00  THRDEDEF=  1.00D-06  GRADIENT=  1.00D-02  STEP    =  1.00D-03
 ORBITAL =  1.00D-05  CIVEC   =  1.00D-05  COEFF   =  1.00D-04  PRINTCI =  5.00D-02  PUNCHCI =  9.90D+01  OPTGRAD =  3.00D-04
 OPTENERG=  1.00D-06  OPTSTEP =  3.00D-04  THRGRAD =  1.00D-10  COMPRESS=  1.00D-11  VARMIN  =  1.00D-07  VARMAX  =  1.00D-03
 THRDOUB =  0.00D+00  THRDIV  =  1.00D-05  THRRED  =  1.00D-07  THRPSP  =  1.00D+00  THRDC   =  1.00D-10  THRCS   =  1.00D-10
 THRNRM  =  1.00D-08  THREQ   =  0.00D+00  THRDE   =  1.00D+00  THRREF  =  1.00D-05  SPARFAC =  1.00D+00  THRDLP  =  1.00D-07
 THRDIA  =  1.00D-10  THRDLS  =  1.00D-07  THRGPS  =  0.00D+00  THRKEX  =  0.00D+00  THRDIS  =  2.00D-01  THRVAR  =  1.00D-10
 THRLOC  =  1.00D-06  THRGAP  =  1.00D-06  THRLOCT = -1.00D+00  THRGAPT = -1.00D+00  THRORB  =  1.00D-06  THRMLTP =  0.00D+00
 THRCPQCI=  1.00D-10  KEXTA   =  0.00D+00  THRCOARS=  0.00D+00  SYMTOL  =  1.00D-06  GRADTOL =  1.00D-06  THROVL  =  1.00D-08
 THRORTH =  1.00D-08  GRID    =  1.00D-06  GRIDMAX =  1.00D-03  DTMAX   =  0.00D+00  THROCCDE=  1.00D-01  THROCCDE=  1.00D-01



 ZUNIT=ANG
 

Geometry recognized as XYZ


 Variable memory set to  512000000 words,  buffer space   230000 words

 SETTING BASIS          =    USERDEF


 Recomputing integrals since basis changed


 Using spherical harmonics



 PROGRAM * SEWARD (Integral evaluation for generally contracted gaussian basis sets)     Author: Roland Lindh, 1990

 Geometry written to block  1 of record 700

 Orientation using atomic masses  
 Molecule type: Atom
 Symmetry elements: X,Y,Z
 Rotational constants:       0.0000000      0.0000000      0.0000000 GHz  (calculated with average atomic masses)

 Point group  D2h 



 ATOMIC COORDINATES

 NR  ATOM    CHARGE       X              Y              Z

   1  I       7.00    0.000000000    0.000000000    0.000000000


          I   CORE POTENTIAL

          f POTENTIAL

 POWERS             1              3              2              2
 EXPONENTIALS   12.00134       12.03588       3.022296      0.9779056    
 COEFFICIENTS   7.000000       84.00936      -3.998559      -3.050310    

          s - f POTENTIAL

 POWERS             2              2
 EXPONENTIALS   3.150276       1.008080    
 COEFFICIENTS   114.0238       1.974146    

          p - f POTENTIAL

 POWERS             2              2
 EXPONENTIALS   2.954190      0.7308215    
 COEFFICIENTS   111.4666       1.710240    

          d - f POTENTIAL

 POWERS             2              2
 EXPONENTIALS   2.604979      0.8995931    
 COEFFICIENTS   45.30084       8.704290    


 BASIS DATA

   Nr Sym  Nuc  Type         Exponents   Contraction coefficients

    1.1 Ag    1  1s          61.701593     1.000000
    2.1 Ag    1  1s          29.837151     1.000000
    3.1 Ag    1  1s          14.428405     1.000000
    4.1 Ag    1  1s           6.977170     1.000000
    5.1 Ag    1  1s           3.373963     1.000000
    6.1 Ag    1  1s           1.631553     1.000000
    7.1 Ag    1  1s           0.788973     1.000000
    8.1 Ag    1  1s           0.381525     1.000000
    9.1 Ag    1  1s           0.184495     1.000000
   10.1 Ag    1  1s           0.089216     1.000000
    1.2 B3u   1  2px         33.795456     1.000000
    2.2 B3u   1  2px         16.225632     1.000000
    3.2 B3u   1  2px          7.790134     1.000000
    4.2 B3u   1  2px          3.740143     1.000000
    5.2 B3u   1  2px          1.795691     1.000000
    6.2 B3u   1  2px          0.862134     1.000000
    7.2 B3u   1  2px          0.413922     1.000000
    8.2 B3u   1  2px          0.198729     1.000000
    9.2 B3u   1  2px          0.095412     1.000000
   10.2 B3u   1  2px          0.045809     1.000000
    1.3 B2u   1  2py         33.795456     1.000000
    2.3 B2u   1  2py         16.225632     1.000000
    3.3 B2u   1  2py          7.790134     1.000000
    4.3 B2u   1  2py          3.740143     1.000000
    5.3 B2u   1  2py          1.795691     1.000000
    6.3 B2u   1  2py          0.862134     1.000000
    7.3 B2u   1  2py          0.413922     1.000000
    8.3 B2u   1  2py          0.198729     1.000000
    9.3 B2u   1  2py          0.095412     1.000000
   10.3 B2u   1  2py          0.045809     1.000000
    1.5 B1u   1  2pz         33.795456     1.000000
    2.5 B1u   1  2pz         16.225632     1.000000
    3.5 B1u   1  2pz          7.790134     1.000000
    4.5 B1u   1  2pz          3.740143     1.000000
    5.5 B1u   1  2pz          1.795691     1.000000
    6.5 B1u   1  2pz          0.862134     1.000000
    7.5 B1u   1  2pz          0.413922     1.000000
    8.5 B1u   1  2pz          0.198729     1.000000
    9.5 B1u   1  2pz          0.095412     1.000000
   10.5 B1u   1  2pz          0.045809     1.000000

 NUCLEAR CHARGE:                    7
 NUMBER OF PRIMITIVE AOS:          40
 NUMBER OF SYMMETRY AOS:           40
 NUMBER OF CONTRACTIONS:           40   (  10Ag  +  10B3u +  10B2u +   0B1g +  10B1u +   0B2g +   0B3g +   0Au  )
 NUMBER OF CORE ORBITALS:           0   (   0Ag  +   0B3u +   0B2u +   0B1g +   0B1u +   0B2g +   0B3g +   0Au  )
 NUMBER OF VALENCE ORBITALS:        4   (   1Ag  +   1B3u +   1B2u +   0B1g +   1B1u +   0B2g +   0B3g +   0Au  )


 NUCLEAR REPULSION ENERGY    0.00000000

 Eigenvalues of metric

         1 0.372E-03 0.149E-02 0.542E-02 0.181E-01 0.565E-01 0.167E+00 0.468E+00 0.122E+01
         2 0.193E-02 0.629E-02 0.193E-01 0.545E-01 0.143E+00 0.350E+00 0.791E+00 0.161E+01
         3 0.193E-02 0.629E-02 0.193E-01 0.545E-01 0.143E+00 0.350E+00 0.791E+00 0.161E+01
         5 0.193E-02 0.629E-02 0.193E-01 0.545E-01 0.143E+00 0.350E+00 0.791E+00 0.161E+01


 Contracted 2-electron integrals neglected if value below      1.0D-12
 AO integral compression algorithm  1   Integral accuracy      1.0D-12

     5.243 MB (compressed) written to integral file (100.0%)

     Node minimum: 0.262 MB, node maximum: 1.573 MB


 NUMBER OF SORTED TWO-ELECTRON INTEGRALS:       3330.     BUFFER LENGTH:  32768
 NUMBER OF SEGMENTS:   1  SEGMENT LENGTH:       3330      RECORD LENGTH: 524288

 Memory used in sort:       0.56 MW

 SORT1 READ      280000. AND WROTE        3330. INTEGRALS IN      1 RECORDS. CPU TIME:     0.01 SEC, REAL TIME:     0.18 SEC
 SORT2 READ       60610. AND WROTE       60610. INTEGRALS IN     15 RECORDS. CPU TIME:     0.00 SEC, REAL TIME:     0.07 SEC

 Node minimum:        3282.  Node maximum:        4480. integrals

 OPERATOR DM      FOR CENTER  0  COORDINATES:    0.000000    0.000000    0.000000


 **********************************************************************************************************************************
 DATASETS  * FILE   NREC   LENGTH (MB)   RECORD NAMES
              1      19       19.88       500      610      700      900      950      970     1000      129      960     1100   
                                          VAR    BASINP    GEOM    SYMINP    ZMAT    AOBASIS   BASIS     P2S    ABASIS      S 
                                         1400     1410     1420     1200     1210     1080     1600     1650     1700   
                                           T        V       ECP      H0       H01     AOSYM     SMH    MOLCAS    OPER   

 PROGRAMS   *        TOTAL       INT
 CPU TIMES  *         0.92      0.28
 REAL TIME  *         3.75 SEC
 DISK USED  *        63.73 MB      
 GA USED    *         0.00 MB       (max)       0.00 MB       (current)
 **********************************************************************************************************************************


 PROGRAM * RHF-SCF (OPEN SHELL)       Authors: W. Meyer, H.-J. Werner


 NUMBER OF ELECTRONS:       4+    3-    SPACE SYMMETRY=5    SPIN SYMMETRY: Doublet 
 CONVERGENCE THRESHOLDS:    1.00E-05 (Density)    1.00E-07 (Energy)
 MAX. NUMBER OF ITERATIONS:       60
 INTERPOLATION TYPE:            DIIS
 INTERPOLATION STEPS:              2 (START)      1 (STEP)
 LEVEL SHIFTS:                 -0.60 (CLOSED) -0.30 (OPEN) 

 Number of closed-shell orbitals:    3 (   1   1   1   0   0 )
 Number of open-shell orbitals:      1 (   0   0   0   0   1 )



   Atom=I  basis=ECP46MDF_GUESS    lmin=0  lmax=1

 Orbital guess generated from atomic densities. Full valence occupancy:    1   1   1   0   1   0   0   0


 Molecular orbital dump at record        4202.2

 ITERATION    DDIFF          GRAD             ENERGY        2-EL.EN.            DIPOLE MOMENTS         DIIS   ORB.
    1      0.000D+00      0.000D+00       -11.21414764     14.764997    0.00000    0.00000    0.00000    0    start
    2      0.000D+00      0.403D-02       -11.21526106     14.836262    0.00000    0.00000    0.00000    1    diag,B
    3      0.362D-02      0.123D-02       -11.21550441     14.868610    0.00000    0.00000    0.00000    2    diag,B
    4      0.159D-02      0.439D-03       -11.21554557     14.879639    0.00000    0.00000    0.00000    3    diag,B
    5      0.114D-02      0.115D-03       -11.21554799     14.880584    0.00000    0.00000    0.00000    4    diag,B
    6      0.409D-03      0.250D-04       -11.21554808     14.880723    0.00000    0.00000    0.00000    5    diag,B
    7      0.143D-03      0.581D-05       -11.21554808     14.880773    0.00000    0.00000    0.00000    6    fixocc
    8      0.387D-04      0.188D-05       -11.21554808     14.880796    0.00000    0.00000    0.00000    7    diag,B
    9      0.884D-05      0.641D-06       -11.21554808     14.880801    0.00000    0.00000    0.00000    0    orth

 Final alpha occupancy:   1   1   1   0   1
 Final beta  occupancy:   1   1   1   0   0

 !RHF STATE 1.5 Energy                -11.215548084677
 Nuclear energy                         0.00000000
 One-electron energy                  -18.65594836
 Two-electron energy                    7.44040027
 Virial quotient                       -3.15972342
 !RHF STATE 1.5 Dipole moment           0.00000000     0.00000000     0.00000000
 Dipole moment /Debye                   0.00000000     0.00000000     0.00000000

 ELECTRON ORBITALS
 =================


   Orb  Occ    Energy  Couls-En    Coefficients

                                   1 1s      1 1s      1 1s      1 1s      1 1s      1 1s      1 1s      1 1s      1 1s      1 1s   


   1.1   2    -0.8799   -3.9597  0.000480 -0.002927  0.013929 -0.077256  0.362017 -0.697633 -0.135562  0.575224  0.592467  0.182265

                                   1 2px     1 2px     1 2px     1 2px     1 2px     1 2px     1 2px     1 2px     1 2px     1 2px  


   1.2   2    -0.3900   -2.8846 -0.000316  0.002074 -0.012885  0.080350 -0.241909  0.015623  0.348159  0.467522  0.283039  0.057836

                                   1 2py     1 2py     1 2py     1 2py     1 2py     1 2py     1 2py     1 2py     1 2py     1 2py  


   1.3   2    -0.3900   -2.8846 -0.000316  0.002074 -0.012885  0.080350 -0.241909  0.015623  0.348159  0.467522  0.283039  0.057836

                                   1 2pz     1 2pz     1 2pz     1 2pz     1 2pz     1 2pz     1 2pz     1 2pz     1 2pz     1 2pz  


   1.5   +    -0.4551   -2.9733 -0.000326  0.002133 -0.013195  0.081932 -0.245059  0.007462  0.366646  0.494938  0.256286  0.035307

 HOMO      1.2    -0.390046 =     -10.6137eV
 LUMO      2.5     0.107908 =       2.9363eV
 LUMO-HOMO         0.497954 =      13.5500eV


 **********************************************************************************************************************************
 DATASETS  * FILE   NREC   LENGTH (MB)   RECORD NAMES
              1      19       19.88       500      610      700      900      950      970     1000      129      960     1100   
                                          VAR    BASINP    GEOM    SYMINP    ZMAT    AOBASIS   BASIS     P2S    ABASIS      S 
                                         1400     1410     1420     1200     1210     1080     1600     1650     1700   
                                           T        V       ECP      H0       H01     AOSYM     SMH    MOLCAS    OPER   

              2       4        2.76       700     1000      520     4202   
                                         GEOM     BASIS   MCVARS     RHF  

 PROGRAMS   *        TOTAL       RHF       INT
 CPU TIMES  *         1.04      0.12      0.28
 REAL TIME  *         4.11 SEC
 DISK USED  *       404.76 MB      
 SF USED    *         0.00 MB      
 GA USED    *         0.00 MB       (max)       0.00 MB       (current)
 **********************************************************************************************************************************


 PROGRAM * POP (Mulliken population analysis)

 
 Density matrix read from record         4202.2  Type=RHF/CHARGE (state 1.5)
 
 Population analysis by basis function type

 Unique atom        s        p        d        f        g    Total    Charge
   1  I       2.00000  5.00000  0.00000  0.00000  0.00000  7.00000  - 0.00000


 **********************************************************************************************************************************
 DATASETS  * FILE   NREC   LENGTH (MB)   RECORD NAMES
              1      19       19.88       500      610      700      900      950      970     1000      129      960     1100   
                                          VAR    BASINP    GEOM    SYMINP    ZMAT    AOBASIS   BASIS     P2S    ABASIS      S 
                                         1400     1410     1420     1200     1210     1080     1600     1650     1700   
                                           T        V       ECP      H0       H01     AOSYM     SMH    MOLCAS    OPER   

              2       4        2.76       700     1000      520     4202   
                                         GEOM     BASIS   MCVARS     RHF  

 PROGRAMS   *        TOTAL       POP       RHF       INT
 CPU TIMES  *         1.04      0.00      0.12      0.28
 REAL TIME  *         4.16 SEC
 DISK USED  *       404.76 MB      
 SF USED    *         0.00 MB      
 GA USED    *         0.00 MB       (max)       0.00 MB       (current)
 **********************************************************************************************************************************


 PROGRAM * MULTI (Direct Multiconfiguration SCF)       Authors: P.J. Knowles, H.-J. Werner (1984)     S.T. Elbert (1988)


 Number of closed-shell orbitals:   1 (   1   0   0   0   0   0   0   0 )
 Number of active  orbitals:        3 (   0   1   1   0   1   0   0   0 )
 Number of external orbitals:      36 (   9   9   9   0   9   0   0   0 )

 State symmetry 1

 Number of electrons:     5    Spin symmetry=Doublet   Space symmetry=2
 Number of states:        1
 Number of CSFs:          1   (1 determinants, 3 intermediate states)

 State symmetry 2

 Number of electrons:     5    Spin symmetry=Doublet   Space symmetry=3
 Number of states:        1
 Number of CSFs:          1   (1 determinants, 3 intermediate states)

 State symmetry 3

 Number of electrons:     5    Spin symmetry=Doublet   Space symmetry=5
 Number of states:        1
 Number of CSFs:          1   (1 determinants, 3 intermediate states)

 Molecular orbitals read from record     4202.2  Type=RHF/CANONICAL (state 1.5)

 Wavefunction dump at record             5202.2

 Convergence thresholds  0.10E-01 (gradient)  0.10E-05 (energy)  0.10E-02 (step length)

 Weight factors for state symmetry  1:    0.33333
 Weight factors for state symmetry  2:    0.33333
 Weight factors for state symmetry  3:    0.33333

 Number of orbital rotations:       36   (     0 Core/Active      9 Core/Virtual   0 Active/Active     27 Active/Virtual)
 Total number of variables:         39


 ITER. MIC  NCI  NEG     ENERGY(VAR)     ENERGY(PROJ)   ENERGY CHANGE     GRAD(0)  GRAD(ORB)   GRAD(CI)     STEP       TIME

   1   23   12    0     -11.21446484     -11.21512143   -0.00065659    0.02539834 0.00000000 0.00000000  0.30D-01      0.04
   2   13   12    0     -11.21512155     -11.21512156   -0.00000000    0.00006983 0.00000000 0.00000000  0.58D-04      0.05

 ** WVFN ****  CONVERGENCE REACHED, FINAL GRADIENT:  0.11D-08



 Results for state 1.2
 =====================

 !MCSCF STATE 1.2 Energy              -11.215121555723
 Nuclear energy                         0.00000000
 Kinetic energy                         3.54945547
 One electron energy                  -18.65717938
 Two electron energy                    7.44205783
 Virial ratio                           4.15967383

 !MCSCF STATE 1.2 Dipole moment         0.00000000     0.00000000     0.00000000
 Dipole moment /Debye                   0.00000000     0.00000000     0.00000000



 Results for state 1.3
 =====================

 !MCSCF STATE 1.3 Energy              -11.215121555723
 Nuclear energy                         0.00000000
 Kinetic energy                         3.54945547
 One electron energy                  -18.65717938
 Two electron energy                    7.44205783
 Virial ratio                           4.15967383

 !MCSCF STATE 1.3 Dipole moment         0.00000000     0.00000000     0.00000000
 Dipole moment /Debye                   0.00000000     0.00000000     0.00000000



 Results for state 1.5
 =====================

 !MCSCF STATE 1.5 Energy              -11.215121555724
 Nuclear energy                         0.00000000
 Kinetic energy                         3.54945547
 One electron energy                  -18.65717938
 Two electron energy                    7.44205783
 Virial ratio                           4.15967383

 !MCSCF STATE 1.5 Dipole moment         0.00000000     0.00000000     0.00000000
 Dipole moment /Debye                   0.00000000     0.00000000     0.00000000

 State-averaged charge density matrix saved on record  5202.2 (density set 1)


 NATURAL ORBITALS (state averaged)
 =================================

   Orb     Occ        Energy       Coefficients

                                   1 1s      1 1s      1 1s      1 1s      1 1s      1 1s      1 1s      1 1s      1 1s      1 1s   


   1.1  2.00000    -0.879802     0.000480 -0.002928  0.013931 -0.077260  0.362021 -0.697646 -0.135463  0.575037  0.592546  0.182295

                                   1 2px     1 2px     1 2px     1 2px     1 2px     1 2px     1 2px     1 2px     1 2px     1 2px  


   1.2  1.66667    -0.344608    -0.000318  0.002086 -0.012949  0.080672 -0.242571  0.014118  0.351558  0.473120  0.278425  0.052566

                                   1 2py     1 2py     1 2py     1 2py     1 2py     1 2py     1 2py     1 2py     1 2py     1 2py  


   1.3  1.66667    -0.344608    -0.000318  0.002086 -0.012949  0.080672 -0.242571  0.014118  0.351558  0.473120  0.278425  0.052566

                                   1 2pz     1 2pz     1 2pz     1 2pz     1 2pz     1 2pz     1 2pz     1 2pz     1 2pz     1 2pz  


   1.5  1.66667    -0.344608    -0.000318  0.002086 -0.012949  0.080672 -0.242571  0.014118  0.351558  0.473120  0.278425  0.052566
 

 Natural orbital dump (state averaged) at molpro section  5202.2    (Orbital set 2)


 CI vector for state symmetry 1
 ==============================

 a 2 2           1.0000000

 TOTAL ENERGIES                       -11.21512156

 CI vector for state symmetry 2
 ==============================

 2 a 2           1.0000000

 TOTAL ENERGIES                       -11.21512156

 CI vector for state symmetry 3
 ==============================

 2 2 a           1.0000000

 TOTAL ENERGIES                       -11.21512156



 **********************************************************************************************************************************
 DATASETS  * FILE   NREC   LENGTH (MB)   RECORD NAMES
              1      20       19.92       500      610      700      900      950      970     1000      129      960     1100   
                                          VAR    BASINP    GEOM    SYMINP    ZMAT    AOBASIS   BASIS     P2S    ABASIS      S 
                                         1400     1410     1420     1200     1210     1080     1600     1650     1700     1380   
                                           T        V       ECP      H0       H01     AOSYM     SMH    MOLCAS    OPER     JKOP   

              2       5        5.26       700     1000      520     4202     5202   
                                         GEOM     BASIS   MCVARS     RHF     MCSCF   

 PROGRAMS   *        TOTAL     MULTI       POP       RHF       INT
 CPU TIMES  *         1.33      0.29      0.00      0.12      0.28
 REAL TIME  *         5.42 SEC
 DISK USED  *       404.76 MB      
 SF USED    *         9.03 MB      
 GA USED    *         0.00 MB       (max)       0.00 MB       (current)
 **********************************************************************************************************************************


 PROGRAM * RHF-SCF (OPEN SHELL)       Authors: W. Meyer, H.-J. Werner


 NUMBER OF ELECTRONS:       4+    3-    SPACE SYMMETRY=5    SPIN SYMMETRY: Doublet 
 CONVERGENCE THRESHOLDS:    1.00E-05 (Density)    1.00E-07 (Energy)
 MAX. NUMBER OF ITERATIONS:        0
 INTERPOLATION TYPE:            DIIS
 INTERPOLATION STEPS:              2 (START)      1 (STEP)
 LEVEL SHIFTS:                 -0.60 (CLOSED) -0.30 (OPEN) 

 Number of closed-shell orbitals:    3 (   1   1   1   0   0 )
 Number of open-shell orbitals:      1 (   0   0   0   0   1 )


 Molecular orbitals read from record     5202.2  Type=MCSCF/NATURAL (state averaged)

 Molecular orbital dump at record        2101.2

 ITERATION    DDIFF          GRAD             ENERGY        2-EL.EN.            DIPOLE MOMENTS         DIIS   ORB.
    1      0.000D+00      0.000D+00       -11.21512156     14.884116    0.00000    0.00000    0.00000    0    start

 Final alpha occupancy:   1   1   1   0   1
 Final beta  occupancy:   1   1   1   0   0

 !RHF STATE 1.5 Energy                -11.215121555724
 Nuclear energy                         0.00000000
 One-electron energy                  -18.65717938
 Two-electron energy                    7.44205783
 Virial quotient                       -3.15967383
 !RHF STATE 1.5 Dipole moment           0.00000000     0.00000000     0.00000000
 Dipole moment /Debye                   0.00000000     0.00000000     0.00000000

 ELECTRON ORBITALS
 =================


   Orb  Occ    Energy  Couls-En    Coefficients

                                   1 1s      1 1s      1 1s      1 1s      1 1s      1 1s      1 1s      1 1s      1 1s      1 1s   


   1.1   2    -0.8798   -3.9595  0.000480 -0.002928  0.013931 -0.077260  0.362021 -0.697646 -0.135463  0.575037  0.592546  0.182295

   2.1   0     0.2019   -1.2862 -0.002954  0.014888 -0.047695  0.142662 -0.433534  0.938052 -1.142188  2.027906 -4.328173  3.214614

   3.1   0     1.0883   -0.0590 -0.008919  0.043696 -0.128111  0.283444 -0.470924  1.183503 -4.725241  9.837150 -8.921259  3.109240

                                   1 2px     1 2px     1 2px     1 2px     1 2px     1 2px     1 2px     1 2px     1 2px     1 2px  


   1.2   2    -0.3446   -2.8441 -0.000318  0.002086 -0.012949  0.080672 -0.242571  0.014118  0.351558  0.473120  0.278425  0.052566

   2.2   0     0.1165   -0.9229 -0.000808  0.003527 -0.008543  0.007957 -0.005028  0.179922 -0.524823  0.726947 -1.854049  2.025353

   3.2   0     0.4826   -0.6992  0.002881 -0.013701  0.045957 -0.154979  0.421938 -0.595959  1.079849 -3.529152  4.460941 -1.844730

                                   1 2py     1 2py     1 2py     1 2py     1 2py     1 2py     1 2py     1 2py     1 2py     1 2py  


   1.3   2    -0.3446   -2.8441 -0.000318  0.002086 -0.012949  0.080672 -0.242571  0.014118  0.351558  0.473120  0.278425  0.052566

   2.3   0     0.1165   -0.9229 -0.000808  0.003527 -0.008543  0.007957 -0.005028  0.179922 -0.524823  0.726947 -1.854049  2.025353

   3.3   0     0.4826   -0.6992  0.002881 -0.013701  0.045957 -0.154979  0.421938 -0.595959  1.079849 -3.529152  4.460941 -1.844730

                                   1 2pz     1 2pz     1 2pz     1 2pz     1 2pz     1 2pz     1 2pz     1 2pz     1 2pz     1 2pz  


   1.5   +    -0.3446   -2.8441 -0.000318  0.002086 -0.012949  0.080672 -0.242571  0.014118  0.351558  0.473120  0.278425  0.052566

   2.5   0     0.1165   -0.9229 -0.000808  0.003527 -0.008543  0.007957 -0.005028  0.179922 -0.524823  0.726947 -1.854049  2.025353

   3.5   0     0.4826   -0.6992  0.002881 -0.013701  0.045957 -0.154979  0.421938 -0.595959  1.079849 -3.529152  4.460941 -1.844730

 HOMO      1.2    -0.344608 =      -9.3773eV
 LUMO      2.2     0.116473 =       3.1694eV
 LUMO-HOMO         0.461081 =      12.5466eV


 **********************************************************************************************************************************
 DATASETS  * FILE   NREC   LENGTH (MB)   RECORD NAMES
              1      20       19.92       500      610      700      900      950      970     1000      129      960     1100   
                                          VAR    BASINP    GEOM    SYMINP    ZMAT    AOBASIS   BASIS     P2S    ABASIS      S 
                                         1400     1410     1420     1200     1210     1080     1600     1650     1700     1380   
                                           T        V       ECP      H0       H01     AOSYM     SMH    MOLCAS    OPER     JKOP   

              2       6        7.77       700     1000      520     4202     5202     2101   
                                         GEOM     BASIS   MCVARS     RHF     MCSCF     RHF  

 PROGRAMS   *        TOTAL       RHF     MULTI       POP       RHF       INT
 CPU TIMES  *         1.45      0.12      0.29      0.00      0.12      0.28
 REAL TIME  *         5.78 SEC
 DISK USED  *       404.76 MB      
 SF USED    *         9.03 MB      
 GA USED    *         0.00 MB       (max)       0.00 MB       (current)
 **********************************************************************************************************************************

 RHF/USERDEF energy=    -11.215121555724

        RHF-SCF         MULTI           RHF-SCF 
    -11.21512156    -11.21512156    -11.21554808
 **********************************************************************************************************************************
 Molpro calculation terminated
 Variable memory released
