/global/cscratch1/sd/bkincaid/cutoffs/Bi/250-610/runs/scf_360

     Program PWSCF v.6.4.1 starts on 17Jan2022 at 15:20:34 

     This program is part of the open-source Quantum ESPRESSO suite
     for quantum simulation of materials; please cite
         "P. Giannozzi et al., J. Phys.:Condens. Matter 21 395502 (2009);
         "P. Giannozzi et al., J. Phys.:Condens. Matter 29 465901 (2017);
          URL http://www.quantum-espresso.org", 
     in publications or presentations arising from this work. More details at
     http://www.quantum-espresso.org/quote

     Parallel version (MPI & OpenMP), running on      32 processor cores
     Number of MPI processes:                32
     Threads/MPI process:                     1

     MPI processes distributed on     1 nodes
     R & G space division:  proc/nbgrp/npool/nimage =      32
     Reading input from scf_360.in

     Current dimensions of program PWSCF are:
     Max number of different atomic species (ntypx) = 10
     Max number of k-points (npk) =  40000
     Max angular momentum in pseudopotentials (lmaxx) =  3

     IMPORTANT: XC functional enforced from input :
     Exchange-correlation      = PBE ( 1  4  3  4 0 0)
     Any further DFT definition will be discarded
     Please, verify this is what you really want


     gamma-point specific algorithms are used
     Message from routine setup:
     the system is metallic, specify occupations

     Subspace diagonalization in iterative solution of the eigenvalue problem:
     one sub-group per band group will be used
     scalapack distributed-memory algorithm (size of sub-group:  4*  4 procs)

     Message from routine setup:
     DEPRECATED: symmetry with ibrav=0, use correct ibrav instead
 
     Parallelization info
     --------------------
     sticks:   dense  smooth     PW     G-vecs:    dense   smooth      PW
     Min        1839    1839    460               336260   336260   42040
     Max        1842    1842    462               336270   336270   42046
     Sum       58905   58905  14745             10760457 10760457 1345393
 


     bravais-lattice index     =            0
     lattice parameter (alat)  =      22.6767  a.u.
     unit-cell volume          =   11661.1222 (a.u.)^3
     number of atoms/cell      =            1
     number of atomic types    =            1
     number of electrons       =         5.00 (up:   4.00, down:   1.00)
     number of Kohn-Sham states=           12
     kinetic-energy cutoff     =     360.0000  Ry
     charge density cutoff     =    1440.0000  Ry
     convergence threshold     =      1.0E-06
     mixing beta               =       0.7000
     number of iterations used =            8  plain     mixing
     Exchange-correlation      = PBE ( 1  4  3  4 0 0)

     celldm(1)=  22.676714  celldm(2)=   0.000000  celldm(3)=   0.000000
     celldm(4)=   0.000000  celldm(5)=   0.000000  celldm(6)=   0.000000

     crystal axes: (cart. coord. in units of alat)
               a(1) = (   1.000000   0.000000   0.000000 )  
               a(2) = (   0.000000   1.000000   0.000000 )  
               a(3) = (   0.000000   0.000000   1.000000 )  

     reciprocal axes: (cart. coord. in units 2 pi/alat)
               b(1) = (  1.000000  0.000000  0.000000 )  
               b(2) = (  0.000000  1.000000  0.000000 )  
               b(3) = (  0.000000  0.000000  1.000000 )  


     PseudoPot. # 1 for Bi read from file:
     ./Bi.upf
     MD5 check sum: d32d971bf254ad97ea019502674cb571
     Pseudo is Norm-conserving, Zval =  5.0
     Generated by new atomic code, or converted to UPF format
     Using radial grid of 1190 points,  2 beta functions with: 
                l(1) =   1
                l(2) =   2

     atomic species   valence    mass     pseudopotential
        Bi             5.00   208.98000     Bi( 1.00)

     Starting magnetic structure 
     atomic species   magnetization
        Bi           0.500

     48 Sym. Ops., with inversion, found


                                    s                        frac. trans.

      isym =  1     identity                                     

 cryst.   s( 1) = (     1          0          0      )
                  (     0          1          0      )
                  (     0          0          1      )

 cart.    s( 1) = (  1.0000000  0.0000000  0.0000000 )
                  (  0.0000000  1.0000000  0.0000000 )
                  (  0.0000000  0.0000000  1.0000000 )


      isym =  2     180 deg rotation - cart. axis [0,0,1]        

 cryst.   s( 2) = (    -1          0          0      )
                  (     0         -1          0      )
                  (     0          0          1      )

 cart.    s( 2) = ( -1.0000000  0.0000000  0.0000000 )
                  (  0.0000000 -1.0000000  0.0000000 )
                  (  0.0000000  0.0000000  1.0000000 )


      isym =  3     180 deg rotation - cart. axis [0,1,0]        

 cryst.   s( 3) = (    -1          0          0      )
                  (     0          1          0      )
                  (     0          0         -1      )

 cart.    s( 3) = ( -1.0000000  0.0000000  0.0000000 )
                  (  0.0000000  1.0000000  0.0000000 )
                  (  0.0000000  0.0000000 -1.0000000 )


      isym =  4     180 deg rotation - cart. axis [1,0,0]        

 cryst.   s( 4) = (     1          0          0      )
                  (     0         -1          0      )
                  (     0          0         -1      )

 cart.    s( 4) = (  1.0000000  0.0000000  0.0000000 )
                  (  0.0000000 -1.0000000  0.0000000 )
                  (  0.0000000  0.0000000 -1.0000000 )


      isym =  5     180 deg rotation - cart. axis [1,1,0]        

 cryst.   s( 5) = (     0          1          0      )
                  (     1          0          0      )
                  (     0          0         -1      )

 cart.    s( 5) = (  0.0000000  1.0000000  0.0000000 )
                  (  1.0000000  0.0000000  0.0000000 )
                  (  0.0000000  0.0000000 -1.0000000 )


      isym =  6     180 deg rotation - cart. axis [1,-1,0]       

 cryst.   s( 6) = (     0         -1          0      )
                  (    -1          0          0      )
                  (     0          0         -1      )

 cart.    s( 6) = (  0.0000000 -1.0000000  0.0000000 )
                  ( -1.0000000  0.0000000  0.0000000 )
                  (  0.0000000  0.0000000 -1.0000000 )


      isym =  7      90 deg rotation - cart. axis [0,0,-1]       

 cryst.   s( 7) = (     0         -1          0      )
                  (     1          0          0      )
                  (     0          0          1      )

 cart.    s( 7) = (  0.0000000  1.0000000  0.0000000 )
                  ( -1.0000000  0.0000000  0.0000000 )
                  (  0.0000000  0.0000000  1.0000000 )


      isym =  8      90 deg rotation - cart. axis [0,0,1]        

 cryst.   s( 8) = (     0          1          0      )
                  (    -1          0          0      )
                  (     0          0          1      )

 cart.    s( 8) = (  0.0000000 -1.0000000  0.0000000 )
                  (  1.0000000  0.0000000  0.0000000 )
                  (  0.0000000  0.0000000  1.0000000 )


      isym =  9     180 deg rotation - cart. axis [1,0,1]        

 cryst.   s( 9) = (     0          0          1      )
                  (     0         -1          0      )
                  (     1          0          0      )

 cart.    s( 9) = (  0.0000000  0.0000000  1.0000000 )
                  (  0.0000000 -1.0000000  0.0000000 )
                  (  1.0000000  0.0000000  0.0000000 )


      isym = 10     180 deg rotation - cart. axis [-1,0,1]       

 cryst.   s(10) = (     0          0         -1      )
                  (     0         -1          0      )
                  (    -1          0          0      )

 cart.    s(10) = (  0.0000000  0.0000000 -1.0000000 )
                  (  0.0000000 -1.0000000  0.0000000 )
                  ( -1.0000000  0.0000000  0.0000000 )


      isym = 11      90 deg rotation - cart. axis [0,1,0]        

 cryst.   s(11) = (     0          0         -1      )
                  (     0          1          0      )
                  (     1          0          0      )

 cart.    s(11) = (  0.0000000  0.0000000  1.0000000 )
                  (  0.0000000  1.0000000  0.0000000 )
                  ( -1.0000000  0.0000000  0.0000000 )


      isym = 12      90 deg rotation - cart. axis [0,-1,0]       

 cryst.   s(12) = (     0          0          1      )
                  (     0          1          0      )
                  (    -1          0          0      )

 cart.    s(12) = (  0.0000000  0.0000000 -1.0000000 )
                  (  0.0000000  1.0000000  0.0000000 )
                  (  1.0000000  0.0000000  0.0000000 )


      isym = 13     180 deg rotation - cart. axis [0,1,1]        

 cryst.   s(13) = (    -1          0          0      )
                  (     0          0          1      )
                  (     0          1          0      )

 cart.    s(13) = ( -1.0000000  0.0000000  0.0000000 )
                  (  0.0000000  0.0000000  1.0000000 )
                  (  0.0000000  1.0000000  0.0000000 )


      isym = 14     180 deg rotation - cart. axis [0,1,-1]       

 cryst.   s(14) = (    -1          0          0      )
                  (     0          0         -1      )
                  (     0         -1          0      )

 cart.    s(14) = ( -1.0000000  0.0000000  0.0000000 )
                  (  0.0000000  0.0000000 -1.0000000 )
                  (  0.0000000 -1.0000000  0.0000000 )


      isym = 15      90 deg rotation - cart. axis [-1,0,0]       

 cryst.   s(15) = (     1          0          0      )
                  (     0          0         -1      )
                  (     0          1          0      )

 cart.    s(15) = (  1.0000000  0.0000000  0.0000000 )
                  (  0.0000000  0.0000000  1.0000000 )
                  (  0.0000000 -1.0000000  0.0000000 )


      isym = 16      90 deg rotation - cart. axis [1,0,0]        

 cryst.   s(16) = (     1          0          0      )
                  (     0          0          1      )
                  (     0         -1          0      )

 cart.    s(16) = (  1.0000000  0.0000000  0.0000000 )
                  (  0.0000000  0.0000000 -1.0000000 )
                  (  0.0000000  1.0000000  0.0000000 )


      isym = 17     120 deg rotation - cart. axis [-1,-1,-1]     

 cryst.   s(17) = (     0          0          1      )
                  (     1          0          0      )
                  (     0          1          0      )

 cart.    s(17) = (  0.0000000  1.0000000  0.0000000 )
                  (  0.0000000  0.0000000  1.0000000 )
                  (  1.0000000  0.0000000  0.0000000 )


      isym = 18     120 deg rotation - cart. axis [-1,1,1]       

 cryst.   s(18) = (     0          0         -1      )
                  (    -1          0          0      )
                  (     0          1          0      )

 cart.    s(18) = (  0.0000000 -1.0000000  0.0000000 )
                  (  0.0000000  0.0000000  1.0000000 )
                  ( -1.0000000  0.0000000  0.0000000 )


      isym = 19     120 deg rotation - cart. axis [1,1,-1]       

 cryst.   s(19) = (     0          0         -1      )
                  (     1          0          0      )
                  (     0         -1          0      )

 cart.    s(19) = (  0.0000000  1.0000000  0.0000000 )
                  (  0.0000000  0.0000000 -1.0000000 )
                  ( -1.0000000  0.0000000  0.0000000 )


      isym = 20     120 deg rotation - cart. axis [1,-1,1]       

 cryst.   s(20) = (     0          0          1      )
                  (    -1          0          0      )
                  (     0         -1          0      )

 cart.    s(20) = (  0.0000000 -1.0000000  0.0000000 )
                  (  0.0000000  0.0000000 -1.0000000 )
                  (  1.0000000  0.0000000  0.0000000 )


      isym = 21     120 deg rotation - cart. axis [1,1,1]        

 cryst.   s(21) = (     0          1          0      )
                  (     0          0          1      )
                  (     1          0          0      )

 cart.    s(21) = (  0.0000000  0.0000000  1.0000000 )
                  (  1.0000000  0.0000000  0.0000000 )
                  (  0.0000000  1.0000000  0.0000000 )


      isym = 22     120 deg rotation - cart. axis [-1,1,-1]      

 cryst.   s(22) = (     0         -1          0      )
                  (     0          0         -1      )
                  (     1          0          0      )

 cart.    s(22) = (  0.0000000  0.0000000  1.0000000 )
                  ( -1.0000000  0.0000000  0.0000000 )
                  (  0.0000000 -1.0000000  0.0000000 )


      isym = 23     120 deg rotation - cart. axis [1,-1,-1]      

 cryst.   s(23) = (     0         -1          0      )
                  (     0          0          1      )
                  (    -1          0          0      )

 cart.    s(23) = (  0.0000000  0.0000000 -1.0000000 )
                  ( -1.0000000  0.0000000  0.0000000 )
                  (  0.0000000  1.0000000  0.0000000 )


      isym = 24     120 deg rotation - cart. axis [-1,-1,1]      

 cryst.   s(24) = (     0          1          0      )
                  (     0          0         -1      )
                  (    -1          0          0      )

 cart.    s(24) = (  0.0000000  0.0000000 -1.0000000 )
                  (  1.0000000  0.0000000  0.0000000 )
                  (  0.0000000 -1.0000000  0.0000000 )


      isym = 25     inversion                                    

 cryst.   s(25) = (    -1          0          0      )
                  (     0         -1          0      )
                  (     0          0         -1      )

 cart.    s(25) = ( -1.0000000  0.0000000  0.0000000 )
                  (  0.0000000 -1.0000000  0.0000000 )
                  (  0.0000000  0.0000000 -1.0000000 )


      isym = 26     inv. 180 deg rotation - cart. axis [0,0,1]   

 cryst.   s(26) = (     1          0          0      )
                  (     0          1          0      )
                  (     0          0         -1      )

 cart.    s(26) = (  1.0000000  0.0000000  0.0000000 )
                  (  0.0000000  1.0000000  0.0000000 )
                  (  0.0000000  0.0000000 -1.0000000 )


      isym = 27     inv. 180 deg rotation - cart. axis [0,1,0]   

 cryst.   s(27) = (     1          0          0      )
                  (     0         -1          0      )
                  (     0          0          1      )

 cart.    s(27) = (  1.0000000  0.0000000  0.0000000 )
                  (  0.0000000 -1.0000000  0.0000000 )
                  (  0.0000000  0.0000000  1.0000000 )


      isym = 28     inv. 180 deg rotation - cart. axis [1,0,0]   

 cryst.   s(28) = (    -1          0          0      )
                  (     0          1          0      )
                  (     0          0          1      )

 cart.    s(28) = ( -1.0000000  0.0000000  0.0000000 )
                  (  0.0000000  1.0000000  0.0000000 )
                  (  0.0000000  0.0000000  1.0000000 )


      isym = 29     inv. 180 deg rotation - cart. axis [1,1,0]   

 cryst.   s(29) = (     0         -1          0      )
                  (    -1          0          0      )
                  (     0          0          1      )

 cart.    s(29) = (  0.0000000 -1.0000000  0.0000000 )
                  ( -1.0000000  0.0000000  0.0000000 )
                  (  0.0000000  0.0000000  1.0000000 )


      isym = 30     inv. 180 deg rotation - cart. axis [1,-1,0]  

 cryst.   s(30) = (     0          1          0      )
                  (     1          0          0      )
                  (     0          0          1      )

 cart.    s(30) = (  0.0000000  1.0000000  0.0000000 )
                  (  1.0000000  0.0000000  0.0000000 )
                  (  0.0000000  0.0000000  1.0000000 )


      isym = 31     inv.  90 deg rotation - cart. axis [0,0,-1]  

 cryst.   s(31) = (     0          1          0      )
                  (    -1          0          0      )
                  (     0          0         -1      )

 cart.    s(31) = (  0.0000000 -1.0000000  0.0000000 )
                  (  1.0000000  0.0000000  0.0000000 )
                  (  0.0000000  0.0000000 -1.0000000 )


      isym = 32     inv.  90 deg rotation - cart. axis [0,0,1]   

 cryst.   s(32) = (     0         -1          0      )
                  (     1          0          0      )
                  (     0          0         -1      )

 cart.    s(32) = (  0.0000000  1.0000000  0.0000000 )
                  ( -1.0000000  0.0000000  0.0000000 )
                  (  0.0000000  0.0000000 -1.0000000 )


      isym = 33     inv. 180 deg rotation - cart. axis [1,0,1]   

 cryst.   s(33) = (     0          0         -1      )
                  (     0          1          0      )
                  (    -1          0          0      )

 cart.    s(33) = (  0.0000000  0.0000000 -1.0000000 )
                  (  0.0000000  1.0000000  0.0000000 )
                  ( -1.0000000  0.0000000  0.0000000 )


      isym = 34     inv. 180 deg rotation - cart. axis [-1,0,1]  

 cryst.   s(34) = (     0          0          1      )
                  (     0          1          0      )
                  (     1          0          0      )

 cart.    s(34) = (  0.0000000  0.0000000  1.0000000 )
                  (  0.0000000  1.0000000  0.0000000 )
                  (  1.0000000  0.0000000  0.0000000 )


      isym = 35     inv.  90 deg rotation - cart. axis [0,1,0]   

 cryst.   s(35) = (     0          0          1      )
                  (     0         -1          0      )
                  (    -1          0          0      )

 cart.    s(35) = (  0.0000000  0.0000000 -1.0000000 )
                  (  0.0000000 -1.0000000  0.0000000 )
                  (  1.0000000  0.0000000  0.0000000 )


      isym = 36     inv.  90 deg rotation - cart. axis [0,-1,0]  

 cryst.   s(36) = (     0          0         -1      )
                  (     0         -1          0      )
                  (     1          0          0      )

 cart.    s(36) = (  0.0000000  0.0000000  1.0000000 )
                  (  0.0000000 -1.0000000  0.0000000 )
                  ( -1.0000000  0.0000000  0.0000000 )


      isym = 37     inv. 180 deg rotation - cart. axis [0,1,1]   

 cryst.   s(37) = (     1          0          0      )
                  (     0          0         -1      )
                  (     0         -1          0      )

 cart.    s(37) = (  1.0000000  0.0000000  0.0000000 )
                  (  0.0000000  0.0000000 -1.0000000 )
                  (  0.0000000 -1.0000000  0.0000000 )


      isym = 38     inv. 180 deg rotation - cart. axis [0,1,-1]  

 cryst.   s(38) = (     1          0          0      )
                  (     0          0          1      )
                  (     0          1          0      )

 cart.    s(38) = (  1.0000000  0.0000000  0.0000000 )
                  (  0.0000000  0.0000000  1.0000000 )
                  (  0.0000000  1.0000000  0.0000000 )


      isym = 39     inv.  90 deg rotation - cart. axis [-1,0,0]  

 cryst.   s(39) = (    -1          0          0      )
                  (     0          0          1      )
                  (     0         -1          0      )

 cart.    s(39) = ( -1.0000000  0.0000000  0.0000000 )
                  (  0.0000000  0.0000000 -1.0000000 )
                  (  0.0000000  1.0000000  0.0000000 )


      isym = 40     inv.  90 deg rotation - cart. axis [1,0,0]   

 cryst.   s(40) = (    -1          0          0      )
                  (     0          0         -1      )
                  (     0          1          0      )

 cart.    s(40) = ( -1.0000000  0.0000000  0.0000000 )
                  (  0.0000000  0.0000000  1.0000000 )
                  (  0.0000000 -1.0000000  0.0000000 )


      isym = 41     inv. 120 deg rotation - cart. axis [-1,-1,-1]

 cryst.   s(41) = (     0          0         -1      )
                  (    -1          0          0      )
                  (     0         -1          0      )

 cart.    s(41) = (  0.0000000 -1.0000000  0.0000000 )
                  (  0.0000000  0.0000000 -1.0000000 )
                  ( -1.0000000  0.0000000  0.0000000 )


      isym = 42     inv. 120 deg rotation - cart. axis [-1,1,1]  

 cryst.   s(42) = (     0          0          1      )
                  (     1          0          0      )
                  (     0         -1          0      )

 cart.    s(42) = (  0.0000000  1.0000000  0.0000000 )
                  (  0.0000000  0.0000000 -1.0000000 )
                  (  1.0000000  0.0000000  0.0000000 )


      isym = 43     inv. 120 deg rotation - cart. axis [1,1,-1]  

 cryst.   s(43) = (     0          0          1      )
                  (    -1          0          0      )
                  (     0          1          0      )

 cart.    s(43) = (  0.0000000 -1.0000000  0.0000000 )
                  (  0.0000000  0.0000000  1.0000000 )
                  (  1.0000000  0.0000000  0.0000000 )


      isym = 44     inv. 120 deg rotation - cart. axis [1,-1,1]  

 cryst.   s(44) = (     0          0         -1      )
                  (     1          0          0      )
                  (     0          1          0      )

 cart.    s(44) = (  0.0000000  1.0000000  0.0000000 )
                  (  0.0000000  0.0000000  1.0000000 )
                  ( -1.0000000  0.0000000  0.0000000 )


      isym = 45     inv. 120 deg rotation - cart. axis [1,1,1]   

 cryst.   s(45) = (     0         -1          0      )
                  (     0          0         -1      )
                  (    -1          0          0      )

 cart.    s(45) = (  0.0000000  0.0000000 -1.0000000 )
                  ( -1.0000000  0.0000000  0.0000000 )
                  (  0.0000000 -1.0000000  0.0000000 )


      isym = 46     inv. 120 deg rotation - cart. axis [-1,1,-1] 

 cryst.   s(46) = (     0          1          0      )
                  (     0          0          1      )
                  (    -1          0          0      )

 cart.    s(46) = (  0.0000000  0.0000000 -1.0000000 )
                  (  1.0000000  0.0000000  0.0000000 )
                  (  0.0000000  1.0000000  0.0000000 )


      isym = 47     inv. 120 deg rotation - cart. axis [1,-1,-1] 

 cryst.   s(47) = (     0          1          0      )
                  (     0          0         -1      )
                  (     1          0          0      )

 cart.    s(47) = (  0.0000000  0.0000000  1.0000000 )
                  (  1.0000000  0.0000000  0.0000000 )
                  (  0.0000000 -1.0000000  0.0000000 )


      isym = 48     inv. 120 deg rotation - cart. axis [-1,-1,1] 

 cryst.   s(48) = (     0         -1          0      )
                  (     0          0          1      )
                  (     1          0          0      )

 cart.    s(48) = (  0.0000000  0.0000000  1.0000000 )
                  ( -1.0000000  0.0000000  0.0000000 )
                  (  0.0000000  1.0000000  0.0000000 )


   Cartesian axes

     site n.     atom                  positions (alat units)
         1           Bi  tau(   1) = (   0.5000000   0.5000000   0.5000000  )

   Crystallographic axes

     site n.     atom                  positions (cryst. coord.)
         1           Bi  tau(   1) = (  0.5000000  0.5000000  0.5000000  )

     number of k points=     1
                       cart. coord. in units 2pi/alat
        k(    1) = (   0.0000000   0.0000000   0.0000000), wk =   1.0000000

                       cryst. coord.
        k(    1) = (   0.0000000   0.0000000   0.0000000), wk =   1.0000000

     Dense  grid:  5380229 G-vectors     FFT dimensions: ( 288, 288, 288)

     Dynamical RAM for                 wfc:       3.85 MB

     Dynamical RAM for     wfc (w. buffer):      11.54 MB

     Dynamical RAM for           str. fact:       2.57 MB

     Dynamical RAM for           local pot:       0.00 MB

     Dynamical RAM for          nlocal pot:       2.57 MB

     Dynamical RAM for                qrad:       1.57 MB

     Dynamical RAM for          rho,v,vnew:      49.56 MB

     Dynamical RAM for               rhoin:      16.52 MB

     Dynamical RAM for            rho*nmix:      82.10 MB

     Dynamical RAM for           G-vectors:      10.90 MB

     Dynamical RAM for          h,s,v(r/c):       0.00 MB

     Dynamical RAM for          <psi|beta>:       0.00 MB

     Dynamical RAM for                 psi:      15.39 MB

     Dynamical RAM for                hpsi:      15.39 MB

     Dynamical RAM for      wfcinit/wfcrot:       7.70 MB

     Estimated static dynamical RAM per process >     216.63 MB

     Estimated max dynamical RAM per process >     247.42 MB

     Estimated total dynamical RAM >       7.73 GB
     Generating pointlists ...
     new r_m :   0.4125 (alat units)  9.3541 (a.u.) for type    1

     Initial potential from superposition of free atoms

     starting charge    3.98126, renormalised to    5.00000

     negative rho (up, down):  7.279E-03 0.000E+00
     Starting wfcs are    9 randomized atomic wfcs +    3 random wfcs

     total cpu time spent up to now is        6.8 secs

     Self-consistent Calculation

     iteration #  1     ecut=   360.00 Ry     beta= 0.70
     Davidson diagonalization with overlap
     ethr =  1.00E-02,  avg # of iterations =  9.0

     Threshold (ethr) on eigenvalues was too large:
     Diagonalizing with lowered threshold

     Davidson diagonalization with overlap
     ethr =  9.17E-04,  avg # of iterations =  5.5

     negative rho (up, down):  2.089E-03 9.190E-03

     total cpu time spent up to now is       20.1 secs

     total energy              =     -10.91899659 Ry
     Harris-Foulkes estimate   =     -10.89859424 Ry
     estimated scf accuracy    <       0.04441077 Ry

     total magnetization       =     3.00 Bohr mag/cell
     absolute magnetization    =     3.00 Bohr mag/cell

     iteration #  2     ecut=   360.00 Ry     beta= 0.70
     Davidson diagonalization with overlap
     ethr =  8.88E-04,  avg # of iterations =  2.5

     negative rho (up, down):  5.868E-05 2.000E-01

     total cpu time spent up to now is       25.9 secs

     total energy              =     -10.92801864 Ry
     Harris-Foulkes estimate   =     -10.92236544 Ry
     estimated scf accuracy    <       0.00319658 Ry

     total magnetization       =     3.00 Bohr mag/cell
     absolute magnetization    =     3.00 Bohr mag/cell

     iteration #  3     ecut=   360.00 Ry     beta= 0.70
     Davidson diagonalization with overlap
     c_bands:  1 eigenvalues not converged
     ethr =  6.39E-05,  avg # of iterations = 17.5

     negative rho (up, down):  5.869E-05 2.000E-01

     total cpu time spent up to now is       39.8 secs

     total energy              =     -10.93279284 Ry
     Harris-Foulkes estimate   =     -10.93279305 Ry
     estimated scf accuracy    <       0.00131535 Ry

     total magnetization       =     3.00 Bohr mag/cell
     absolute magnetization    =     3.00 Bohr mag/cell

     iteration #  4     ecut=   360.00 Ry     beta= 0.70
     Davidson diagonalization with overlap
     c_bands:  2 eigenvalues not converged
     ethr =  2.63E-05,  avg # of iterations = 11.5

     negative rho (up, down):  8.127E-05 1.852E-01

     total cpu time spent up to now is       48.0 secs

     total energy              =     -10.93264824 Ry
     Harris-Foulkes estimate   =     -10.93282496 Ry
     estimated scf accuracy    <       0.00134594 Ry

     total magnetization       =     3.00 Bohr mag/cell
     absolute magnetization    =     3.00 Bohr mag/cell

     iteration #  5     ecut=   360.00 Ry     beta= 0.70
     Davidson diagonalization with overlap
     ethr =  2.63E-05,  avg # of iterations =  3.5

     negative rho (up, down):  3.733E-02 3.805E-01

     total cpu time spent up to now is       53.8 secs

     total energy              =     -10.93224343 Ry
     Harris-Foulkes estimate   =     -10.93266050 Ry
     estimated scf accuracy    <       0.00131133 Ry

     total magnetization       =     3.00 Bohr mag/cell
     absolute magnetization    =     3.00 Bohr mag/cell

     iteration #  6     ecut=   360.00 Ry     beta= 0.70
     Davidson diagonalization with overlap
     c_bands:  2 eigenvalues not converged
     ethr =  2.62E-05,  avg # of iterations = 13.5

     negative rho (up, down):  6.772E-02 4.005E-01

     total cpu time spent up to now is       64.3 secs

     total energy              =     -10.93295148 Ry
     Harris-Foulkes estimate   =     -10.93269440 Ry
     estimated scf accuracy    <       0.00609254 Ry

     total magnetization       =     3.00 Bohr mag/cell
     absolute magnetization    =     3.00 Bohr mag/cell

     iteration #  7     ecut=   360.00 Ry     beta= 0.70
     Davidson diagonalization with overlap
     ethr =  2.62E-05,  avg # of iterations =  2.0

     negative rho (up, down):  9.864E-02 4.259E-01

     total cpu time spent up to now is       69.9 secs

     total energy              =     -10.93342056 Ry
     Harris-Foulkes estimate   =     -10.93304828 Ry
     estimated scf accuracy    <       0.00969894 Ry

     total magnetization       =     3.00 Bohr mag/cell
     absolute magnetization    =     3.00 Bohr mag/cell

     iteration #  8     ecut=   360.00 Ry     beta= 0.70
     Davidson diagonalization with overlap
     ethr =  2.62E-05,  avg # of iterations =  3.5

     negative rho (up, down):  9.798E-02 4.138E-01

     total cpu time spent up to now is       75.9 secs

     total energy              =     -10.93345337 Ry
     Harris-Foulkes estimate   =     -10.93347950 Ry
     estimated scf accuracy    <       0.01333983 Ry

     total magnetization       =     3.00 Bohr mag/cell
     absolute magnetization    =     3.00 Bohr mag/cell

     iteration #  9     ecut=   360.00 Ry     beta= 0.70
     Davidson diagonalization with overlap
     ethr =  2.62E-05,  avg # of iterations =  1.0

     negative rho (up, down):  1.076E-01 3.989E-01

     total cpu time spent up to now is       81.4 secs

     total energy              =     -10.93379900 Ry
     Harris-Foulkes estimate   =     -10.93347080 Ry
     estimated scf accuracy    <       0.01338245 Ry

     total magnetization       =     3.00 Bohr mag/cell
     absolute magnetization    =     3.00 Bohr mag/cell

     iteration # 10     ecut=   360.00 Ry     beta= 0.70
     Davidson diagonalization with overlap
     ethr =  2.62E-05,  avg # of iterations =  1.0

     negative rho (up, down):  1.082E-01 3.935E-01

     total cpu time spent up to now is       86.9 secs

     total energy              =     -10.93389752 Ry
     Harris-Foulkes estimate   =     -10.93382142 Ry
     estimated scf accuracy    <       0.01482733 Ry

     total magnetization       =     3.00 Bohr mag/cell
     absolute magnetization    =     3.00 Bohr mag/cell

     iteration # 11     ecut=   360.00 Ry     beta= 0.70
     Davidson diagonalization with overlap
     ethr =  2.62E-05,  avg # of iterations =  1.0

     negative rho (up, down):  1.119E-01 3.942E-01

     total cpu time spent up to now is       92.4 secs

     total energy              =     -10.93406827 Ry
     Harris-Foulkes estimate   =     -10.93390917 Ry
     estimated scf accuracy    <       0.01501343 Ry

     total magnetization       =     3.00 Bohr mag/cell
     absolute magnetization    =     3.00 Bohr mag/cell

     iteration # 12     ecut=   360.00 Ry     beta= 0.70
     Davidson diagonalization with overlap
     ethr =  2.62E-05,  avg # of iterations =  1.0

     negative rho (up, down):  3.589E-05 4.111E-01

     total cpu time spent up to now is       98.0 secs

     total energy              =     -10.93173602 Ry
     Harris-Foulkes estimate   =     -10.93407983 Ry
     estimated scf accuracy    <       0.01569544 Ry

     total magnetization       =     3.00 Bohr mag/cell
     absolute magnetization    =     3.00 Bohr mag/cell

     iteration # 13     ecut=   360.00 Ry     beta= 0.70
     Davidson diagonalization with overlap
     ethr =  2.62E-05,  avg # of iterations =  5.5

     negative rho (up, down):  6.328E-06 2.618E-01

     total cpu time spent up to now is      107.1 secs

     total energy              =     -10.93286331 Ry
     Harris-Foulkes estimate   =     -10.93300400 Ry
     estimated scf accuracy    <       0.00043354 Ry

     total magnetization       =     3.00 Bohr mag/cell
     absolute magnetization    =     3.00 Bohr mag/cell

     iteration # 14     ecut=   360.00 Ry     beta= 0.70
     Davidson diagonalization with overlap
     ethr =  8.67E-06,  avg # of iterations =  6.5

     negative rho (up, down):  4.206E-06 2.721E-01

     total cpu time spent up to now is      114.7 secs

     total energy              =     -10.93286147 Ry
     Harris-Foulkes estimate   =     -10.93288322 Ry
     estimated scf accuracy    <       0.00021004 Ry

     total magnetization       =     3.00 Bohr mag/cell
     absolute magnetization    =     3.00 Bohr mag/cell

     iteration # 15     ecut=   360.00 Ry     beta= 0.70
     Davidson diagonalization with overlap
     ethr =  4.20E-06,  avg # of iterations =  4.0

     negative rho (up, down):  3.116E-06 2.802E-01

     total cpu time spent up to now is      121.0 secs

     total energy              =     -10.93285355 Ry
     Harris-Foulkes estimate   =     -10.93286895 Ry
     estimated scf accuracy    <       0.00014311 Ry

     total magnetization       =     3.00 Bohr mag/cell
     absolute magnetization    =     3.00 Bohr mag/cell

     iteration # 16     ecut=   360.00 Ry     beta= 0.70
     Davidson diagonalization with overlap
     ethr =  2.86E-06,  avg # of iterations =  1.0

     negative rho (up, down):  2.359E-06 2.778E-01

     total cpu time spent up to now is      126.7 secs

     total energy              =     -10.93284335 Ry
     Harris-Foulkes estimate   =     -10.93285753 Ry
     estimated scf accuracy    <       0.00010502 Ry

     total magnetization       =     3.00 Bohr mag/cell
     absolute magnetization    =     3.00 Bohr mag/cell

     iteration # 17     ecut=   360.00 Ry     beta= 0.70
     Davidson diagonalization with overlap
     c_bands:  1 eigenvalues not converged
     ethr =  2.10E-06,  avg # of iterations = 13.0

     negative rho (up, down):  2.500E-06 2.779E-01

     total cpu time spent up to now is      135.3 secs

     total energy              =     -10.93284949 Ry
     Harris-Foulkes estimate   =     -10.93284813 Ry
     estimated scf accuracy    <       0.00006586 Ry

     total magnetization       =     3.00 Bohr mag/cell
     absolute magnetization    =     3.00 Bohr mag/cell

     iteration # 18     ecut=   360.00 Ry     beta= 0.70
     Davidson diagonalization with overlap
     ethr =  1.32E-06,  avg # of iterations =  3.5

     negative rho (up, down):  1.570E-06 2.542E-01

     total cpu time spent up to now is      141.4 secs

     total energy              =     -10.93284489 Ry
     Harris-Foulkes estimate   =     -10.93285081 Ry
     estimated scf accuracy    <       0.00006499 Ry

     total magnetization       =     3.00 Bohr mag/cell
     absolute magnetization    =     3.00 Bohr mag/cell

     iteration # 19     ecut=   360.00 Ry     beta= 0.70
     Davidson diagonalization with overlap
     ethr =  1.30E-06,  avg # of iterations =  1.0

     negative rho (up, down):  9.971E-07 2.959E-01

     total cpu time spent up to now is      147.1 secs

     total energy              =     -10.93283829 Ry
     Harris-Foulkes estimate   =     -10.93284585 Ry
     estimated scf accuracy    <       0.00004906 Ry

     total magnetization       =     3.00 Bohr mag/cell
     absolute magnetization    =     3.00 Bohr mag/cell

     iteration # 20     ecut=   360.00 Ry     beta= 0.70
     Davidson diagonalization with overlap
     ethr =  9.81E-07,  avg # of iterations =  1.0

     negative rho (up, down):  3.752E-07 3.092E-01

     total cpu time spent up to now is      152.7 secs

     total energy              =     -10.93282426 Ry
     Harris-Foulkes estimate   =     -10.93283940 Ry
     estimated scf accuracy    <       0.00002813 Ry

     total magnetization       =     3.00 Bohr mag/cell
     absolute magnetization    =     3.00 Bohr mag/cell

     iteration # 21     ecut=   360.00 Ry     beta= 0.70
     Davidson diagonalization with overlap
     ethr =  5.63E-07,  avg # of iterations =  3.5

     negative rho (up, down):  0.000E+00 2.780E-05
 
     Magnetic moment per site:
     atom:    1    charge:    4.9997    magn:    2.9997    constr:    0.0000

     total cpu time spent up to now is      158.4 secs

     End of self-consistent calculation

 ------ SPIN UP ------------


          k = 0.0000 0.0000 0.0000 (672697 PWs)   bands (ev):

   -15.0831  -5.1899  -5.1898  -5.1896  -0.6665   0.5911   0.5922   0.6741
     0.6815   0.6871   1.0988   1.1013

     occupation numbers 
     1.0000   1.0000   1.0000   1.0000   0.0000   0.0000   0.0000   0.0000
     0.0000   0.0000   0.0000   0.0000

 ------ SPIN DOWN ----------


          k = 0.0000 0.0000 0.0000 (672697 PWs)   bands (ev):

   -13.2467  -2.9139  -2.9137  -2.9126   0.0073   1.0491   1.0496   1.1156
     1.1733   1.1749   1.1776   1.9462

     occupation numbers 
     1.0000   0.0000   0.0000   0.0000   0.0000   0.0000   0.0000   0.0000
     0.0000   0.0000   0.0000   0.0000

     highest occupied, lowest unoccupied level (ev):    -5.1896   -2.9139

!    total energy              =     -10.93282971 Ry
     Harris-Foulkes estimate   =     -10.93283015 Ry
     estimated scf accuracy    <       0.00000029 Ry

     The total energy is the sum of the following terms:

     one-electron contribution =     -10.52190848 Ry
     hartree contribution      =       5.34504502 Ry
     xc contribution           =      -2.62798050 Ry
     ewald contribution        =      -3.12798575 Ry

     total magnetization       =     3.00 Bohr mag/cell
     absolute magnetization    =     3.00 Bohr mag/cell

     convergence has been achieved in  21 iterations

     Writing output data file pwscf.save/
 
     init_run     :      6.29s CPU      6.65s WALL (       1 calls)
     electrons    :    149.56s CPU    152.35s WALL (       1 calls)

     Called by init_run:
     wfcinit      :      1.08s CPU      1.17s WALL (       1 calls)
     wfcinit:atom :      0.01s CPU      0.02s WALL (       2 calls)
     wfcinit:wfcr :      1.05s CPU      1.12s WALL (       2 calls)
     potinit      :      1.81s CPU      1.94s WALL (       1 calls)
     hinit0       :      0.16s CPU      0.26s WALL (       1 calls)

     Called by electrons:
     c_bands      :     81.66s CPU     82.70s WALL (      22 calls)
     sum_band     :     22.74s CPU     22.83s WALL (      22 calls)
     v_of_rho     :     33.83s CPU     34.93s WALL (      22 calls)
     v_h          :      2.63s CPU      2.66s WALL (      22 calls)
     v_xc         :     31.20s CPU     32.27s WALL (      22 calls)
     mix_rho      :     11.59s CPU     11.76s WALL (      22 calls)

     Called by c_bands:
     init_us_2    :      0.43s CPU      0.44s WALL (      90 calls)
     regterg      :     80.92s CPU     81.94s WALL (      44 calls)

     Called by sum_band:

     Called by *egterg:
     h_psi        :     73.99s CPU     74.27s WALL (     269 calls)
     g_psi        :      0.24s CPU      0.24s WALL (     223 calls)
     rdiaghg      :      0.26s CPU      0.28s WALL (     265 calls)
     regterg:over :      1.92s CPU      1.93s WALL (     223 calls)
     regterg:upda :      3.36s CPU      3.39s WALL (     223 calls)
     regterg:last :      1.07s CPU      1.07s WALL (      56 calls)
     rdiaghg:chol :      0.03s CPU      0.05s WALL (     265 calls)
     rdiaghg:inve :      0.01s CPU      0.01s WALL (     265 calls)
     rdiaghg:para :      0.03s CPU      0.03s WALL (     530 calls)

     Called by h_psi:
     h_psi:pot    :     73.54s CPU     73.81s WALL (     269 calls)
     h_psi:calbec :      0.42s CPU      0.44s WALL (     269 calls)
     vloc_psi     :     72.62s CPU     72.86s WALL (     269 calls)
     add_vuspsi   :      0.50s CPU      0.51s WALL (     269 calls)

     General routines
     calbec       :      0.42s CPU      0.44s WALL (     269 calls)
     fft          :     29.68s CPU     30.02s WALL (     328 calls)
     ffts         :      3.31s CPU      3.32s WALL (      44 calls)
     fftw         :     68.24s CPU     68.50s WALL (    2008 calls)
 
     Parallel routines
     fft_scatt_xy :     18.58s CPU     18.64s WALL (    2380 calls)
     fft_scatt_yz :     33.55s CPU     33.90s WALL (    2380 calls)
 
     PWSCF        :   2m36.25s CPU   2m40.82s WALL

 
   This run was terminated on:  15:23:14  17Jan2022            

=------------------------------------------------------------------------------=
   JOB DONE.
=------------------------------------------------------------------------------=
