
 Primary working directories    : /global/cscratch1/sd/haihan
 Secondary working directories  : /global/cscratch1/sd/haihan
 Wavefunction directory         : /global/homes/h/haihan/wfu/
 Main file repository           : /global/cscratch1/sd/haihan/

 SHA1      : 19cd028119e0e09f93f0674bd8af7968d9b3eff6
 NAME      : 2015.1.36
 ARCHNAME  : linux/x86_64
 FC        : /opt/cray/pe/craype/2.5.14/bin/ftn
 BLASLIB   : -L/opt/intel/compilers_and_libraries_2018.1.163/linux/mkl/lib/intel64 -Wl,-_start-group -lmkl_intel_ilp64 -lmkl_intel_thread -lmkl_core -Wl,-_end-group -liomp5
 id        : lbl

 Nodes     nprocs
 nid00748    15
 Number of processes for MPI-2 version of Molpro:   nprocs(total)=   16   nprocs(compute)=   15   nprocs(helper)=    1

 Using customized tuning parameters: mindgm=7; mindgv=16; mindgc=1; mindgr=1; noblas=0; minvec=7
 default implementation of scratch files=sf  

 ***,Mo
 memory,512,m
 
 gthresh,twoint=1.e-12
 gprint,basis,orbitals
 
 angstrom
 geometry={
 1                                                                               ! Number of atoms
 Mo 0.0 0.0 0.0
 }
 
 basis={
 Including file /global/u2/h/haihan/Research/HZECP/Mo/basis/Mo/check_linear/ecp.molpro
 Including file /global/u2/h/haihan/Research/HZECP/Mo/basis/Mo/check_linear/basis.molpro
 }
 
 {rhf
  start,atden
  wf,14,1,6
  occ,4,1,1,1,1,1,1,0
  closed,1,1,1,0,1,0,0,0
  sym,1,1,3,2,1
  restrict,1,1,4.1
  orbital,4202.2
 }
 pop
 {multi
  start,4202.2
  occ,4,1,1,1,1,1,1,0
  closed,1,1,1,0,1,0,0,0
  wf,14,1,6;state,1
  restrict,1,1,4.1
  natorb,ci,print
  orbital,5202.2
 }
 {rhf,nitord=1,maxit=0
  start,5202.2
  wf,14,1,6
  occ,4,1,1,1,1,1,1,0
  closed,1,1,1,0,1,0,0,0
  sym,1,1,3,2,1
  restrict,1,1,4.1
  print,orbitals=2
 }
 
  {uccsd(t);maxit,100;core
 }
 

 Variables initialized (889), CPU time= 0.01 sec
 Commands  initialized (702), CPU time= 0.01 sec, 572 directives.
 Default parameters read. Elapsed time= 0.23 sec

 Checking input...
 Passed
1


                                         ***  PROGRAM SYSTEM MOLPRO  ***
                                       Copyright, TTI GmbH Stuttgart, 2015
                                    Version 2015.1 linked Dec 29 2018 15:55:43


 **********************************************************************************************************************************
 LABEL *   Mo                                                                            
  64 bit mpp version                                                                     DATE: 09-Dec-21          TIME: 13:44:13  
 **********************************************************************************************************************************

 SHA1:             19cd028119e0e09f93f0674bd8af7968d9b3eff6
 **********************************************************************************************************************************

 THRESHOLDS:

 ZERO    =  1.00D-12  ONEINT  =  1.00D-12  TWOINT  =  1.00D-12  PREFAC  =  1.00D-14  LOCALI  =  1.00D-09  EORDER  =  1.00D-04
 ENERGY  =  0.00D+00  ETEST   =  0.00D+00  EDENS   =  0.00D+00  THRDEDEF=  1.00D-06  GRADIENT=  1.00D-02  STEP    =  1.00D-03
 ORBITAL =  1.00D-05  CIVEC   =  1.00D-05  COEFF   =  1.00D-04  PRINTCI =  5.00D-02  PUNCHCI =  9.90D+01  OPTGRAD =  3.00D-04
 OPTENERG=  1.00D-06  OPTSTEP =  3.00D-04  THRGRAD =  1.00D-10  COMPRESS=  1.00D-11  VARMIN  =  1.00D-07  VARMAX  =  1.00D-03
 THRDOUB =  0.00D+00  THRDIV  =  1.00D-05  THRRED  =  1.00D-07  THRPSP  =  1.00D+00  THRDC   =  1.00D-10  THRCS   =  1.00D-10
 THRNRM  =  1.00D-08  THREQ   =  0.00D+00  THRDE   =  1.00D+00  THRREF  =  1.00D-05  SPARFAC =  1.00D+00  THRDLP  =  1.00D-07
 THRDIA  =  1.00D-10  THRDLS  =  1.00D-07  THRGPS  =  0.00D+00  THRKEX  =  0.00D+00  THRDIS  =  2.00D-01  THRVAR  =  1.00D-10
 THRLOC  =  1.00D-06  THRGAP  =  1.00D-06  THRLOCT = -1.00D+00  THRGAPT = -1.00D+00  THRORB  =  1.00D-06  THRMLTP =  0.00D+00
 THRCPQCI=  1.00D-10  KEXTA   =  0.00D+00  THRCOARS=  0.00D+00  SYMTOL  =  1.00D-06  GRADTOL =  1.00D-06  THROVL  =  1.00D-08
 THRORTH =  1.00D-08  GRID    =  1.00D-06  GRIDMAX =  1.00D-03  DTMAX   =  0.00D+00  THROCCDE=  1.00D-01  THROCCDE=  1.00D-01



 ZUNIT=ANG
 

Geometry recognized as XYZ


 Variable memory set to  512000000 words,  buffer space   230000 words

 SETTING BASIS          =    USERDEF


 Recomputing integrals since basis changed


 Using spherical harmonics



 PROGRAM * SEWARD (Integral evaluation for generally contracted gaussian basis sets)     Author: Roland Lindh, 1990

 Geometry written to block  1 of record 700

 Orientation using atomic masses  
 Molecule type: Atom
 Symmetry elements: X,Y,Z
 Rotational constants:       0.0000000      0.0000000      0.0000000 GHz  (calculated with average atomic masses)

 Point group  D2h 



 ATOMIC COORDINATES

 NR  ATOM    CHARGE       X              Y              Z

   1  MO     14.00    0.000000000    0.000000000    0.000000000


          MO  CORE POTENTIAL

          f POTENTIAL

 POWERS             1              3              2              2
 EXPONENTIALS   10.99353       11.01508       10.36534       6.281056    
 COEFFICIENTS   14.00000       153.9094      -91.43431      -16.94573    

          s - f POTENTIAL

 POWERS             2              2              2
 EXPONENTIALS   10.07938       4.386730       6.321328    
 COEFFICIENTS   180.0893       24.72363       16.96139    

          p - f POTENTIAL

 POWERS             2              2              2
 EXPONENTIALS   9.027487       3.910532       6.340373    
 COEFFICIENTS   123.6809       18.78431       16.93334    

          d - f POTENTIAL

 POWERS             2              2              2
 EXPONENTIALS   7.378964       2.774830       6.390417    
 COEFFICIENTS   48.28919       7.940102       16.93215    


 BASIS DATA

   Nr Sym  Nuc  Type         Exponents   Contraction coefficients

    1.1 Ag    1  1s          69.256405    -0.000019    0.000003   -0.000072   -0.000454   -0.002477    0.018920
                                           0.000000
    2.1 Ag                   36.439356     0.001566   -0.000430   -0.000488    0.001112    0.011335   -0.101659
                                           0.000000
    3.1 Ag                   19.172619    -0.028400    0.008527    0.017400    0.022079    0.001476    0.367823
                                           0.000000
    4.1 Ag                   10.087701     0.209329   -0.066553   -0.147523   -0.234779   -0.284680   -1.356908
                                           0.000000
    5.1 Ag                    5.307658    -0.374473    0.129519    0.300343    0.518803    0.733548    3.507184
                                           0.000000
    6.1 Ag                    2.792632    -0.425216    0.133264    0.328314    0.714395    1.628877   -2.665583
                                           0.000000
    7.1 Ag                    1.469347     0.424867   -0.157887   -0.487559   -1.846476   -7.041320   -6.564886
                                           0.000000
                              0.773099     0.676129   -0.319833   -1.076705   -1.796154    6.671716   18.473364
                                           0.000000
                              0.406767     0.310600   -0.229575   -0.076225    4.372657    1.499868  -23.300550
                                           0.000000
                              0.214021     0.025503   -0.022854    1.649122   -0.434280   -7.958268   17.600401
                                           0.000000
                              0.112608     0.004380    0.401381    0.511357   -2.676955    5.823389   -6.524601
                                           0.000000
                              0.059249    -0.004375    0.458608   -0.618570    0.444245   -0.180956   -1.032351
                                           0.000000
                              0.031174    -0.001251    0.353669   -0.664542    0.970937   -1.219186    1.548470
                                           1.000000
    8.1 Ag    1  1s           0.012470     1.000000
    9.1 Ag    1  1s           0.867592     1.000000
   10.1 Ag    1  1s           1.092873     1.000000
   11.1 Ag    1  3d0         67.297671     0.000088
                             35.419488    -0.000427
                             18.641658     0.002143
                              9.811305    -0.002314
                              5.163795    -0.015767
                              2.717761     0.056271
                              1.430387     0.203165
                              0.752828     0.299890
                              0.396221     0.299775
                              0.208536     0.232455
                              0.109755     0.127672
                              0.057765     0.038964
                              0.030402     0.003430
   12.1 Ag    1  3d2+        67.297671     0.000088
                             35.419488    -0.000427
                             18.641658     0.002143
                              9.811305    -0.002314
                              5.163795    -0.015767
                              2.717761     0.056271
                              1.430387     0.203165
                              0.752828     0.299890
                              0.396221     0.299775
                              0.208536     0.232455
                              0.109755     0.127672
                              0.057765     0.038964
                              0.030402     0.003430
   13.1 Ag    1  3d0         67.297671    -0.000116
                             35.419488     0.000565
                             18.641658    -0.002949
                              9.811305     0.003632
                              5.163795     0.020398
                              2.717761    -0.091207
                              1.430387    -0.319761
                              0.752828    -0.384649
                              0.396221    -0.032169
                              0.208536     0.392896
                              0.109755     0.404265
                              0.057765     0.166215
                              0.030402     0.021087
   14.1 Ag    1  3d2+        67.297671    -0.000116
                             35.419488     0.000565
                             18.641658    -0.002949
                              9.811305     0.003632
                              5.163795     0.020398
                              2.717761    -0.091207
                              1.430387    -0.319761
                              0.752828    -0.384649
                              0.396221    -0.032169
                              0.208536     0.392896
                              0.109755     0.404265
                              0.057765     0.166215
                              0.030402     0.021087
   15.1 Ag    1  3d0         67.297671    -0.000173
                             35.419488     0.000846
                             18.641658    -0.004528
                              9.811305     0.006114
                              5.163795     0.032626
                              2.717761    -0.179375
                              1.430387    -0.628235
                              0.752828    -0.082344
                              0.396221     0.920012
                              0.208536     0.254355
                              0.109755    -0.533406
                              0.057765    -0.344247
                              0.030402    -0.048462
   16.1 Ag    1  3d2+        67.297671    -0.000173
                             35.419488     0.000846
                             18.641658    -0.004528
                              9.811305     0.006114
                              5.163795     0.032626
                              2.717761    -0.179375
                              1.430387    -0.628235
                              0.752828    -0.082344
                              0.396221     0.920012
                              0.208536     0.254355
                              0.109755    -0.533406
                              0.057765    -0.344247
                              0.030402    -0.048462
   17.1 Ag    1  3d0         67.297671     0.000092
                             35.419488    -0.000289
                             18.641658    -0.002757
                              9.811305     0.000629
                              5.163795     0.080236
                              2.717761    -0.507444
                              1.430387    -0.866181
                              0.752828     1.619420
                              0.396221     0.104623
                              0.208536    -1.407246
                              0.109755     0.374624
                              0.057765     0.494776
                              0.030402     0.091100
   18.1 Ag    1  3d2+        67.297671     0.000092
                             35.419488    -0.000289
                             18.641658    -0.002757
                              9.811305     0.000629
                              5.163795     0.080236
                              2.717761    -0.507444
                              1.430387    -0.866181
                              0.752828     1.619420
                              0.396221     0.104623
                              0.208536    -1.407246
                              0.109755     0.374624
                              0.057765     0.494776
                              0.030402     0.091100
   19.1 Ag    1  3d0         67.297671     0.002645
                             35.419488    -0.011603
                             18.641658     0.027543
                              9.811305    -0.073005
                              5.163795     0.311574
                              2.717761    -1.589965
                              1.430387     0.912201
                              0.752828     1.824126
                              0.396221    -3.393886
                              0.208536     2.115963
                              0.109755     0.151697
                              0.057765    -0.621367
                              0.030402    -0.163399
   20.1 Ag    1  3d2+        67.297671     0.002645
                             35.419488    -0.011603
                             18.641658     0.027543
                              9.811305    -0.073005
                              5.163795     0.311574
                              2.717761    -1.589965
                              1.430387     0.912201
                              0.752828     1.824126
                              0.396221    -3.393886
                              0.208536     2.115963
                              0.109755     0.151697
                              0.057765    -0.621367
                              0.030402    -0.163399
   21.1 Ag    1  3d0         67.297671     0.000000
                             35.419488     0.000000
                             18.641658     0.000000
                              9.811305     0.000000
                              5.163795     0.000000
                              2.717761     0.000000
                              1.430387     0.000000
                              0.752828     0.000000
                              0.396221     0.000000
                              0.208536     0.000000
                              0.109755     0.000000
                              0.057765     0.000000
                              0.030402     1.000000
   22.1 Ag    1  3d2+        67.297671     0.000000
                             35.419488     0.000000
                             18.641658     0.000000
                              9.811305     0.000000
                              5.163795     0.000000
                              2.717761     0.000000
                              1.430387     0.000000
                              0.752828     0.000000
                              0.396221     0.000000
                              0.208536     0.000000
                              0.109755     0.000000
                              0.057765     0.000000
                              0.030402     1.000000
   23.1 Ag    1  3d0          0.012161     1.000000
   24.1 Ag    1  3d2+         0.012161     1.000000
   25.1 Ag    1  3d0          3.680198     1.000000
   26.1 Ag    1  3d2+         3.680198     1.000000
   27.1 Ag    1  3d0          1.540724     1.000000
   28.1 Ag    1  3d2+         1.540724     1.000000
   29.1 Ag    1  5g0          2.611560     1.000000
   30.1 Ag    1  5g4+         2.611560     1.000000
   31.1 Ag    1  5g2+         2.611560     1.000000
   32.1 Ag    1  5g0          1.184929     1.000000
   33.1 Ag    1  5g4+         1.184929     1.000000
   34.1 Ag    1  5g2+         1.184929     1.000000
   35.1 Ag    1  5g0          0.537631     1.000000
   36.1 Ag    1  5g4+         0.537631     1.000000
   37.1 Ag    1  5g2+         0.537631     1.000000
   38.1 Ag    1  5g0          0.215052     1.000000
   39.1 Ag    1  5g4+         0.215052     1.000000
   40.1 Ag    1  5g2+         0.215052     1.000000
   41.1 Ag    1  5g0          2.713152     1.000000
   42.1 Ag    1  5g4+         2.713152     1.000000
   43.1 Ag    1  5g2+         2.713152     1.000000
   44.1 Ag    1  7i6+         2.024098     1.000000
   45.1 Ag    1  7i4+         2.024098     1.000000
   46.1 Ag    1  7i2+         2.024098     1.000000
   47.1 Ag    1  7i0          2.024098     1.000000
   48.1 Ag    1  7i6+         0.809639     1.000000
   49.1 Ag    1  7i4+         0.809639     1.000000
   50.1 Ag    1  7i2+         0.809639     1.000000
   51.1 Ag    1  7i0          0.809639     1.000000
   52.1 Ag    1  7i6+         2.624015     1.000000
   53.1 Ag    1  7i4+         2.624015     1.000000
   54.1 Ag    1  7i2+         2.624015     1.000000
   55.1 Ag    1  7i0          2.624015     1.000000
    1.2 B3u   1  2px         77.150367     0.000003   -0.000012    0.000038   -0.000560    0.000047    0.017471
                                           0.000000
    2.2 B3u                  40.594908     0.000075    0.000018   -0.000142    0.002616   -0.000375   -0.083904
                                           0.000000
    3.2 B3u                  21.360190    -0.002401    0.001168   -0.001183   -0.005256    0.005296    0.253935
                                           0.000000
    4.2 B3u                  11.239285     0.035359   -0.021143    0.028673   -0.026721   -0.079478   -0.724315
                                           0.000000
    5.2 B3u                   5.913876    -0.141836    0.091995   -0.134756    0.167775    0.394371    2.035429
                                           0.000000
    6.2 B3u                   3.111758    -0.082811    0.047665   -0.061086    0.261337    0.143543   -3.159155
                                           0.000000
    7.2 B3u                   1.637342     0.327357   -0.248952    0.496626   -1.452417   -3.342303    0.140270
                                           0.000000
                              0.861535     0.474165   -0.430199    0.572118   -0.146436    4.899579    5.706807
                                           0.000000
                              0.453322     0.300669   -0.106808   -0.621235    2.634034   -1.790954   -9.879401
                                           0.000000
                              0.238528     0.076103    0.519713   -0.939479   -1.499901   -2.569242    9.558984
                                           0.000000
                              0.125509     0.010565    0.525571    0.285982   -1.091350    3.390683   -5.323258
                                           0.000000
                              0.066040     0.000312    0.149464    0.716320    0.865530   -0.925084    0.764577
                                           0.000000
                              0.034749     0.000334    0.008371    0.222142    0.400963   -0.530231    0.678331
                                           1.000000
    8.2 B3u   1  2px          0.013900     1.000000
    9.2 B3u   1  2px          1.985568     1.000000
   10.2 B3u   1  2px          2.380795     1.000000
   11.2 B3u   1  4f1+         3.217544     1.000000
   12.2 B3u   1  4f3+         3.217544     1.000000
   13.2 B3u   1  4f1+         1.345583     1.000000
   14.2 B3u   1  4f3+         1.345583     1.000000
   15.2 B3u   1  4f1+         0.562726     1.000000
   16.2 B3u   1  4f3+         0.562726     1.000000
   17.2 B3u   1  4f1+         0.235333     1.000000
   18.2 B3u   1  4f3+         0.235333     1.000000
   19.2 B3u   1  4f1+         0.094133     1.000000
   20.2 B3u   1  4f3+         0.094133     1.000000
   21.2 B3u   1  4f1+         2.362400     1.000000
   22.2 B3u   1  4f3+         2.362400     1.000000
   23.2 B3u   1  6h1+         2.389940     1.000000
   24.2 B3u   1  6h3+         2.389940     1.000000
   25.2 B3u   1  6h5+         2.389940     1.000000
   26.2 B3u   1  6h1+         1.006941     1.000000
   27.2 B3u   1  6h3+         1.006941     1.000000
   28.2 B3u   1  6h5+         1.006941     1.000000
   29.2 B3u   1  6h1+         0.402776     1.000000
   30.2 B3u   1  6h3+         0.402776     1.000000
   31.2 B3u   1  6h5+         0.402776     1.000000
   32.2 B3u   1  6h1+         2.801486     1.000000
   33.2 B3u   1  6h3+         2.801486     1.000000
   34.2 B3u   1  6h5+         2.801486     1.000000
    1.3 B2u   1  2py         77.150367     0.000003   -0.000012    0.000038   -0.000560    0.000047    0.017471
                                           0.000000
    2.3 B2u                  40.594908     0.000075    0.000018   -0.000142    0.002616   -0.000375   -0.083904
                                           0.000000
    3.3 B2u                  21.360190    -0.002401    0.001168   -0.001183   -0.005256    0.005296    0.253935
                                           0.000000
    4.3 B2u                  11.239285     0.035359   -0.021143    0.028673   -0.026721   -0.079478   -0.724315
                                           0.000000
    5.3 B2u                   5.913876    -0.141836    0.091995   -0.134756    0.167775    0.394371    2.035429
                                           0.000000
    6.3 B2u                   3.111758    -0.082811    0.047665   -0.061086    0.261337    0.143543   -3.159155
                                           0.000000
    7.3 B2u                   1.637342     0.327357   -0.248952    0.496626   -1.452417   -3.342303    0.140270
                                           0.000000
                              0.861535     0.474165   -0.430199    0.572118   -0.146436    4.899579    5.706807
                                           0.000000
                              0.453322     0.300669   -0.106808   -0.621235    2.634034   -1.790954   -9.879401
                                           0.000000
                              0.238528     0.076103    0.519713   -0.939479   -1.499901   -2.569242    9.558984
                                           0.000000
                              0.125509     0.010565    0.525571    0.285982   -1.091350    3.390683   -5.323258
                                           0.000000
                              0.066040     0.000312    0.149464    0.716320    0.865530   -0.925084    0.764577
                                           0.000000
                              0.034749     0.000334    0.008371    0.222142    0.400963   -0.530231    0.678331
                                           1.000000
    8.3 B2u   1  2py          0.013900     1.000000
    9.3 B2u   1  2py          1.985568     1.000000
   10.3 B2u   1  2py          2.380795     1.000000
   11.3 B2u   1  4f1-         3.217544     1.000000
   12.3 B2u   1  4f3-         3.217544     1.000000
   13.3 B2u   1  4f1-         1.345583     1.000000
   14.3 B2u   1  4f3-         1.345583     1.000000
   15.3 B2u   1  4f1-         0.562726     1.000000
   16.3 B2u   1  4f3-         0.562726     1.000000
   17.3 B2u   1  4f1-         0.235333     1.000000
   18.3 B2u   1  4f3-         0.235333     1.000000
   19.3 B2u   1  4f1-         0.094133     1.000000
   20.3 B2u   1  4f3-         0.094133     1.000000
   21.3 B2u   1  4f1-         2.362400     1.000000
   22.3 B2u   1  4f3-         2.362400     1.000000
   23.3 B2u   1  6h1-         2.389940     1.000000
   24.3 B2u   1  6h3-         2.389940     1.000000
   25.3 B2u   1  6h5-         2.389940     1.000000
   26.3 B2u   1  6h1-         1.006941     1.000000
   27.3 B2u   1  6h3-         1.006941     1.000000
   28.3 B2u   1  6h5-         1.006941     1.000000
   29.3 B2u   1  6h1-         0.402776     1.000000
   30.3 B2u   1  6h3-         0.402776     1.000000
   31.3 B2u   1  6h5-         0.402776     1.000000
   32.3 B2u   1  6h1-         2.801486     1.000000
   33.3 B2u   1  6h3-         2.801486     1.000000
   34.3 B2u   1  6h5-         2.801486     1.000000
    1.4 B1g   1  3d2-        67.297671     0.000088   -0.000116   -0.000173    0.000092    0.002645    0.000000
    2.4 B1g                  35.419488    -0.000427    0.000565    0.000846   -0.000289   -0.011603    0.000000
    3.4 B1g                  18.641658     0.002143   -0.002949   -0.004528   -0.002757    0.027543    0.000000
    4.4 B1g                   9.811305    -0.002314    0.003632    0.006114    0.000629   -0.073005    0.000000
    5.4 B1g                   5.163795    -0.015767    0.020398    0.032626    0.080236    0.311574    0.000000
    6.4 B1g                   2.717761     0.056271   -0.091207   -0.179375   -0.507444   -1.589965    0.000000
                              1.430387     0.203165   -0.319761   -0.628235   -0.866181    0.912201    0.000000
                              0.752828     0.299890   -0.384649   -0.082344    1.619420    1.824126    0.000000
                              0.396221     0.299775   -0.032169    0.920012    0.104623   -3.393886    0.000000
                              0.208536     0.232455    0.392896    0.254355   -1.407246    2.115963    0.000000
                              0.109755     0.127672    0.404265   -0.533406    0.374624    0.151697    0.000000
                              0.057765     0.038964    0.166215   -0.344247    0.494776   -0.621367    0.000000
                              0.030402     0.003430    0.021087   -0.048462    0.091100   -0.163399    1.000000
    7.4 B1g   1  3d2-         0.012161     1.000000
    8.4 B1g   1  3d2-         3.680198     1.000000
    9.4 B1g   1  3d2-         1.540724     1.000000
   10.4 B1g   1  5g2-         2.611560     1.000000
   11.4 B1g   1  5g4-         2.611560     1.000000
   12.4 B1g   1  5g2-         1.184929     1.000000
   13.4 B1g   1  5g4-         1.184929     1.000000
   14.4 B1g   1  5g2-         0.537631     1.000000
   15.4 B1g   1  5g4-         0.537631     1.000000
   16.4 B1g   1  5g2-         0.215052     1.000000
   17.4 B1g   1  5g4-         0.215052     1.000000
   18.4 B1g   1  5g2-         2.713152     1.000000
   19.4 B1g   1  5g4-         2.713152     1.000000
   20.4 B1g   1  7i2-         2.024098     1.000000
   21.4 B1g   1  7i6-         2.024098     1.000000
   22.4 B1g   1  7i4-         2.024098     1.000000
   23.4 B1g   1  7i2-         0.809639     1.000000
   24.4 B1g   1  7i6-         0.809639     1.000000
   25.4 B1g   1  7i4-         0.809639     1.000000
   26.4 B1g   1  7i2-         2.624015     1.000000
   27.4 B1g   1  7i6-         2.624015     1.000000
   28.4 B1g   1  7i4-         2.624015     1.000000
    1.5 B1u   1  2pz         77.150367     0.000003   -0.000012    0.000038   -0.000560    0.000047    0.017471
                                           0.000000
    2.5 B1u                  40.594908     0.000075    0.000018   -0.000142    0.002616   -0.000375   -0.083904
                                           0.000000
    3.5 B1u                  21.360190    -0.002401    0.001168   -0.001183   -0.005256    0.005296    0.253935
                                           0.000000
    4.5 B1u                  11.239285     0.035359   -0.021143    0.028673   -0.026721   -0.079478   -0.724315
                                           0.000000
    5.5 B1u                   5.913876    -0.141836    0.091995   -0.134756    0.167775    0.394371    2.035429
                                           0.000000
    6.5 B1u                   3.111758    -0.082811    0.047665   -0.061086    0.261337    0.143543   -3.159155
                                           0.000000
    7.5 B1u                   1.637342     0.327357   -0.248952    0.496626   -1.452417   -3.342303    0.140270
                                           0.000000
                              0.861535     0.474165   -0.430199    0.572118   -0.146436    4.899579    5.706807
                                           0.000000
                              0.453322     0.300669   -0.106808   -0.621235    2.634034   -1.790954   -9.879401
                                           0.000000
                              0.238528     0.076103    0.519713   -0.939479   -1.499901   -2.569242    9.558984
                                           0.000000
                              0.125509     0.010565    0.525571    0.285982   -1.091350    3.390683   -5.323258
                                           0.000000
                              0.066040     0.000312    0.149464    0.716320    0.865530   -0.925084    0.764577
                                           0.000000
                              0.034749     0.000334    0.008371    0.222142    0.400963   -0.530231    0.678331
                                           1.000000
    8.5 B1u   1  2pz          0.013900     1.000000
    9.5 B1u   1  2pz          1.985568     1.000000
   10.5 B1u   1  2pz          2.380795     1.000000
   11.5 B1u   1  4f0          3.217544     1.000000
   12.5 B1u   1  4f2+         3.217544     1.000000
   13.5 B1u   1  4f0          1.345583     1.000000
   14.5 B1u   1  4f2+         1.345583     1.000000
   15.5 B1u   1  4f0          0.562726     1.000000
   16.5 B1u   1  4f2+         0.562726     1.000000
   17.5 B1u   1  4f0          0.235333     1.000000
   18.5 B1u   1  4f2+         0.235333     1.000000
   19.5 B1u   1  4f0          0.094133     1.000000
   20.5 B1u   1  4f2+         0.094133     1.000000
   21.5 B1u   1  4f0          2.362400     1.000000
   22.5 B1u   1  4f2+         2.362400     1.000000
   23.5 B1u   1  6h2+         2.389940     1.000000
   24.5 B1u   1  6h4+         2.389940     1.000000
   25.5 B1u   1  6h0          2.389940     1.000000
   26.5 B1u   1  6h2+         1.006941     1.000000
   27.5 B1u   1  6h4+         1.006941     1.000000
   28.5 B1u   1  6h0          1.006941     1.000000
   29.5 B1u   1  6h2+         0.402776     1.000000
   30.5 B1u   1  6h4+         0.402776     1.000000
   31.5 B1u   1  6h0          0.402776     1.000000
   32.5 B1u   1  6h2+         2.801486     1.000000
   33.5 B1u   1  6h4+         2.801486     1.000000
   34.5 B1u   1  6h0          2.801486     1.000000
    1.6 B2g   1  3d1+        67.297671     0.000088   -0.000116   -0.000173    0.000092    0.002645    0.000000
    2.6 B2g                  35.419488    -0.000427    0.000565    0.000846   -0.000289   -0.011603    0.000000
    3.6 B2g                  18.641658     0.002143   -0.002949   -0.004528   -0.002757    0.027543    0.000000
    4.6 B2g                   9.811305    -0.002314    0.003632    0.006114    0.000629   -0.073005    0.000000
    5.6 B2g                   5.163795    -0.015767    0.020398    0.032626    0.080236    0.311574    0.000000
    6.6 B2g                   2.717761     0.056271   -0.091207   -0.179375   -0.507444   -1.589965    0.000000
                              1.430387     0.203165   -0.319761   -0.628235   -0.866181    0.912201    0.000000
                              0.752828     0.299890   -0.384649   -0.082344    1.619420    1.824126    0.000000
                              0.396221     0.299775   -0.032169    0.920012    0.104623   -3.393886    0.000000
                              0.208536     0.232455    0.392896    0.254355   -1.407246    2.115963    0.000000
                              0.109755     0.127672    0.404265   -0.533406    0.374624    0.151697    0.000000
                              0.057765     0.038964    0.166215   -0.344247    0.494776   -0.621367    0.000000
                              0.030402     0.003430    0.021087   -0.048462    0.091100   -0.163399    1.000000
    7.6 B2g   1  3d1+         0.012161     1.000000
    8.6 B2g   1  3d1+         3.680198     1.000000
    9.6 B2g   1  3d1+         1.540724     1.000000
   10.6 B2g   1  5g1+         2.611560     1.000000
   11.6 B2g   1  5g3+         2.611560     1.000000
   12.6 B2g   1  5g1+         1.184929     1.000000
   13.6 B2g   1  5g3+         1.184929     1.000000
   14.6 B2g   1  5g1+         0.537631     1.000000
   15.6 B2g   1  5g3+         0.537631     1.000000
   16.6 B2g   1  5g1+         0.215052     1.000000
   17.6 B2g   1  5g3+         0.215052     1.000000
   18.6 B2g   1  5g1+         2.713152     1.000000
   19.6 B2g   1  5g3+         2.713152     1.000000
   20.6 B2g   1  7i5+         2.024098     1.000000
   21.6 B2g   1  7i3+         2.024098     1.000000
   22.6 B2g   1  7i1+         2.024098     1.000000
   23.6 B2g   1  7i5+         0.809639     1.000000
   24.6 B2g   1  7i3+         0.809639     1.000000
   25.6 B2g   1  7i1+         0.809639     1.000000
   26.6 B2g   1  7i5+         2.624015     1.000000
   27.6 B2g   1  7i3+         2.624015     1.000000
   28.6 B2g   1  7i1+         2.624015     1.000000
    1.7 B3g   1  3d1-        67.297671     0.000088   -0.000116   -0.000173    0.000092    0.002645    0.000000
    2.7 B3g                  35.419488    -0.000427    0.000565    0.000846   -0.000289   -0.011603    0.000000
    3.7 B3g                  18.641658     0.002143   -0.002949   -0.004528   -0.002757    0.027543    0.000000
    4.7 B3g                   9.811305    -0.002314    0.003632    0.006114    0.000629   -0.073005    0.000000
    5.7 B3g                   5.163795    -0.015767    0.020398    0.032626    0.080236    0.311574    0.000000
    6.7 B3g                   2.717761     0.056271   -0.091207   -0.179375   -0.507444   -1.589965    0.000000
                              1.430387     0.203165   -0.319761   -0.628235   -0.866181    0.912201    0.000000
                              0.752828     0.299890   -0.384649   -0.082344    1.619420    1.824126    0.000000
                              0.396221     0.299775   -0.032169    0.920012    0.104623   -3.393886    0.000000
                              0.208536     0.232455    0.392896    0.254355   -1.407246    2.115963    0.000000
                              0.109755     0.127672    0.404265   -0.533406    0.374624    0.151697    0.000000
                              0.057765     0.038964    0.166215   -0.344247    0.494776   -0.621367    0.000000
                              0.030402     0.003430    0.021087   -0.048462    0.091100   -0.163399    1.000000
    7.7 B3g   1  3d1-         0.012161     1.000000
    8.7 B3g   1  3d1-         3.680198     1.000000
    9.7 B3g   1  3d1-         1.540724     1.000000
   10.7 B3g   1  5g1-         2.611560     1.000000
   11.7 B3g   1  5g3-         2.611560     1.000000
   12.7 B3g   1  5g1-         1.184929     1.000000
   13.7 B3g   1  5g3-         1.184929     1.000000
   14.7 B3g   1  5g1-         0.537631     1.000000
   15.7 B3g   1  5g3-         0.537631     1.000000
   16.7 B3g   1  5g1-         0.215052     1.000000
   17.7 B3g   1  5g3-         0.215052     1.000000
   18.7 B3g   1  5g1-         2.713152     1.000000
   19.7 B3g   1  5g3-         2.713152     1.000000
   20.7 B3g   1  7i5-         2.024098     1.000000
   21.7 B3g   1  7i3-         2.024098     1.000000
   22.7 B3g   1  7i1-         2.024098     1.000000
   23.7 B3g   1  7i5-         0.809639     1.000000
   24.7 B3g   1  7i3-         0.809639     1.000000
   25.7 B3g   1  7i1-         0.809639     1.000000
   26.7 B3g   1  7i5-         2.624015     1.000000
   27.7 B3g   1  7i3-         2.624015     1.000000
   28.7 B3g   1  7i1-         2.624015     1.000000
    1.8 Au    1  4f2-         3.217544     1.000000
    2.8 Au    1  4f2-         1.345583     1.000000
    3.8 Au    1  4f2-         0.562726     1.000000
    4.8 Au    1  4f2-         0.235333     1.000000
    5.8 Au    1  4f2-         0.094133     1.000000
    6.8 Au    1  4f2-         2.362400     1.000000
    7.8 Au    1  6h4-         2.389940     1.000000
    8.8 Au    1  6h2-         2.389940     1.000000
    9.8 Au    1  6h4-         1.006941     1.000000
   10.8 Au    1  6h2-         1.006941     1.000000
   11.8 Au    1  6h4-         0.402776     1.000000
   12.8 Au    1  6h2-         0.402776     1.000000
   13.8 Au    1  6h4-         2.801486     1.000000
   14.8 Au    1  6h2-         2.801486     1.000000

 NUCLEAR CHARGE:                   14
 NUMBER OF PRIMITIVE AOS:         463
 NUMBER OF SYMMETRY AOS:          314
 NUMBER OF CONTRACTIONS:          255   (  55Ag  +  34B3u +  34B2u +  28B1g +  34B1u +  28B2g +  28B3g +  14Au  )
 NUMBER OF CORE ORBITALS:           4   (   1Ag  +   1B3u +   1B2u +   0B1g +   1B1u +   0B2g +   0B3g +   0Au  )
 NUMBER OF VALENCE ORBITALS:        6   (   3Ag  +   0B3u +   0B2u +   1B1g +   0B1u +   1B2g +   1B3g +   0Au  )


 NUCLEAR REPULSION ENERGY    0.00000000

 EXTRA SYMMETRY OF AOS IN SYMMETRY 1:   1 1 1 1 1 1 1 1 1 1   2 3 2 3 2 3 2 3 2 3   2 3 2 3 2 3 2 3 4 5   6 4 5 6 4 5 6 4 5 6
                                        4 5 6 7 8 910 7 8 9  10 7 8 910
 EXTRA SYMMETRY OF AOS IN SYMMETRY 2:   1 1 1 1 1 1 1 1 1 1   2 3 2 3 2 3 2 3 2 3   2 3 4 5 6 4 5 6 4 5   6 4 5 6
 EXTRA SYMMETRY OF AOS IN SYMMETRY 3:   1 1 1 1 1 1 1 1 1 1   2 3 2 3 2 3 2 3 2 3   2 3 4 5 6 4 5 6 4 5   6 4 5 6
 EXTRA SYMMETRY OF AOS IN SYMMETRY 4:   1 1 1 1 1 1 1 1 1 2   3 2 3 2 3 2 3 2 3 4   5 6 4 5 6 4 5 6
 EXTRA SYMMETRY OF AOS IN SYMMETRY 5:   1 1 1 1 1 1 1 1 1 1   2 3 2 3 2 3 2 3 2 3   2 3 4 5 6 4 5 6 4 5   6 4 5 6
 EXTRA SYMMETRY OF AOS IN SYMMETRY 6:   1 1 1 1 1 1 1 1 1 2   3 2 3 2 3 2 3 2 3 4   5 6 4 5 6 4 5 6
 EXTRA SYMMETRY OF AOS IN SYMMETRY 7:   1 1 1 1 1 1 1 1 1 2   3 2 3 2 3 2 3 2 3 4   5 6 4 5 6 4 5 6
 EXTRA SYMMETRY OF AOS IN SYMMETRY 8:   1 1 1 1 1 1 2 3 2 3   2 3 2 3

 Eigenvalues of metric

         1 0.880E-05 0.247E-03 0.308E-03 0.308E-03 0.313E-03 0.313E-03 0.313E-03 0.422E-01
         2 0.554E-04 0.358E-02 0.714E-02 0.714E-02 0.104E-01 0.104E-01 0.104E-01 0.659E-01
         3 0.554E-04 0.358E-02 0.714E-02 0.714E-02 0.104E-01 0.104E-01 0.104E-01 0.659E-01
         4 0.308E-03 0.313E-03 0.313E-03 0.422E-01 0.422E-01 0.422E-01 0.526E-01 0.105E+00
         5 0.554E-04 0.358E-02 0.714E-02 0.714E-02 0.104E-01 0.104E-01 0.104E-01 0.659E-01
         6 0.308E-03 0.313E-03 0.313E-03 0.422E-01 0.422E-01 0.422E-01 0.526E-01 0.105E+00
         7 0.308E-03 0.313E-03 0.313E-03 0.422E-01 0.422E-01 0.422E-01 0.526E-01 0.105E+00
         8 0.714E-02 0.104E-01 0.104E-01 0.866E-01 0.277E+00 0.361E+00 0.361E+00 0.794E+00


 Contracted 2-electron integrals neglected if value below      1.0D-12
 AO integral compression algorithm  1   Integral accuracy      1.0D-12

     375.390 MB (compressed) written to integral file ( 43.9%)

     Node minimum: 14.156 MB, node maximum: 35.389 MB


 NUMBER OF SORTED TWO-ELECTRON INTEGRALS:    4546497.     BUFFER LENGTH:  32768
 NUMBER OF SEGMENTS:   1  SEGMENT LENGTH:    4546497      RECORD LENGTH: 524288

 Memory used in sort:       5.10 MW

 SORT1 READ   106867816. AND WROTE     2944781. INTEGRALS IN      9 RECORDS. CPU TIME:     3.16 SEC, REAL TIME:     3.23 SEC
 SORT2 READ    43827210. AND WROTE    67876732. INTEGRALS IN   1275 RECORDS. CPU TIME:     0.12 SEC, REAL TIME:     0.70 SEC

 Node minimum:     4486763.  Node maximum:     4598933. integrals

 OPERATOR DM      FOR CENTER  0  COORDINATES:    0.000000    0.000000    0.000000


 **********************************************************************************************************************************
 DATASETS  * FILE   NREC   LENGTH (MB)   RECORD NAMES
              1      19       20.36       500      610      700      900      950      970     1000      129      960     1100   
                                          VAR    BASINP    GEOM    SYMINP    ZMAT    AOBASIS   BASIS     P2S    ABASIS      S 
                                         1400     1410     1420     1200     1210     1080     1600     1650     1700   
                                           T        V       ECP      H0       H01     AOSYM     SMH    MOLCAS    OPER   

 PROGRAMS   *        TOTAL       INT
 CPU TIMES  *         7.62      7.37
 REAL TIME  *         9.75 SEC
 DISK USED  *       907.02 MB      
 GA USED    *         0.00 MB       (max)       0.00 MB       (current)
 **********************************************************************************************************************************


 PROGRAM * RHF-SCF (OPEN SHELL)       Authors: W. Meyer, H.-J. Werner


 NUMBER OF ELECTRONS:      10+    4-    SPACE SYMMETRY=1    SPIN SYMMETRY: Septet  
 CONVERGENCE THRESHOLDS:    1.00E-05 (Density)    1.00E-07 (Energy)
 MAX. NUMBER OF ITERATIONS:       60
 INTERPOLATION TYPE:            DIIS
 INTERPOLATION STEPS:              2 (START)      1 (STEP)
 LEVEL SHIFTS:                 -0.60 (CLOSED) -0.30 (OPEN) 

 Number of closed-shell orbitals:    4 (   1   1   1   0   1   0   0   0 )
 Number of open-shell orbitals:      6 (   3   0   0   1   0   1   1   0 )


 
 Extra symmetries of mos in symmetry 1:   1   3   2   1
     Symmetry restrictions:    1             1

   Atom=MO basis=cc-pVTZ-PP        lmin=0  lmax=2

 Orbital guess generated from atomic densities. Full valence occupancy:    4   1   1   1   1   1   1   0


 Molecular orbital dump at record        4202.2

 ITERATION    DDIFF          GRAD             ENERGY        2-EL.EN.            DIPOLE MOMENTS         DIIS   ORB.
    1      0.000D+00      0.000D+00       -67.38043298     93.266941    0.00000    0.00000    0.00000    0    start
    2      0.000D+00      0.847D-02       -67.45744014     97.984356    0.00000    0.00000    0.00000    1    diag,B
    3      0.458D-02      0.444D-02       -67.46411040     97.903657    0.00000    0.00000    0.00000    2    diag,B
    4      0.160D-02      0.176D-02       -67.46768326     98.223134    0.00000    0.00000    0.00000    3    diag,B
    5      0.331D-02      0.362D-03       -67.46805922     98.348202    0.00000    0.00000    0.00000    4    diag,B
    6      0.234D-02      0.811D-04       -67.46809006     98.362977    0.00000    0.00000    0.00000    5    diag,B
    7      0.889D-03      0.297D-04       -67.46809619     98.369848    0.00000    0.00000    0.00000    6    fixocc
    8      0.220D-03      0.110D-04       -67.46809716     98.372308    0.00000    0.00000    0.00000    7    diag,B
    9      0.889D-04      0.392D-05       -67.46809726     98.372823    0.00000    0.00000    0.00000    8    diag,B
   10      0.210D-04      0.768D-06       -67.46809727     98.372993    0.00000    0.00000    0.00000    9    orth
   11      0.229D-04      0.245D-06       -67.46809727     98.373008    0.00000    0.00000    0.00000    9    diag,B
   12      0.121D-04      0.806D-07       -67.46809727     98.373015    0.00000    0.00000    0.00000    9    diag,B
   13      0.422D-05      0.213D-07       -67.46809727     98.373015    0.00000    0.00000    0.00000    0    orth

 Final alpha occupancy:   4   1   1   1   1   1   1   0
 Final beta  occupancy:   1   1   1   0   1   0   0   0

 !RHF STATE 1.1 Energy                -67.468097267335
 Nuclear energy                         0.00000000
 One-electron energy                 -116.65460494
 Two-electron energy                   49.18650767
 Virial quotient                       -2.82488592
 !RHF STATE 1.1 Dipole moment           0.00000000     0.00000000     0.00000000
 Dipole moment /Debye                   0.00000000     0.00000000     0.00000000

 ELECTRON ORBITALS
 =================


   Orb  Occ    Energy  Couls-En    Coefficients

                                   1 1s      1 1s      1 1s      1 1s      1 1s      1 1s      1 1s      1 1s      1 1s      1 1s   
                                   1 3d0     1 3d2+    1 3d0     1 3d2+    1 3d0     1 3d2+    1 3d0     1 3d2+    1 3d0     1 3d2+ 
                                   1 3d0     1 3d2+    1 3d0     1 3d2+    1 3d0     1 3d2+    1 3d0     1 3d2+    1 5g0     1 5g4+ 
                                   1 5g2+    1 5g0     1 5g4+    1 5g2+    1 5g0     1 5g4+    1 5g2+    1 5g0     1 5g4+    1 5g2+ 
                                   1 5g0     1 5g4+    1 5g2+    1 7i6+    1 7i4+    1 7i2+    1 7i0     1 7i6+    1 7i4+    1 7i2+ 
                                   1 7i0     1 7i6+    1 7i4+    1 7i2+    1 7i0  

   1.1   2    -2.8940  -13.6933  0.999369 -0.001026  0.000189 -0.000201 -0.000006 -0.000018  0.001288 -0.000230  0.001879 -0.001686
                                 0.000000  0.000000 -0.000000 -0.000000 -0.000000 -0.000000 -0.000000 -0.000000  0.000000 -0.000000
                                 0.000000  0.000000 -0.000000  0.000000 -0.000000  0.000000 -0.000000 -0.000000  0.000000  0.000000
                                -0.000000 -0.000000 -0.000000  0.000000  0.000000  0.000000 -0.000000 -0.000000 -0.000000  0.000000
                                -0.000000 -0.000000  0.000000  0.000000 -0.000000  0.000000 -0.000000 -0.000000  0.000000 -0.000000
                                 0.000000 -0.000000  0.000000 -0.000000  0.000000

   2.1   +    -0.3419   -7.1115  0.000000  0.000000 -0.000000  0.000000 -0.000000  0.000000 -0.000000  0.000000  0.000000  0.000000
                                -0.174073  0.985002  0.000045 -0.000252  0.000023 -0.000129  0.000015 -0.000086 -0.000005  0.000027
                                -0.000003  0.000017 -0.000007  0.000037 -0.000002  0.000012  0.000070 -0.000397  0.000000  0.000000
                                 0.000000 -0.000000 -0.000000 -0.000000  0.000000  0.000000  0.000000 -0.000000 -0.000000 -0.000000
                                -0.000000 -0.000000 -0.000000  0.000000 -0.000000  0.000000 -0.000000 -0.000000  0.000000 -0.000000
                                 0.000000  0.000000  0.000000 -0.000000  0.000000

   3.1   +    -0.3419   -7.1115 -0.000000 -0.000000  0.000000 -0.000000  0.000000 -0.000000  0.000000 -0.000000 -0.000000 -0.000000
                                 0.985002  0.174073 -0.000252 -0.000045 -0.000129 -0.000023 -0.000086 -0.000015  0.000027  0.000005
                                 0.000017  0.000003  0.000037  0.000007  0.000012  0.000002 -0.000397 -0.000070 -0.000000 -0.000000
                                 0.000000  0.000000  0.000000 -0.000000 -0.000000 -0.000000  0.000000  0.000000  0.000000 -0.000000
                                 0.000000  0.000000 -0.000000  0.000000  0.000000  0.000000  0.000000  0.000000 -0.000000 -0.000000
                                -0.000000 -0.000000 -0.000000 -0.000000 -0.000000

   4.1   +    -0.2374   -4.3877  0.010722  1.070549 -0.018188  0.007365 -0.004577  0.000785 -0.091015  0.016544  0.045591 -0.032688
                                 0.000000 -0.000000 -0.000000 -0.000000  0.000000  0.000000 -0.000000  0.000000  0.000000 -0.000000
                                 0.000000 -0.000000 -0.000000  0.000000  0.000000  0.000000 -0.000000  0.000000 -0.000000  0.000000
                                 0.000000  0.000000 -0.000000 -0.000000 -0.000000  0.000000  0.000000  0.000000 -0.000000 -0.000000
                                 0.000000 -0.000000 -0.000000 -0.000000  0.000000 -0.000000  0.000000  0.000000 -0.000000  0.000000
                                -0.000000  0.000000 -0.000000  0.000000 -0.000000

                                   1 2px     1 2px     1 2px     1 2px     1 2px     1 2px     1 2px     1 2px     1 2px     1 2px  
                                   1 4f1+    1 4f3+    1 4f1+    1 4f3+    1 4f1+    1 4f3+    1 4f1+    1 4f3+    1 4f1+    1 4f3+ 
                                   1 4f1+    1 4f3+    1 6h1+    1 6h3+    1 6h5+    1 6h1+    1 6h3+    1 6h5+    1 6h1+    1 6h3+ 
                                   1 6h5+    1 6h1+    1 6h3+    1 6h5+ 

   1.2   2    -1.7578  -11.2674  1.000034 -0.000115 -0.000079 -0.000059  0.000016 -0.000003  0.000198 -0.000072 -0.000275  0.000219
                                -0.000000  0.000000 -0.000000  0.000000  0.000000 -0.000000 -0.000000  0.000000  0.000000 -0.000000
                                 0.000000 -0.000000  0.000000  0.000000  0.000000 -0.000000 -0.000000 -0.000000  0.000000 -0.000000
                                 0.000000 -0.000000 -0.000000 -0.000000

                                   1 2py     1 2py     1 2py     1 2py     1 2py     1 2py     1 2py     1 2py     1 2py     1 2py  
                                   1 4f1-    1 4f3-    1 4f1-    1 4f3-    1 4f1-    1 4f3-    1 4f1-    1 4f3-    1 4f1-    1 4f3- 
                                   1 4f1-    1 4f3-    1 6h1-    1 6h3-    1 6h5-    1 6h1-    1 6h3-    1 6h5-    1 6h1-    1 6h3- 
                                   1 6h5-    1 6h1-    1 6h3-    1 6h5- 

   1.3   2    -1.7578  -11.2674  1.000034 -0.000115 -0.000079 -0.000059  0.000016 -0.000003  0.000198 -0.000072 -0.000275  0.000219
                                -0.000000 -0.000000 -0.000000 -0.000000  0.000000  0.000000 -0.000000 -0.000000  0.000000  0.000000
                                 0.000000  0.000000  0.000000 -0.000000  0.000000 -0.000000  0.000000 -0.000000  0.000000  0.000000
                                 0.000000 -0.000000  0.000000 -0.000000

                                   1 3d2-    1 3d2-    1 3d2-    1 3d2-    1 3d2-    1 3d2-    1 3d2-    1 3d2-    1 3d2-    1 5g2- 
                                   1 5g4-    1 5g2-    1 5g4-    1 5g2-    1 5g4-    1 5g2-    1 5g4-    1 5g2-    1 5g4-    1 7i2- 
                                   1 7i6-    1 7i4-    1 7i2-    1 7i6-    1 7i4-    1 7i2-    1 7i6-    1 7i4- 

   1.4   +    -0.3419   -7.1115  1.000266 -0.000256 -0.000131 -0.000087  0.000028  0.000017  0.000038  0.000012 -0.000403  0.000000
                                 0.000000 -0.000000 -0.000000  0.000000  0.000000 -0.000000 -0.000000 -0.000000 -0.000000  0.000000
                                -0.000000  0.000000 -0.000000  0.000000 -0.000000 -0.000000  0.000000 -0.000000

                                   1 2pz     1 2pz     1 2pz     1 2pz     1 2pz     1 2pz     1 2pz     1 2pz     1 2pz     1 2pz  
                                   1 4f0     1 4f2+    1 4f0     1 4f2+    1 4f0     1 4f2+    1 4f0     1 4f2+    1 4f0     1 4f2+ 
                                   1 4f0     1 4f2+    1 6h2+    1 6h4+    1 6h0     1 6h2+    1 6h4+    1 6h0     1 6h2+    1 6h4+ 
                                   1 6h0     1 6h2+    1 6h4+    1 6h0  

   1.5   2    -1.7578  -11.2674  1.000034 -0.000115 -0.000079 -0.000059  0.000016 -0.000003  0.000198 -0.000072 -0.000275  0.000219
                                -0.000000 -0.000000 -0.000000 -0.000000  0.000000 -0.000000 -0.000000 -0.000000  0.000000 -0.000000
                                 0.000000  0.000000 -0.000000  0.000000 -0.000000  0.000000 -0.000000  0.000000 -0.000000  0.000000
                                -0.000000  0.000000 -0.000000  0.000000

                                   1 3d1+    1 3d1+    1 3d1+    1 3d1+    1 3d1+    1 3d1+    1 3d1+    1 3d1+    1 3d1+    1 5g1+ 
                                   1 5g3+    1 5g1+    1 5g3+    1 5g1+    1 5g3+    1 5g1+    1 5g3+    1 5g1+    1 5g3+    1 7i5+ 
                                   1 7i3+    1 7i1+    1 7i5+    1 7i3+    1 7i1+    1 7i5+    1 7i3+    1 7i1+ 

   1.6   +    -0.3419   -7.1115  1.000266 -0.000256 -0.000131 -0.000087  0.000028  0.000017  0.000038  0.000012 -0.000403  0.000000
                                 0.000000 -0.000000 -0.000000  0.000000  0.000000  0.000000 -0.000000 -0.000000 -0.000000 -0.000000
                                 0.000000 -0.000000  0.000000  0.000000  0.000000  0.000000 -0.000000  0.000000

                                   1 3d1-    1 3d1-    1 3d1-    1 3d1-    1 3d1-    1 3d1-    1 3d1-    1 3d1-    1 3d1-    1 5g1- 
                                   1 5g3-    1 5g1-    1 5g3-    1 5g1-    1 5g3-    1 5g1-    1 5g3-    1 5g1-    1 5g3-    1 7i5- 
                                   1 7i3-    1 7i1-    1 7i5-    1 7i3-    1 7i1-    1 7i5-    1 7i3-    1 7i1- 

   1.7   +    -0.3419   -7.1115  1.000266 -0.000256 -0.000131 -0.000087  0.000028  0.000017  0.000038  0.000012 -0.000403  0.000000
                                -0.000000 -0.000000  0.000000  0.000000 -0.000000  0.000000  0.000000 -0.000000  0.000000 -0.000000
                                -0.000000 -0.000000  0.000000 -0.000000  0.000000  0.000000  0.000000  0.000000

 HOMO      4.1    -0.237433 =      -6.4609eV
 LUMO      2.2     0.015869 =       0.4318eV
 LUMO-HOMO         0.253303 =       6.8927eV


 **********************************************************************************************************************************
 DATASETS  * FILE   NREC   LENGTH (MB)   RECORD NAMES
              1      19       20.37       500      610      700      900      950      970     1000      129      960     1100   
                                          VAR    BASINP    GEOM    SYMINP    ZMAT    AOBASIS   BASIS     P2S    ABASIS      S 
                                         1400     1410     1420     1200     1210     1080     1600     1650     1700   
                                           T        V       ECP      H0       H01     AOSYM     SMH    MOLCAS    OPER   

              2       4        3.06       700     1000      520     4202   
                                         GEOM     BASIS   MCVARS     RHF  

 PROGRAMS   *        TOTAL       RHF       INT
 CPU TIMES  *         8.34      0.72      7.37
 REAL TIME  *        10.76 SEC
 DISK USED  *         1.28 GB      
 SF USED    *         0.04 MB      
 GA USED    *         0.00 MB       (max)       0.00 MB       (current)
 **********************************************************************************************************************************


 PROGRAM * POP (Mulliken population analysis)

 
 Density matrix read from record         4202.2  Type=RHF/CHARGE (state 1.1)
 
 Population analysis by basis function type

 Unique atom        s        p        d        f        g    Total    Charge
   1  MO      3.00000  6.00000  5.00000  0.00000  0.00000 14.00000  + 0.00000


 **********************************************************************************************************************************
 DATASETS  * FILE   NREC   LENGTH (MB)   RECORD NAMES
              1      19       20.37       500      610      700      900      950      970     1000      129      960     1100   
                                          VAR    BASINP    GEOM    SYMINP    ZMAT    AOBASIS   BASIS     P2S    ABASIS      S 
                                         1400     1410     1420     1200     1210     1080     1600     1650     1700   
                                           T        V       ECP      H0       H01     AOSYM     SMH    MOLCAS    OPER   

              2       4        3.06       700     1000      520     4202   
                                         GEOM     BASIS   MCVARS     RHF  

 PROGRAMS   *        TOTAL       POP       RHF       INT
 CPU TIMES  *         8.34      0.00      0.72      7.37
 REAL TIME  *        10.79 SEC
 DISK USED  *         1.28 GB      
 SF USED    *         0.04 MB      
 GA USED    *         0.00 MB       (max)       0.00 MB       (current)
 **********************************************************************************************************************************


 PROGRAM * MULTI (Direct Multiconfiguration SCF)       Authors: P.J. Knowles, H.-J. Werner (1984)     S.T. Elbert (1988)


 Number of closed-shell orbitals:   4 (   1   1   1   0   1   0   0   0 )
 Number of active  orbitals:        6 (   3   0   0   1   0   1   1   0 )
 Number of external orbitals:     245 (  51  33  33  27  33  27  27  14 )

 State symmetry 1

 Orbital occupancy restrictions for symmetry 1
  1      1       002000                          

 Number of electrons:     6    Spin symmetry=Septet    Space symmetry=1
 Number of states:        1
 Number of CSFs:          1
 
 Maximum number of shells:             1
 Maximum number of spin couplings:     1

 Storage for configuration lists      22, coupling coefficients      6, address lists     92

 Molecular orbitals read from record     4202.2  Type=RHF/CANONICAL (state 1.1)
 *** IN SYMMETRY 1 ORBITAL  2 SYMMETRY CONTAMINATION OF 0.150D+00 HAS BEEN REMOVED
 *** IN SYMMETRY 1 ORBITAL  3 SYMMETRY CONTAMINATION OF 0.150D+00 HAS BEEN REMOVED

 EXTRA SYMMETRY OF MOS IN SYMMETRY 1:   1 3 2 1 1 3 2 3 2 1   3 2 1 3 2 6 5 4 1 3   2 4 5 6 1 7 810 9 3   2 4 5 6 1 4 5 610 8
                                        9 7 3 2 4 5 6 110 8   9 7 3 2 1
 EXTRA SYMMETRY OF MOS IN SYMMETRY 2:   1 1 1 1 3 2 1 3 2 1   3 2 4 6 5 1 2 3 5 4   6 1 2 3 5 4 6 1 2 3   5 4 6 1
 EXTRA SYMMETRY OF MOS IN SYMMETRY 3:   1 1 1 1 3 2 1 3 2 1   3 2 4 6 5 1 2 3 5 4   6 1 2 3 5 4 6 1 2 3   5 4 6 1
 EXTRA SYMMETRY OF MOS IN SYMMETRY 4:   1 1 1 1 1 2 3 1 3 2   5 6 4 1 3 2 3 2 6 4   5 1 3 2 6 4 5 1
 EXTRA SYMMETRY OF MOS IN SYMMETRY 5:   1 1 1 1 2 3 1 2 3 1   2 3 5 6 4 1 2 3 6 5   4 1 2 3 6 5 4 1 2 3   6 4 5 1
 EXTRA SYMMETRY OF MOS IN SYMMETRY 6:   1 1 1 1 1 3 2 1 3 2   5 4 6 1 2 3 2 3 5 6   4 1 2 3 5 6 4 1
 EXTRA SYMMETRY OF MOS IN SYMMETRY 7:   1 1 1 1 1 3 2 1 3 2   5 4 6 1 2 3 2 3 6 5   4 1 2 3 5 6 4 1
 EXTRA SYMMETRY OF MOS IN SYMMETRY 8:   1 1 1 2 3 1 2 3 1 2   3 1 2 3

 Wavefunction dump at record             5202.2

 Convergence thresholds  0.10E-01 (gradient)  0.10E-05 (energy)  0.10E-02 (step length)

 Eigenvalues of redundancy matrix
   1-  3    0.000000    0.000000    0.000000

 Number of orbital rotations:      387   (     3 Core/Active    150 Core/Virtual   0 Active/Active    234 Active/Virtual)
 Total number of variables:        388


 ITER. MIC  NCI  NEG     ENERGY(VAR)     ENERGY(PROJ)   ENERGY CHANGE     GRAD(0)  GRAD(ORB)   GRAD(CI)     STEP       TIME

   1   26    4    0     -67.46809727     -67.46809727   -0.00000000    0.00000043 0.00000000 0.00000000  0.16D-05      0.32

 ** WVFN ****  CONVERGENCE REACHED, FINAL GRADIENT:  0.78D-12


 First order charge density matrix for state 1.1 saved on record  5202.2 (density set 1)

 Results for state 1.1
 =====================

 !MCSCF STATE 1.1 Energy              -67.468097267336
 Nuclear energy                         0.00000000
 Kinetic energy                        23.88347672
 One electron energy                 -116.65460578
 Two electron energy                   49.18650852
 Virial ratio                           3.82488593

 !MCSCF STATE 1.1 Dipole moment         0.00000000     0.00000000     0.00000000
 Dipole moment /Debye                   0.00000000     0.00000000     0.00000000


 NATURAL ORBITALS
 ================

 Some active orbitals have been swapped

   Orb     Occ        Energy       Coefficients

                                   1 1s      1 1s      1 1s      1 1s      1 1s      1 1s      1 1s      1 1s      1 1s      1 1s   
                                   1 3d0     1 3d2+    1 3d0     1 3d2+    1 3d0     1 3d2+    1 3d0     1 3d2+    1 3d0     1 3d2+ 
                                   1 3d0     1 3d2+    1 3d0     1 3d2+    1 3d0     1 3d2+    1 3d0     1 3d2+    1 5g0     1 5g4+ 
                                   1 5g2+    1 5g0     1 5g4+    1 5g2+    1 5g0     1 5g4+    1 5g2+    1 5g0     1 5g4+    1 5g2+ 
                                   1 5g0     1 5g4+    1 5g2+    1 7i6+    1 7i4+    1 7i2+    1 7i0     1 7i6+    1 7i4+    1 7i2+ 
                                   1 7i0     1 7i6+    1 7i4+    1 7i2+    1 7i0  

   1.1  2.00000    -2.893954     0.999369 -0.001026  0.000189 -0.000201 -0.000006 -0.000018  0.001289 -0.000231  0.001878 -0.001686
                                 0.000000  0.000000  0.000000  0.000000  0.000000  0.000000  0.000000  0.000000  0.000000  0.000000
                                 0.000000  0.000000  0.000000  0.000000  0.000000  0.000000  0.000000  0.000000  0.000000  0.000000
                                 0.000000  0.000000  0.000000  0.000000  0.000000  0.000000  0.000000  0.000000  0.000000  0.000000
                                 0.000000  0.000000  0.000000  0.000000  0.000000  0.000000  0.000000  0.000000  0.000000  0.000000
                                 0.000000  0.000000  0.000000  0.000000  0.000000

   2.1  1.00000    -0.039089     0.000000  0.000000  0.000000  0.000000  0.000000  0.000000  0.000000  0.000000  0.000000  0.000000
                                 0.000000  1.000266  0.000000 -0.000256  0.000000 -0.000131  0.000000 -0.000087  0.000000  0.000028
                                 0.000000  0.000017  0.000000  0.000037  0.000000  0.000012  0.000000 -0.000403  0.000000  0.000000
                                 0.000000  0.000000  0.000000  0.000000  0.000000  0.000000  0.000000  0.000000  0.000000  0.000000
                                 0.000000  0.000000  0.000000  0.000000  0.000000  0.000000  0.000000  0.000000  0.000000  0.000000
                                 0.000000  0.000000  0.000000  0.000000  0.000000

   3.1  1.00000    -0.039089     0.000000  0.000000  0.000000  0.000000  0.000000  0.000000  0.000000  0.000000  0.000000  0.000000
                                 1.000266  0.000000 -0.000256  0.000000 -0.000131  0.000000 -0.000087  0.000000  0.000028  0.000000
                                 0.000017  0.000000  0.000037  0.000000  0.000012  0.000000 -0.000403  0.000000  0.000000  0.000000
                                 0.000000  0.000000  0.000000  0.000000  0.000000  0.000000  0.000000  0.000000  0.000000  0.000000
                                 0.000000  0.000000  0.000000  0.000000  0.000000  0.000000  0.000000  0.000000  0.000000  0.000000
                                 0.000000  0.000000  0.000000  0.000000  0.000000

   4.1  1.00000    -0.083161     0.010723  1.070556 -0.018189  0.007365 -0.004578  0.000785 -0.091026  0.016547  0.045594 -0.032690
                                 0.000000  0.000000  0.000000  0.000000  0.000000  0.000000  0.000000  0.000000  0.000000  0.000000
                                 0.000000  0.000000  0.000000  0.000000  0.000000  0.000000  0.000000  0.000000  0.000000  0.000000
                                 0.000000  0.000000  0.000000  0.000000  0.000000  0.000000  0.000000  0.000000  0.000000  0.000000
                                 0.000000  0.000000  0.000000  0.000000  0.000000  0.000000  0.000000  0.000000  0.000000  0.000000
                                 0.000000  0.000000  0.000000  0.000000  0.000000

                                   1 2px     1 2px     1 2px     1 2px     1 2px     1 2px     1 2px     1 2px     1 2px     1 2px  
                                   1 4f1+    1 4f3+    1 4f1+    1 4f3+    1 4f1+    1 4f3+    1 4f1+    1 4f3+    1 4f1+    1 4f3+ 
                                   1 4f1+    1 4f3+    1 6h1+    1 6h3+    1 6h5+    1 6h1+    1 6h3+    1 6h5+    1 6h1+    1 6h3+ 
                                   1 6h5+    1 6h1+    1 6h3+    1 6h5+ 

   1.2  2.00000    -1.757768     1.000034 -0.000115 -0.000079 -0.000059  0.000016 -0.000003  0.000198 -0.000072 -0.000275  0.000219
                                 0.000000  0.000000  0.000000  0.000000  0.000000  0.000000  0.000000  0.000000  0.000000  0.000000
                                 0.000000  0.000000  0.000000  0.000000  0.000000  0.000000  0.000000  0.000000  0.000000  0.000000
                                 0.000000  0.000000  0.000000  0.000000

                                   1 2py     1 2py     1 2py     1 2py     1 2py     1 2py     1 2py     1 2py     1 2py     1 2py  
                                   1 4f1-    1 4f3-    1 4f1-    1 4f3-    1 4f1-    1 4f3-    1 4f1-    1 4f3-    1 4f1-    1 4f3- 
                                   1 4f1-    1 4f3-    1 6h1-    1 6h3-    1 6h5-    1 6h1-    1 6h3-    1 6h5-    1 6h1-    1 6h3- 
                                   1 6h5-    1 6h1-    1 6h3-    1 6h5- 

   1.3  2.00000    -1.757768     1.000034 -0.000115 -0.000079 -0.000059  0.000016 -0.000003  0.000198 -0.000072 -0.000275  0.000219
                                 0.000000  0.000000  0.000000  0.000000  0.000000  0.000000  0.000000  0.000000  0.000000  0.000000
                                 0.000000  0.000000  0.000000  0.000000  0.000000  0.000000  0.000000  0.000000  0.000000  0.000000
                                 0.000000  0.000000  0.000000  0.000000

                                   1 3d2-    1 3d2-    1 3d2-    1 3d2-    1 3d2-    1 3d2-    1 3d2-    1 3d2-    1 3d2-    1 5g2- 
                                   1 5g4-    1 5g2-    1 5g4-    1 5g2-    1 5g4-    1 5g2-    1 5g4-    1 5g2-    1 5g4-    1 7i2- 
                                   1 7i6-    1 7i4-    1 7i2-    1 7i6-    1 7i4-    1 7i2-    1 7i6-    1 7i4- 

   1.4  1.00000    -0.039089     1.000266 -0.000256 -0.000131 -0.000087  0.000028  0.000017  0.000037  0.000012 -0.000403  0.000000
                                 0.000000  0.000000  0.000000  0.000000  0.000000  0.000000  0.000000  0.000000  0.000000  0.000000
                                 0.000000  0.000000  0.000000  0.000000  0.000000  0.000000  0.000000  0.000000

                                   1 2pz     1 2pz     1 2pz     1 2pz     1 2pz     1 2pz     1 2pz     1 2pz     1 2pz     1 2pz  
                                   1 4f0     1 4f2+    1 4f0     1 4f2+    1 4f0     1 4f2+    1 4f0     1 4f2+    1 4f0     1 4f2+ 
                                   1 4f0     1 4f2+    1 6h2+    1 6h4+    1 6h0     1 6h2+    1 6h4+    1 6h0     1 6h2+    1 6h4+ 
                                   1 6h0     1 6h2+    1 6h4+    1 6h0  

   1.5  2.00000    -1.757768     1.000034 -0.000115 -0.000079 -0.000059  0.000016 -0.000003  0.000198 -0.000072 -0.000275  0.000219
                                 0.000000  0.000000  0.000000  0.000000  0.000000  0.000000  0.000000  0.000000  0.000000  0.000000
                                 0.000000  0.000000  0.000000  0.000000  0.000000  0.000000  0.000000  0.000000  0.000000  0.000000
                                 0.000000  0.000000  0.000000  0.000000

                                   1 3d1+    1 3d1+    1 3d1+    1 3d1+    1 3d1+    1 3d1+    1 3d1+    1 3d1+    1 3d1+    1 5g1+ 
                                   1 5g3+    1 5g1+    1 5g3+    1 5g1+    1 5g3+    1 5g1+    1 5g3+    1 5g1+    1 5g3+    1 7i5+ 
                                   1 7i3+    1 7i1+    1 7i5+    1 7i3+    1 7i1+    1 7i5+    1 7i3+    1 7i1+ 

   1.6  1.00000    -0.039089     1.000266 -0.000256 -0.000131 -0.000087  0.000028  0.000017  0.000037  0.000012 -0.000403  0.000000
                                 0.000000  0.000000  0.000000  0.000000  0.000000  0.000000  0.000000  0.000000  0.000000  0.000000
                                 0.000000  0.000000  0.000000  0.000000  0.000000  0.000000  0.000000  0.000000

                                   1 3d1-    1 3d1-    1 3d1-    1 3d1-    1 3d1-    1 3d1-    1 3d1-    1 3d1-    1 3d1-    1 5g1- 
                                   1 5g3-    1 5g1-    1 5g3-    1 5g1-    1 5g3-    1 5g1-    1 5g3-    1 5g1-    1 5g3-    1 7i5- 
                                   1 7i3-    1 7i1-    1 7i5-    1 7i3-    1 7i1-    1 7i5-    1 7i3-    1 7i1- 

   1.7  1.00000    -0.039089     1.000266 -0.000256 -0.000131 -0.000087  0.000028  0.000017  0.000037  0.000012 -0.000403  0.000000
                                 0.000000  0.000000  0.000000  0.000000  0.000000  0.000000  0.000000  0.000000  0.000000  0.000000
                                 0.000000  0.000000  0.000000  0.000000  0.000000  0.000000  0.000000  0.000000
 

 EXTRA SYMMETRY OF MOS IN SYMMETRY 1:   1 3 2 1 1 3 2 3 2 1   3 2 1 3 2 6 5 4 1 3   2 4 6 5 1 7 810 9 3   2 4 5 6 1 5 4 610 8
                                        9 7 3 2 5 4 6 110 8   9 7 3 2 1
 EXTRA SYMMETRY OF MOS IN SYMMETRY 2:   1 1 1 1 2 3 1 2 3 1   3 2 4 6 5 1 2 3 4 5   6 1 2 3 4 5 6 1 2 3   4 5 6 1
 EXTRA SYMMETRY OF MOS IN SYMMETRY 3:   1 1 1 1 2 3 1 2 3 1   3 2 4 6 5 1 2 3 4 5   6 1 2 3 4 5 6 1 2 3   4 5 6 1
 EXTRA SYMMETRY OF MOS IN SYMMETRY 4:   1 1 1 1 1 2 3 1 2 3   5 6 4 1 3 2 3 2 6 4   5 1 3 2 6 4 5 1
 EXTRA SYMMETRY OF MOS IN SYMMETRY 6:   1 1 1 1 1 3 2 1 3 2   5 4 6 1 2 3 2 3 6 5   4 1 2 3 5 6 4 1

 Natural orbital dump at molpro section  5202.2    (Orbital set 2)


 CI vector
 =========

 /// / / /          1.0000000


 **********************************************************************************************************************************
 DATASETS  * FILE   NREC   LENGTH (MB)   RECORD NAMES
              1      20       26.04       500      610      700      900      950      970     1000      129      960     1100   
                                          VAR    BASINP    GEOM    SYMINP    ZMAT    AOBASIS   BASIS     P2S    ABASIS      S 
                                         1400     1410     1420     1200     1210     1080     1600     1650     1700     1380   
                                           T        V       ECP      H0       H01     AOSYM     SMH    MOLCAS    OPER     JKOP   

              2       5        5.88       700     1000      520     4202     5202   
                                         GEOM     BASIS   MCVARS     RHF     MCSCF   

 PROGRAMS   *        TOTAL     MULTI       POP       RHF       INT
 CPU TIMES  *         8.96      0.62      0.00      0.72      7.37
 REAL TIME  *        11.72 SEC
 DISK USED  *         1.28 GB      
 SF USED    *        25.77 MB      
 GA USED    *         0.00 MB       (max)       0.00 MB       (current)
 **********************************************************************************************************************************


 PROGRAM * RHF-SCF (OPEN SHELL)       Authors: W. Meyer, H.-J. Werner


 NUMBER OF ELECTRONS:      10+    4-    SPACE SYMMETRY=1    SPIN SYMMETRY: Septet  
 CONVERGENCE THRESHOLDS:    1.00E-05 (Density)    1.00E-07 (Energy)
 MAX. NUMBER OF ITERATIONS:        0
 INTERPOLATION TYPE:            DIIS
 INTERPOLATION STEPS:              2 (START)      1 (STEP)
 LEVEL SHIFTS:                 -0.60 (CLOSED) -0.30 (OPEN) 

 Number of closed-shell orbitals:    4 (   1   1   1   0   1   0   0   0 )
 Number of open-shell orbitals:      6 (   3   0   0   1   0   1   1   0 )


 
 Extra symmetries of mos in symmetry 1:   1   3   2   1
     Symmetry restrictions:    1             1
 Molecular orbitals read from record     5202.2  Type=MCSCF/NATURAL (state 1.1)

 Molecular orbital dump at record        2101.2

 ITERATION    DDIFF          GRAD             ENERGY        2-EL.EN.            DIPOLE MOMENTS         DIIS   ORB.
    1      0.000D+00      0.000D+00       -67.46809727     98.373017    0.00000    0.00000    0.00000    0    start

 Final alpha occupancy:   4   1   1   1   1   1   1   0
 Final beta  occupancy:   1   1   1   0   1   0   0   0

 !RHF STATE 1.1 Energy                -67.468097267336
 Nuclear energy                         0.00000000
 One-electron energy                 -116.65460578
 Two-electron energy                   49.18650852
 Virial quotient                       -2.82488593
 !RHF STATE 1.1 Dipole moment           0.00000000     0.00000000     0.00000000
 Dipole moment /Debye                   0.00000000     0.00000000     0.00000000

 ELECTRON ORBITALS
 =================


   Orb  Occ    Energy  Couls-En    Coefficients

                                   1 1s      1 1s      1 1s      1 1s      1 1s      1 1s      1 1s      1 1s      1 1s      1 1s   
                                   1 3d0     1 3d2+    1 3d0     1 3d2+    1 3d0     1 3d2+    1 3d0     1 3d2+    1 3d0     1 3d2+ 
                                   1 3d0     1 3d2+    1 3d0     1 3d2+    1 3d0     1 3d2+    1 3d0     1 3d2+    1 5g0     1 5g4+ 
                                   1 5g2+    1 5g0     1 5g4+    1 5g2+    1 5g0     1 5g4+    1 5g2+    1 5g0     1 5g4+    1 5g2+ 
                                   1 5g0     1 5g4+    1 5g2+    1 7i6+    1 7i4+    1 7i2+    1 7i0     1 7i6+    1 7i4+    1 7i2+ 
                                   1 7i0     1 7i6+    1 7i4+    1 7i2+    1 7i0  

   1.1   2    -2.8940  -13.6933  0.999369 -0.001026  0.000189 -0.000201 -0.000006 -0.000018  0.001289 -0.000231  0.001878 -0.001686
                                 0.000000  0.000000  0.000000  0.000000  0.000000  0.000000  0.000000  0.000000  0.000000  0.000000
                                 0.000000  0.000000  0.000000  0.000000  0.000000  0.000000  0.000000  0.000000  0.000000  0.000000
                                 0.000000  0.000000  0.000000  0.000000  0.000000  0.000000  0.000000  0.000000  0.000000  0.000000
                                 0.000000  0.000000  0.000000  0.000000  0.000000  0.000000  0.000000  0.000000  0.000000  0.000000
                                 0.000000  0.000000  0.000000  0.000000  0.000000

   2.1   +    -0.0391   -6.8086  0.000000  0.000000  0.000000  0.000000  0.000000  0.000000  0.000000  0.000000  0.000000  0.000000
                                 0.000000  1.000266  0.000000 -0.000256  0.000000 -0.000131  0.000000 -0.000087  0.000000  0.000028
                                 0.000000  0.000017  0.000000  0.000037  0.000000  0.000012  0.000000 -0.000403  0.000000  0.000000
                                 0.000000  0.000000  0.000000  0.000000  0.000000  0.000000  0.000000  0.000000  0.000000  0.000000
                                 0.000000  0.000000  0.000000  0.000000  0.000000  0.000000  0.000000  0.000000  0.000000  0.000000
                                 0.000000  0.000000  0.000000  0.000000  0.000000

   3.1   +    -0.0391   -6.8086  0.000000  0.000000  0.000000  0.000000  0.000000  0.000000  0.000000  0.000000  0.000000  0.000000
                                 1.000266  0.000000 -0.000256  0.000000 -0.000131  0.000000 -0.000087  0.000000  0.000028  0.000000
                                 0.000017  0.000000  0.000037  0.000000  0.000012  0.000000 -0.000403  0.000000  0.000000  0.000000
                                 0.000000  0.000000  0.000000  0.000000  0.000000  0.000000  0.000000  0.000000  0.000000  0.000000
                                 0.000000  0.000000  0.000000  0.000000  0.000000  0.000000  0.000000  0.000000  0.000000  0.000000
                                 0.000000  0.000000  0.000000  0.000000  0.000000

   4.1   +    -0.0832   -4.2335  0.010723  1.070556 -0.018189  0.007365 -0.004578  0.000785 -0.091026  0.016547  0.045594 -0.032690
                                 0.000000  0.000000  0.000000  0.000000  0.000000  0.000000  0.000000  0.000000  0.000000  0.000000
                                 0.000000  0.000000  0.000000  0.000000  0.000000  0.000000  0.000000  0.000000  0.000000  0.000000
                                 0.000000  0.000000  0.000000  0.000000  0.000000  0.000000  0.000000  0.000000  0.000000  0.000000
                                 0.000000  0.000000  0.000000  0.000000  0.000000  0.000000  0.000000  0.000000  0.000000  0.000000
                                 0.000000  0.000000  0.000000  0.000000  0.000000

   5.1   0     0.0296   -1.3120  0.681902  3.958098 -0.965767  0.376946 -0.233591  0.032693 -6.345200  2.526759  2.618556 -1.854327
                                 0.000000  0.000000  0.000000  0.000000  0.000000  0.000000  0.000000  0.000000  0.000000  0.000000
                                 0.000000  0.000000  0.000000  0.000000  0.000000  0.000000  0.000000  0.000000  0.000000  0.000000
                                 0.000000  0.000000  0.000000  0.000000  0.000000  0.000000  0.000000  0.000000  0.000000  0.000000
                                 0.000000  0.000000  0.000000  0.000000  0.000000  0.000000  0.000000  0.000000  0.000000  0.000000
                                 0.000000  0.000000  0.000000  0.000000  0.000000

   6.1   0     0.0382   -1.0809  0.000000  0.000000  0.000000  0.000000  0.000000  0.000000  0.000000  0.000000  0.000000  0.000000
                                 0.000000 -0.063812  0.000000  0.142537  0.000000 -0.023345  0.000000  0.059408  0.000000 -0.022334
                                 0.000000 -0.444463  0.000000  1.238913  0.000000 -0.003770  0.000000  0.112673  0.000000  0.000000
                                 0.000000  0.000000  0.000000  0.000000  0.000000  0.000000  0.000000  0.000000  0.000000  0.000000
                                 0.000000  0.000000  0.000000  0.000000  0.000000  0.000000  0.000000  0.000000  0.000000  0.000000
                                 0.000000  0.000000  0.000000  0.000000  0.000000

                                   1 2px     1 2px     1 2px     1 2px     1 2px     1 2px     1 2px     1 2px     1 2px     1 2px  
                                   1 4f1+    1 4f3+    1 4f1+    1 4f3+    1 4f1+    1 4f3+    1 4f1+    1 4f3+    1 4f1+    1 4f3+ 
                                   1 4f1+    1 4f3+    1 6h1+    1 6h3+    1 6h5+    1 6h1+    1 6h3+    1 6h5+    1 6h1+    1 6h3+ 
                                   1 6h5+    1 6h1+    1 6h3+    1 6h5+ 

   1.2   2    -1.7578  -11.2674  1.000034 -0.000115 -0.000079 -0.000059  0.000016 -0.000003  0.000198 -0.000072 -0.000275  0.000219
                                 0.000000  0.000000  0.000000  0.000000  0.000000  0.000000  0.000000  0.000000  0.000000  0.000000
                                 0.000000  0.000000  0.000000  0.000000  0.000000  0.000000  0.000000  0.000000  0.000000  0.000000
                                 0.000000  0.000000  0.000000  0.000000

   2.2   0     0.0242   -1.5556  0.205662  0.489360  0.500370  0.189141 -0.088132  0.044573 -1.078799  1.334261 -0.546539  0.435713
                                 0.000000  0.000000  0.000000  0.000000  0.000000  0.000000  0.000000  0.000000  0.000000  0.000000
                                 0.000000  0.000000  0.000000  0.000000  0.000000  0.000000  0.000000  0.000000  0.000000  0.000000
                                 0.000000  0.000000  0.000000  0.000000

   3.2   0     0.0804   -2.1245 -0.771467 -1.069273 -1.252918 -0.498911  0.239506 -0.120914  3.626077 -1.463963  1.490167 -1.195592
                                 0.000000  0.000000  0.000000  0.000000  0.000000  0.000000  0.000000  0.000000  0.000000  0.000000
                                 0.000000  0.000000  0.000000  0.000000  0.000000  0.000000  0.000000  0.000000  0.000000  0.000000
                                 0.000000  0.000000  0.000000  0.000000

                                   1 2py     1 2py     1 2py     1 2py     1 2py     1 2py     1 2py     1 2py     1 2py     1 2py  
                                   1 4f1-    1 4f3-    1 4f1-    1 4f3-    1 4f1-    1 4f3-    1 4f1-    1 4f3-    1 4f1-    1 4f3- 
                                   1 4f1-    1 4f3-    1 6h1-    1 6h3-    1 6h5-    1 6h1-    1 6h3-    1 6h5-    1 6h1-    1 6h3- 
                                   1 6h5-    1 6h1-    1 6h3-    1 6h5- 

   1.3   2    -1.7578  -11.2674  1.000034 -0.000115 -0.000079 -0.000059  0.000016 -0.000003  0.000198 -0.000072 -0.000275  0.000219
                                 0.000000  0.000000  0.000000  0.000000  0.000000  0.000000  0.000000  0.000000  0.000000  0.000000
                                 0.000000  0.000000  0.000000  0.000000  0.000000  0.000000  0.000000  0.000000  0.000000  0.000000
                                 0.000000  0.000000  0.000000  0.000000

   2.3   0     0.0242   -1.5556  0.205662  0.489360  0.500370  0.189141 -0.088132  0.044573 -1.078799  1.334261 -0.546539  0.435713
                                 0.000000  0.000000  0.000000  0.000000  0.000000  0.000000  0.000000  0.000000  0.000000  0.000000
                                 0.000000  0.000000  0.000000  0.000000  0.000000  0.000000  0.000000  0.000000  0.000000  0.000000
                                 0.000000  0.000000  0.000000  0.000000

   3.3   0     0.0804   -2.1245 -0.771467 -1.069273 -1.252918 -0.498911  0.239506 -0.120914  3.626077 -1.463963  1.490167 -1.195592
                                 0.000000  0.000000  0.000000  0.000000  0.000000  0.000000  0.000000  0.000000  0.000000  0.000000
                                 0.000000  0.000000  0.000000  0.000000  0.000000  0.000000  0.000000  0.000000  0.000000  0.000000
                                 0.000000  0.000000  0.000000  0.000000

                                   1 3d2-    1 3d2-    1 3d2-    1 3d2-    1 3d2-    1 3d2-    1 3d2-    1 3d2-    1 3d2-    1 5g2- 
                                   1 5g4-    1 5g2-    1 5g4-    1 5g2-    1 5g4-    1 5g2-    1 5g4-    1 5g2-    1 5g4-    1 7i2- 
                                   1 7i6-    1 7i4-    1 7i2-    1 7i6-    1 7i4-    1 7i2-    1 7i6-    1 7i4- 

   1.4   +    -0.0391   -6.8086  1.000266 -0.000256 -0.000131 -0.000087  0.000028  0.000017  0.000037  0.000012 -0.000403  0.000000
                                 0.000000  0.000000  0.000000  0.000000  0.000000  0.000000  0.000000  0.000000  0.000000  0.000000
                                 0.000000  0.000000  0.000000  0.000000  0.000000  0.000000  0.000000  0.000000

   2.4   0     0.0382   -1.0809 -0.063812  0.142537 -0.023345  0.059408 -0.022334 -0.444463  1.238913 -0.003770  0.112673  0.000000
                                 0.000000  0.000000  0.000000  0.000000  0.000000  0.000000  0.000000  0.000000  0.000000  0.000000
                                 0.000000  0.000000  0.000000  0.000000  0.000000  0.000000  0.000000  0.000000

   3.4   0     0.1289   -1.6243 -0.066217 -0.527400  0.103866 -0.207507  0.077030  1.847534 -0.885095  0.012438 -0.375650  0.000000
                                 0.000000  0.000000  0.000000  0.000000  0.000000  0.000000  0.000000  0.000000  0.000000  0.000000
                                 0.000000  0.000000  0.000000  0.000000  0.000000  0.000000  0.000000  0.000000

                                   1 2pz     1 2pz     1 2pz     1 2pz     1 2pz     1 2pz     1 2pz     1 2pz     1 2pz     1 2pz  
                                   1 4f0     1 4f2+    1 4f0     1 4f2+    1 4f0     1 4f2+    1 4f0     1 4f2+    1 4f0     1 4f2+ 
                                   1 4f0     1 4f2+    1 6h2+    1 6h4+    1 6h0     1 6h2+    1 6h4+    1 6h0     1 6h2+    1 6h4+ 
                                   1 6h0     1 6h2+    1 6h4+    1 6h0  

   1.5   2    -1.7578  -11.2674  1.000034 -0.000115 -0.000079 -0.000059  0.000016 -0.000003  0.000198 -0.000072 -0.000275  0.000219
                                 0.000000  0.000000  0.000000  0.000000  0.000000  0.000000  0.000000  0.000000  0.000000  0.000000
                                 0.000000  0.000000  0.000000  0.000000  0.000000  0.000000  0.000000  0.000000  0.000000  0.000000
                                 0.000000  0.000000  0.000000  0.000000

   2.5   0     0.0242   -1.5556  0.205662  0.489360  0.500370  0.189141 -0.088132  0.044573 -1.078799  1.334261 -0.546539  0.435713
                                 0.000000  0.000000  0.000000  0.000000  0.000000  0.000000  0.000000  0.000000  0.000000  0.000000
                                 0.000000  0.000000  0.000000  0.000000  0.000000  0.000000  0.000000  0.000000  0.000000  0.000000
                                 0.000000  0.000000  0.000000  0.000000

   3.5   0     0.0804   -2.1245 -0.771467 -1.069273 -1.252918 -0.498911  0.239506 -0.120914  3.626077 -1.463963  1.490167 -1.195591
                                 0.000000  0.000000  0.000000  0.000000  0.000000  0.000000  0.000000  0.000000  0.000000  0.000000
                                 0.000000  0.000000  0.000000  0.000000  0.000000  0.000000  0.000000  0.000000  0.000000  0.000000
                                 0.000000  0.000000  0.000000  0.000000

                                   1 3d1+    1 3d1+    1 3d1+    1 3d1+    1 3d1+    1 3d1+    1 3d1+    1 3d1+    1 3d1+    1 5g1+ 
                                   1 5g3+    1 5g1+    1 5g3+    1 5g1+    1 5g3+    1 5g1+    1 5g3+    1 5g1+    1 5g3+    1 7i5+ 
                                   1 7i3+    1 7i1+    1 7i5+    1 7i3+    1 7i1+    1 7i5+    1 7i3+    1 7i1+ 

   1.6   +    -0.0391   -6.8086  1.000266 -0.000256 -0.000131 -0.000087  0.000028  0.000017  0.000037  0.000012 -0.000403  0.000000
                                 0.000000  0.000000  0.000000  0.000000  0.000000  0.000000  0.000000  0.000000  0.000000  0.000000
                                 0.000000  0.000000  0.000000  0.000000  0.000000  0.000000  0.000000  0.000000

   2.6   0     0.0382   -1.0809 -0.063812  0.142537 -0.023345  0.059408 -0.022334 -0.444463  1.238913 -0.003770  0.112673  0.000000
                                 0.000000  0.000000  0.000000  0.000000  0.000000  0.000000  0.000000  0.000000  0.000000  0.000000
                                 0.000000  0.000000  0.000000  0.000000  0.000000  0.000000  0.000000  0.000000

   3.6   0     0.1289   -1.6243 -0.066217 -0.527400  0.103866 -0.207507  0.077030  1.847534 -0.885095  0.012438 -0.375650  0.000000
                                 0.000000  0.000000  0.000000  0.000000  0.000000  0.000000  0.000000  0.000000  0.000000  0.000000
                                 0.000000  0.000000  0.000000  0.000000  0.000000  0.000000  0.000000  0.000000

                                   1 3d1-    1 3d1-    1 3d1-    1 3d1-    1 3d1-    1 3d1-    1 3d1-    1 3d1-    1 3d1-    1 5g1- 
                                   1 5g3-    1 5g1-    1 5g3-    1 5g1-    1 5g3-    1 5g1-    1 5g3-    1 5g1-    1 5g3-    1 7i5- 
                                   1 7i3-    1 7i1-    1 7i5-    1 7i3-    1 7i1-    1 7i5-    1 7i3-    1 7i1- 

   1.7   +    -0.0391   -6.8086  1.000266 -0.000256 -0.000131 -0.000087  0.000028  0.000017  0.000037  0.000012 -0.000403  0.000000
                                 0.000000  0.000000  0.000000  0.000000  0.000000  0.000000  0.000000  0.000000  0.000000  0.000000
                                 0.000000  0.000000  0.000000  0.000000  0.000000  0.000000  0.000000  0.000000

   2.7   0     0.0382   -1.0809 -0.063812  0.142537 -0.023345  0.059408 -0.022334 -0.444463  1.238913 -0.003770  0.112673  0.000000
                                 0.000000  0.000000  0.000000  0.000000  0.000000  0.000000  0.000000  0.000000  0.000000  0.000000
                                 0.000000  0.000000  0.000000  0.000000  0.000000  0.000000  0.000000  0.000000

   3.7   0     0.1289   -1.6243 -0.066217 -0.527400  0.103866 -0.207507  0.077030  1.847534 -0.885095  0.012438 -0.375650  0.000000
                                 0.000000  0.000000  0.000000  0.000000  0.000000  0.000000  0.000000  0.000000  0.000000  0.000000
                                 0.000000  0.000000  0.000000  0.000000  0.000000  0.000000  0.000000  0.000000

                                   1 4f2-    1 4f2-    1 4f2-    1 4f2-    1 4f2-    1 4f2-    1 6h4-    1 6h2-    1 6h4-    1 6h2- 
                                   1 6h4-    1 6h2-    1 6h4-    1 6h2- 

   1.8   0     0.3639   -2.1682 -0.027276 -0.064549  0.137606 -0.280680  1.140511  0.064140  0.000000  0.000000  0.000000  0.000000
                                 0.000000  0.000000  0.000000  0.000000

   2.8   0     0.9570   -2.7779  0.134264  0.270048 -0.219750  1.398644 -0.715519 -0.209865  0.000000  0.000000  0.000000  0.000000
                                 0.000000  0.000000  0.000000  0.000000

 HOMO      1.4    -0.039089 =      -1.0637eV
 LUMO      2.2     0.024218 =       0.6590eV
 LUMO-HOMO         0.063307 =       1.7227eV


 **********************************************************************************************************************************
 DATASETS  * FILE   NREC   LENGTH (MB)   RECORD NAMES
              1      20       26.04       500      610      700      900      950      970     1000      129      960     1100   
                                          VAR    BASINP    GEOM    SYMINP    ZMAT    AOBASIS   BASIS     P2S    ABASIS      S 
                                         1400     1410     1420     1200     1210     1080     1600     1650     1700     1380   
                                           T        V       ECP      H0       H01     AOSYM     SMH    MOLCAS    OPER     JKOP   

              2       6        8.68       700     1000      520     4202     5202     2101   
                                         GEOM     BASIS   MCVARS     RHF     MCSCF     RHF  

 PROGRAMS   *        TOTAL       RHF     MULTI       POP       RHF       INT
 CPU TIMES  *         9.01      0.05      0.62      0.00      0.72      7.37
 REAL TIME  *        12.11 SEC
 DISK USED  *         1.28 GB      
 SF USED    *        25.77 MB      
 GA USED    *         0.00 MB       (max)       0.00 MB       (current)
 **********************************************************************************************************************************


 PROGRAM * CCSD (Unrestricted open-shell coupled cluster)     Authors: C. Hampel, H.-J. Werner, 1991, M. Deegan, P.J. Knowles, 1992


 Convergence thresholds:  THRVAR = 1.00D-08  THRDEN = 1.00D-06

 CCSD(T)     terms to be evaluated (factor= 1.000)


 Number of closed-shell orbitals:   4 (   1   1   1   0   1   0   0   0 )
 Number of active  orbitals:        6 (   3   0   0   1   0   1   1   0 )
 Number of external orbitals:     245 (  51  33  33  27  33  27  27  14 )

 Memory could be reduced to 33.73 Mwords without degradation in triples

 Number of N-1 electron functions:              14
 Number of N-2 electron functions:              91
 Number of singly external CSFs:               552
 Number of doubly external CSFs:            521728
 Total number of CSFs:                      522280

 Molecular orbitals read from record     2101.2  Type=RHF/CANONICAL (state 1.1)

 Integral transformation finished. Total CPU:   0.67 sec, npass=  1  Memory used:   7.04 MW

 Starting RMP2 calculation

 ITER.      SQ.NORM     CORR.ENERGY   TOTAL ENERGY   ENERGY CHANGE        DEN1      VAR(S)    VAR(P)  DIIS     TIME
   1      1.10016337    -0.49001363   -67.95811090    -0.49001363    -0.00138807  0.24D-05  0.56D-03  1  1     0.80
   2      1.10157943    -0.49153747   -67.95963474    -0.00152383    -0.00000604  0.31D-08  0.38D-05  2  2     0.84
   3      1.10166850    -0.49158330   -67.95968057    -0.00004583    -0.00000004  0.89D-10  0.30D-07  3  3     0.91
   4      1.10167252    -0.49158444   -67.95968170    -0.00000114    -0.00000000  0.37D-11  0.24D-09  4  4     0.99
   5      1.10167257    -0.49158442   -67.95968169     0.00000002    -0.00000000  0.21D-12  0.20D-11  5  5     1.07

 Norm of t1 vector:      0.02719571      S-energy:    -0.00204996      T1 diagnostic:  0.00018842
 Norm of t2 vector:      0.31769949      P-energy:    -0.48953446
                                         Alpha-Beta:  -0.31745176
                                         Alpha-Alpha: -0.14318778
                                         Beta-Beta:   -0.02889492

 Spin contamination <S**2-Sz**2-Sz>     0.00022638
  Reference energy                    -67.468097267336
  RHF-RMP2 correlation energy          -0.491584418459
 !RHF-RMP2 energy                     -67.959681685795

 Starting UCCSD calculation

 ITER.      SQ.NORM     CORR.ENERGY   TOTAL ENERGY   ENERGY CHANGE        DEN1      VAR(S)    VAR(P)  DIIS     TIME
   1      1.09425309    -0.48041927   -67.94851654    -0.48041927    -0.00589503  0.81D-03  0.11D-02  1  1     1.68
   2      1.09912767    -0.48647442   -67.95457168    -0.00605515    -0.00032873  0.15D-03  0.90D-04  2  2     2.00
   3      1.10107863    -0.48708991   -67.95518718    -0.00061550    -0.00005468  0.55D-04  0.11D-04  3  3     2.33
   4      1.10264825    -0.48742468   -67.95552194    -0.00033476    -0.00000499  0.59D-05  0.75D-06  4  4     2.68
   5      1.10311448    -0.48747811   -67.95557538    -0.00005344    -0.00000038  0.43D-06  0.86D-07  5  5     3.04
   6      1.10320755    -0.48748606   -67.95558332    -0.00000794    -0.00000003  0.40D-07  0.88D-08  6  6     3.41
   7      1.10322928    -0.48748800   -67.95558527    -0.00000194    -0.00000000  0.22D-08  0.70D-09  6  1     3.79
   8      1.10323442    -0.48748829   -67.95558555    -0.00000029    -0.00000000  0.91D-10  0.58D-10  6  2     4.14

 Norm of t1 vector:      0.06781962      S-energy:    -0.00194185      T1 diagnostic:  0.01192327
                                                                       D1 diagnostic:  0.04349404
 Norm of t2 vector:      0.31406196      P-energy:    -0.48554644
                                         Alpha-Beta:  -0.32256748
                                         Alpha-Alpha: -0.13672967
                                         Beta-Beta:   -0.02624929

 Spin contamination <S**2-Sz**2-Sz>     0.00193326

 Memory could be reduced to 36.52 Mwords without degradation in triples
 

  Correlated core orbitals:             1.1       1.2       1.3       1.5
  Orbital energies:                    -3.0199   -1.9186   -1.9186   -1.9186
 
  UCCSD core-core energy               -0.181001841748
  UCCSD core-valence energy            -0.223639021592
  UCCSD valence correlation energy     -0.082847421941
 

 RESULTS
 =======

  Reference energy                    -67.468097267336
  UCCSD singles energy                 -0.001941846681
  UCCSD pair energy                    -0.485546438599
  UCCSD correlation energy             -0.487488285280
  Triples (T) contribution             -0.017736610118
  Total correlation energy             -0.505224895398
 
  RHF-UCCSD energy                    -67.955585552616
  RHF-UCCSD[T] energy                 -67.973445133582
  RHF-UCCSD-T energy                  -67.973354343204
 !RHF-UCCSD(T) energy                 -67.973322162734

 Program statistics:

 Available memory in ccsd:               511999000
 Min. memory needed in ccsd:               1785422
 Max. memory used in ccsd:                 2423687
 Max. memory used in cckext:               1845376 ( 8 integral passes)
 Max. memory used in cckint:               7035356 ( 1 integral passes)



 **********************************************************************************************************************************
 DATASETS  * FILE   NREC   LENGTH (MB)   RECORD NAMES
              1      20       26.04       500      610      700      900      950      970     1000      129      960     1100   
                                          VAR    BASINP    GEOM    SYMINP    ZMAT    AOBASIS   BASIS     P2S    ABASIS      S 
                                         1400     1410     1420     1200     1210     1080     1600     1650     1700     1380   
                                           T        V       ECP      H0       H01     AOSYM     SMH    MOLCAS    OPER     JKOP   

              2       6        8.68       700     1000      520     4202     5202     2101   
                                         GEOM     BASIS   MCVARS     RHF     MCSCF     RHF  

 PROGRAMS   *        TOTAL  UCCSD(T)       RHF     MULTI       POP       RHF       INT
 CPU TIMES  *        17.80      8.79      0.05      0.62      0.00      0.72      7.37
 REAL TIME  *        25.71 SEC
 DISK USED  *         2.47 GB      
 SF USED    *       555.71 MB      
 GA USED    *         0.00 MB       (max)       0.00 MB       (current)
 **********************************************************************************************************************************

 UCCSD(T)/USERDEF energy=    -67.973322162734

        UCCSD(T)        RHF-SCF         MULTI           RHF-SCF 
    -67.97332216    -67.46809727    -67.46809727    -67.46809727
 **********************************************************************************************************************************
 Molpro calculation terminated
 Variable memory released
