
 Primary working directories    : /global/cscratch1/sd/bkincaid
 Secondary working directories  : /global/cscratch1/sd/bkincaid
 Wavefunction directory         : /global/homes/b/bkincaid/wfu/
 Main file repository           : /global/cscratch1/sd/bkincaid/

 SHA1      : 19cd028119e0e09f93f0674bd8af7968d9b3eff6
 NAME      : 2015.1.36
 ARCHNAME  : linux/x86_64
 FC        : /opt/cray/pe/craype/2.5.14/bin/ftn
 BLASLIB   : -L/opt/intel/compilers_and_libraries_2018.1.163/linux/mkl/lib/intel64 -Wl,-_start-group -lmkl_intel_ilp64 -lmkl_intel_thread -lmkl_core -Wl,-_end-group -liomp5
 id        : lbl

 Nodes     nprocs
 nid01193    11
 Number of processes for MPI-2 version of Molpro:   nprocs(total)=   12   nprocs(compute)=   11   nprocs(helper)=    1

 Using customized tuning parameters: mindgm=7; mindgv=16; mindgc=1; mindgr=1; noblas=0; minvec=7
 default implementation of scratch files=sf  

 ***,Calculation for Ir groundstate
 memory,1024,m
 gthresh,twoint=1.0E-15
 gthresh,throvl=1.0E-15
                                                                                 !symmetry,nosym
 
                                                                                 !set,dkroll=1,dkho=10,dkhp=4
 
 basis={
 Including file /global/u1/b/bkincaid/molpro/Ir/atoms/tz/ecps/testing/bk2.6/bk2.6
 Including file /global/u1/b/bkincaid/molpro/Ir/atoms/tz/ecps/testing/bk2.6/tz.basis
 }
 
 geometry={
 1
 Iridium
 Ir 0.0 0.0 0.0
 }
 
 {rhf,maxdis=50,iptyp='DIIS',nitord=30,maxit=60; shift,-2.0,-1.0
  start,atden
  print,orbitals=2
  wf,17,1,3
  occ,4,1,1,1,1,1,1,0
  closed,4,1,1,0,1,0,0,0
  sym,1,1,1,3,2
  orbital,4202.2
 }
 
 
 scf(i)=energy
 _CC_NORM_MAX=2.0
 {rccsd(t);maxit,100;core}
 ccsd(i)=energy
 
 table,scf,ccsd
 save
 type,csv

 Variables initialized (889), CPU time= 0.01 sec
 Commands  initialized (702), CPU time= 0.01 sec, 572 directives.
 Default parameters read. Elapsed time= 0.18 sec

 Checking input...
 Passed
1


                                         ***  PROGRAM SYSTEM MOLPRO  ***
                                       Copyright, TTI GmbH Stuttgart, 2015
                                    Version 2015.1 linked Dec 29 2018 15:55:43


 **********************************************************************************************************************************
 LABEL *   Calculation for Ir groundstate                                                
  64 bit mpp version                                                                     DATE: 27-Mar-21          TIME: 22:08:32  
 **********************************************************************************************************************************

 SHA1:             19cd028119e0e09f93f0674bd8af7968d9b3eff6
 **********************************************************************************************************************************

 THRESHOLDS:

 ZERO    =  1.00D-12  ONEINT  =  1.00D-12  TWOINT  =  1.00D-15  PREFAC  =  1.00D-14  LOCALI  =  1.00D-09  EORDER  =  1.00D-04
 ENERGY  =  0.00D+00  ETEST   =  0.00D+00  EDENS   =  0.00D+00  THRDEDEF=  1.00D-06  GRADIENT=  1.00D-02  STEP    =  1.00D-03
 ORBITAL =  1.00D-05  CIVEC   =  1.00D-05  COEFF   =  1.00D-04  PRINTCI =  5.00D-02  PUNCHCI =  9.90D+01  OPTGRAD =  3.00D-04
 OPTENERG=  1.00D-06  OPTSTEP =  3.00D-04  THRGRAD =  1.00D-10  COMPRESS=  1.00D-11  VARMIN  =  1.00D-07  VARMAX  =  1.00D-03
 THRDOUB =  0.00D+00  THRDIV  =  1.00D-05  THRRED  =  1.00D-07  THRPSP  =  1.00D+00  THRDC   =  1.00D-10  THRCS   =  1.00D-10
 THRNRM  =  1.00D-08  THREQ   =  0.00D+00  THRDE   =  1.00D+00  THRREF  =  1.00D-05  SPARFAC =  1.00D+00  THRDLP  =  1.00D-07
 THRDIA  =  1.00D-10  THRDLS  =  1.00D-07  THRGPS  =  0.00D+00  THRKEX  =  0.00D+00  THRDIS  =  2.00D-01  THRVAR  =  1.00D-10
 THRLOC  =  1.00D-06  THRGAP  =  1.00D-06  THRLOCT = -1.00D+00  THRGAPT = -1.00D+00  THRORB  =  1.00D-06  THRMLTP =  0.00D+00
 THRCPQCI=  1.00D-10  KEXTA   =  0.00D+00  THRCOARS=  0.00D+00  SYMTOL  =  1.00D-06  GRADTOL =  1.00D-06  THROVL  =  1.00D-08
 THRORTH =  1.00D-08  GRID    =  1.00D-06  GRIDMAX =  1.00D-03  DTMAX   =  0.00D+00  THROCCDE=  1.00D-01  THROCCDE=  1.00D-01



 THRESHOLDS:

 ZERO    =  1.00D-12  ONEINT  =  1.00D-12  TWOINT  =  1.00D-15  PREFAC  =  1.00D-14  LOCALI  =  1.00D-09  EORDER  =  1.00D-04
 ENERGY  =  0.00D+00  ETEST   =  0.00D+00  EDENS   =  0.00D+00  THRDEDEF=  1.00D-06  GRADIENT=  1.00D-02  STEP    =  1.00D-03
 ORBITAL =  1.00D-05  CIVEC   =  1.00D-05  COEFF   =  1.00D-04  PRINTCI =  5.00D-02  PUNCHCI =  9.90D+01  OPTGRAD =  3.00D-04
 OPTENERG=  1.00D-06  OPTSTEP =  3.00D-04  THRGRAD =  1.00D-10  COMPRESS=  1.00D-11  VARMIN  =  1.00D-07  VARMAX  =  1.00D-03
 THRDOUB =  0.00D+00  THRDIV  =  1.00D-05  THRRED  =  1.00D-07  THRPSP  =  1.00D+00  THRDC   =  1.00D-10  THRCS   =  1.00D-10
 THRNRM  =  1.00D-08  THREQ   =  0.00D+00  THRDE   =  1.00D+00  THRREF  =  1.00D-05  SPARFAC =  1.00D+00  THRDLP  =  1.00D-07
 THRDIA  =  1.00D-10  THRDLS  =  1.00D-07  THRGPS  =  0.00D+00  THRKEX  =  0.00D+00  THRDIS  =  2.00D-01  THRVAR  =  1.00D-10
 THRLOC  =  1.00D-06  THRGAP  =  1.00D-06  THRLOCT = -1.00D+00  THRGAPT = -1.00D+00  THRORB  =  1.00D-06  THRMLTP =  0.00D+00
 THRCPQCI=  1.00D-10  KEXTA   =  0.00D+00  THRCOARS=  0.00D+00  SYMTOL  =  1.00D-06  GRADTOL =  1.00D-06  THROVL  =  1.00D-15
 THRORTH =  1.00D-08  GRID    =  1.00D-06  GRIDMAX =  1.00D-03  DTMAX   =  0.00D+00  THROCCDE=  1.00D-01  THROCCDE=  1.00D-01



 Variable memory set to 1024000000 words,  buffer space   230000 words

 SETTING BASIS          =    USERDEF

Geometry recognized as XYZ



 Recomputing integrals since basis changed


 Using spherical harmonics



 PROGRAM * SEWARD (Integral evaluation for generally contracted gaussian basis sets)     Author: Roland Lindh, 1990

 Geometry written to block  1 of record 700

 Orientation using atomic masses  
 Molecule type: Atom
 Symmetry elements: X,Y,Z
 Rotational constants:       0.0000000      0.0000000      0.0000000 GHz  (calculated with average atomic masses)

 Point group  D2h 



 ATOMIC COORDINATES

 NR  ATOM    CHARGE       X              Y              Z

   1  IR     17.00    0.000000000    0.000000000    0.000000000

 NUCLEAR CHARGE:                   17
 NUMBER OF PRIMITIVE AOS:         460
 NUMBER OF SYMMETRY AOS:          375
 NUMBER OF CONTRACTIONS:          375   (  90Ag  +  62B3u +  62B2u +  28B1g +  62B1u +  28B2g +  28B3g +  15Au  )
 NUMBER OF CORE ORBITALS:           4   (   1Ag  +   1B3u +   1B2u +   0B1g +   1B1u +   0B2g +   0B3g +   0Au  )
 NUMBER OF VALENCE ORBITALS:        6   (   3Ag  +   0B3u +   0B2u +   1B1g +   0B1u +   1B2g +   1B3g +   0Au  )


 NUCLEAR REPULSION ENERGY    0.00000000

 EXTRA SYMMETRY OF AOS IN SYMMETRY 1:   1 1 1 1 1 1 1 1 1 1   1 1 1 1 1 1 1 1 1 1   1 1 1 1 1 1 1 1 1 1   1 1 1 1 1 1 1 2 3 2
                                        3 2 3 2 3 2 3 2 3 2   3 2 3 2 3 2 3 2 3 2   3 2 3 2 3 2 3 2 3 2   3 2 3 2 3 2 3 2 3 2
                                        3 4 5 6 4 5 6 4 5 6
 EXTRA SYMMETRY OF AOS IN SYMMETRY 2:   1 1 1 1 1 1 1 1 1 1   1 1 1 1 1 1 1 1 1 1   1 1 1 1 1 1 1 1 1 1   1 1 2 3 2 3 2 3 2 3
                                        2 3 2 3 2 3 2 3 2 3   2 3 2 3 2 3 2 3 2 3   2 3
 EXTRA SYMMETRY OF AOS IN SYMMETRY 3:   1 1 1 1 1 1 1 1 1 1   1 1 1 1 1 1 1 1 1 1   1 1 1 1 1 1 1 1 1 1   1 1 2 3 2 3 2 3 2 3
                                        2 3 2 3 2 3 2 3 2 3   2 3 2 3 2 3 2 3 2 3   2 3
 EXTRA SYMMETRY OF AOS IN SYMMETRY 4:   1 1 1 1 1 1 1 1 1 1   1 1 1 1 1 1 1 1 1 1   1 1 2 3 2 3 2 3
 EXTRA SYMMETRY OF AOS IN SYMMETRY 5:   1 1 1 1 1 1 1 1 1 1   1 1 1 1 1 1 1 1 1 1   1 1 1 1 1 1 1 1 1 1   1 1 2 3 2 3 2 3 2 3
                                        2 3 2 3 2 3 2 3 2 3   2 3 2 3 2 3 2 3 2 3   2 3
 EXTRA SYMMETRY OF AOS IN SYMMETRY 6:   1 1 1 1 1 1 1 1 1 1   1 1 1 1 1 1 1 1 1 1   1 1 2 3 2 3 2 3
 EXTRA SYMMETRY OF AOS IN SYMMETRY 7:   1 1 1 1 1 1 1 1 1 1   1 1 1 1 1 1 1 1 1 1   1 1 2 3 2 3 2 3

 Eigenvalues of metric

         1 0.363E-06 0.805E-06 0.805E-06 0.149E-05 0.510E-05 0.203E-04 0.268E-04 0.268E-04
         2 0.172E-06 0.514E-05 0.116E-04 0.547E-04 0.547E-04 0.564E-04 0.176E-03 0.520E-03
         3 0.172E-06 0.514E-05 0.116E-04 0.547E-04 0.547E-04 0.564E-04 0.176E-03 0.520E-03
         4 0.805E-06 0.268E-04 0.166E-03 0.629E-03 0.214E-02 0.643E-02 0.130E-01 0.130E-01
         5 0.172E-06 0.514E-05 0.116E-04 0.547E-04 0.547E-04 0.564E-04 0.176E-03 0.520E-03
         6 0.805E-06 0.268E-04 0.166E-03 0.629E-03 0.214E-02 0.643E-02 0.130E-01 0.130E-01
         7 0.805E-06 0.268E-04 0.166E-03 0.629E-03 0.214E-02 0.643E-02 0.130E-01 0.130E-01
         8 0.547E-04 0.993E-03 0.560E-02 0.134E-01 0.354E-01 0.839E-01 0.163E+00 0.306E+00


 Contracted 2-electron integrals neglected if value below      1.0D-15

 Warning: maximum contribution to expansion of local PP integrals   0.5D+07
 AO integral compression algorithm  1   Integral accuracy      1.0D-15

     2626.421 MB (compressed) written to integral file ( 50.1%)

     Node minimum: 111.935 MB, node maximum: 342.622 MB


 NUMBER OF SORTED TWO-ELECTRON INTEGRALS:   29129504.     BUFFER LENGTH:  32768
 NUMBER OF SEGMENTS:   1  SEGMENT LENGTH:   29129504      RECORD LENGTH: 524288

 Memory used in sort:      29.69 MW

 SORT1 READ   655738417. AND WROTE    18766497. INTEGRALS IN     54 RECORDS. CPU TIME:    13.34 SEC, REAL TIME:    15.28 SEC
 SORT2 READ   205938055. AND WROTE   321160446. INTEGRALS IN  10043 RECORDS. CPU TIME:     1.78 SEC, REAL TIME:     2.23 SEC

 Node minimum:    29101769.  Node maximum:    29307080. integrals

 OPERATOR DM      FOR CENTER  0  COORDINATES:    0.000000    0.000000    0.000000


 **********************************************************************************************************************************
 DATASETS  * FILE   NREC   LENGTH (MB)   RECORD NAMES
              1      19       20.93       500      610      700      900      950      970     1000      129      960     1100   
                                          VAR    BASINP    GEOM    SYMINP    ZMAT    AOBASIS   BASIS     P2S    ABASIS      S 
                                         1400     1410     1420     1200     1210     1080     1600     1650     1700   
                                           T        V       ECP      H0       H01     AOSYM     SMH    MOLCAS    OPER   

 PROGRAMS   *        TOTAL       INT
 CPU TIMES  *       128.77    128.31
 REAL TIME  *       133.62 SEC
 DISK USED  *         5.11 GB      
 GA USED    *         0.00 MB       (max)       0.00 MB       (current)
 **********************************************************************************************************************************


 PROGRAM * RHF-SCF (OPEN SHELL)       Authors: W. Meyer, H.-J. Werner


 NUMBER OF ELECTRONS:      10+    7-    SPACE SYMMETRY=1    SPIN SYMMETRY: Quartet 
 CONVERGENCE THRESHOLDS:    1.00E-05 (Density)    1.00E-07 (Energy)
 MAX. NUMBER OF ITERATIONS:       60
 INTERPOLATION TYPE:            DIIS
 INTERPOLATION STEPS:              2 (START)      1 (STEP)
 LEVEL SHIFTS:                 -2.00 (CLOSED) -1.00 (OPEN) 

 Number of closed-shell orbitals:    7 (   4   1   1   0   1   0   0   0 )
 Number of open-shell orbitals:      3 (   0   0   0   1   0   1   1   0 )


 
 Extra symmetries of mos in symmetry 1:   1   1   3   2
 Orbital guess generated from atomic densities. Full valence occupancy:    4   1   1   1   1   1   1   0


 Molecular orbital dump at record        4202.2

 ITERATION    DDIFF          GRAD             ENERGY        2-EL.EN.            DIPOLE MOMENTS         DIIS   ORB.
    1      0.000D+00      0.000D+00      -103.76303821    153.470317    0.00000    0.00000    0.00000    0    start
    2      0.000D+00      0.375D-02      -103.76743728    153.258638    0.00000    0.00000    0.00000    1    diag,B
    3      0.195D-02      0.140D-02      -103.76887466    153.267988    0.00000    0.00000    0.00000    2    diag,B
    4      0.157D-02      0.546D-03      -103.76934568    153.296488    0.00000    0.00000    0.00000    3    diag,B
    5      0.615D-03      0.316D-03      -103.76958579    153.282888    0.00000    0.00000    0.00000    4    diag,B
    6      0.107D-02      0.163D-03      -103.76964533    153.249116    0.00000    0.00000    0.00000    5    diag,B
    7      0.964D-03      0.987D-04      -103.76967237    153.219448    0.00000    0.00000    0.00000    6    diag,B
    8      0.351D-03      0.572D-04      -103.76968287    153.201655    0.00000    0.00000    0.00000    7    diag,B
    9      0.549D-03      0.273D-04      -103.76968489    153.197251    0.00000    0.00000    0.00000    8    diag,B
   10      0.348D-03      0.144D-04      -103.76968539    153.196889    0.00000    0.00000    0.00000    9    orth
   11      0.773D-04      0.101D-04      -103.76968573    153.196415    0.00000    0.00000    0.00000   10    diag,B
   12      0.518D-04      0.608D-05      -103.76968583    153.195870    0.00000    0.00000    0.00000   11    diag,B
   13      0.542D-04      0.335D-05      -103.76968586    153.195273    0.00000    0.00000    0.00000   12    diag,B
   14      0.398D-04      0.149D-05      -103.76968587    153.195105    0.00000    0.00000    0.00000   13    diag,B
   15      0.109D-04      0.710D-06      -103.76968587    153.195010    0.00000    0.00000    0.00000   14    diag,B
   16      0.716D-05      0.119D-05      -103.76968587    153.195004    0.00000    0.00000    0.00000    0    orth

 Final alpha occupancy:   4   1   1   1   1   1   1   0
 Final beta  occupancy:   4   1   1   0   1   0   0   0

 !RHF STATE 1.1 Energy               -103.769685866741
 Nuclear energy                         0.00000000
 One-electron energy                 -180.36718808
 Two-electron energy                   76.59750221
 Virial quotient                       -2.97942668
 !RHF STATE 1.1 Dipole moment           0.00000000     0.00000000     0.00000000
 Dipole moment /Debye                   0.00000000     0.00000000     0.00000000

 ELECTRON ORBITALS
 =================


   Orb  Occ    Energy  Couls-En    Coefficients

                                   1 1s      1 1s      1 1s      1 1s      1 1s      1 1s      1 1s      1 1s      1 1s      1 1s   
                                   1 1s      1 1s      1 1s      1 1s      1 1s      1 1s      1 1s      1 1s      1 1s      1 1s   
                                   1 1s      1 1s      1 1s      1 1s      1 1s      1 1s      1 1s      1 1s      1 1s      1 1s   
                                   1 1s      1 1s      1 1s      1 1s      1 1s      1 1s      1 1s      1 3d0     1 3d2+    1 3d0  
                                   1 3d2+    1 3d0     1 3d2+    1 3d0     1 3d2+    1 3d0     1 3d2+    1 3d0     1 3d2+    1 3d0  
                                   1 3d2+    1 3d0     1 3d2+    1 3d0     1 3d2+    1 3d0     1 3d2+    1 3d0     1 3d2+    1 3d0  
                                   1 3d2+    1 3d0     1 3d2+    1 3d0     1 3d2+    1 3d0     1 3d2+    1 3d0     1 3d2+    1 3d0  
                                   1 3d2+    1 3d0     1 3d2+    1 3d0     1 3d2+    1 3d0     1 3d2+    1 3d0     1 3d2+    1 3d0  
                                   1 3d2+    1 5g0     1 5g4+    1 5g2+    1 5g0     1 5g4+    1 5g2+    1 5g0     1 5g4+    1 5g2+ 


   1.1   2    -4.2289  -18.8809 -0.000000  0.000000 -0.000000  0.000000 -0.000000  0.000000 -0.000000  0.000000 -0.000000  0.000000
                                -0.000000  0.000001 -0.000002  0.000004 -0.000013  0.000046 -0.000344  0.000745 -0.000726  0.000735
                                -0.001411  0.003644 -0.013519  0.117104 -0.353281  0.336547  0.161158 -0.755978 -0.063682 -0.065494
                                 0.853482  0.033796  0.507709  0.034253 -0.009797  0.003670 -0.000966 -0.000000  0.000000  0.000000
                                 0.000000 -0.000000 -0.000000  0.000000 -0.000000 -0.000000  0.000000  0.000000 -0.000000 -0.000000
                                 0.000000  0.000000 -0.000000 -0.000001  0.000000  0.000001 -0.000001 -0.000004  0.000003  0.000023
                                -0.000016 -0.000092  0.000072  0.000113 -0.000095 -0.000075  0.000069  0.000039 -0.000037 -0.000008
                                 0.000008  0.000008 -0.000008 -0.000005  0.000005  0.000000 -0.000000 -0.000000  0.000000  0.000000
                                -0.000000  0.000462  0.000391  0.000000 -0.000939 -0.000794 -0.000000  0.001689  0.001428  0.000000

   2.1   2    -0.2973   -6.2681  0.000000 -0.000000  0.000000 -0.000000  0.000000 -0.000000  0.000000 -0.000000  0.000000 -0.000000
                                 0.000000 -0.000000  0.000001 -0.000001  0.000004 -0.000015  0.000109 -0.000237  0.000231 -0.000234
                                 0.000450 -0.001170  0.004394 -0.039123  0.120540 -0.117646 -0.054172  0.286995  0.002020  0.037716
                                -0.413999 -0.021029 -0.351664  0.274603  0.659744  0.291434  0.002163 -0.000000  0.000000  0.000000
                                -0.000000 -0.000000 -0.000000  0.000000  0.000000 -0.000000 -0.000000  0.000000  0.000000 -0.000000
                                -0.000000  0.000000  0.000000 -0.000000 -0.000000  0.000000  0.000000 -0.000000 -0.000000  0.000000
                                 0.000000 -0.000000 -0.000000  0.000000 -0.000000 -0.000000 -0.000000  0.000000  0.000000 -0.000000
                                 0.000000 -0.000000  0.000000  0.000000  0.000000 -0.000000  0.000000 -0.000000  0.000000  0.000000
                                 0.000000  0.000593  0.000501 -0.000000 -0.000060 -0.000051  0.000000  0.000345  0.000291 -0.000000

   3.1   2    -0.4575   -9.5427  0.000000 -0.000000 -0.000000  0.000000 -0.000000  0.000000 -0.000000  0.000000 -0.000000  0.000000
                                -0.000000  0.000000 -0.000000  0.000000 -0.000000  0.000000 -0.000000  0.000000 -0.000000  0.000000
                                -0.000000  0.000000 -0.000000  0.000002 -0.000004  0.000004 -0.000003  0.000009 -0.000033  0.000037
                                -0.000029  0.000058 -0.000046  0.000015 -0.000017  0.000019 -0.000013  0.000000 -0.000000 -0.000000
                                 0.000000  0.000000 -0.000000 -0.000000  0.000000  0.000000  0.000000 -0.000000 -0.000000  0.000000
                                 0.000001 -0.000000 -0.000004  0.000000  0.000025 -0.000002 -0.000175  0.000012  0.001362 -0.000101
                                -0.011144 -0.000277 -0.030784  0.000897  0.099248  0.000145  0.015731 -0.000224 -0.024538 -0.002299
                                -0.253864 -0.000059 -0.006344 -0.003582 -0.395718 -0.003181 -0.351012 -0.001630 -0.180206 -0.000280
                                -0.030637 -0.000006  0.000008  0.001136  0.000010 -0.000012 -0.001738 -0.000010  0.000013  0.001820

   4.1   2    -0.4575   -9.5428 -0.000000  0.000000 -0.000000 -0.000000  0.000000 -0.000000  0.000000 -0.000000  0.000000 -0.000000
                                 0.000000 -0.000000  0.000000 -0.000000  0.000000 -0.000000  0.000000 -0.000000  0.000000 -0.000000
                                 0.000000 -0.000000  0.000000 -0.000000  0.000000 -0.000000  0.000000 -0.000001  0.000003 -0.000003
                                 0.000002 -0.000006  0.000004 -0.000000 -0.000001  0.000002 -0.000001  0.000000  0.000000 -0.000000
                                -0.000000  0.000000  0.000000 -0.000000 -0.000000 -0.000000  0.000000  0.000000 -0.000000 -0.000001
                                 0.000000  0.000004 -0.000000 -0.000025  0.000000  0.000175 -0.000002 -0.001362  0.000012  0.011144
                                -0.000101  0.030783 -0.000279 -0.099247  0.000900 -0.015732  0.000142  0.024539 -0.000222  0.253863
                                -0.002300  0.006345 -0.000057  0.395718 -0.003585  0.351012 -0.003179  0.180207 -0.001633  0.030636
                                -0.000278  0.000733 -0.000868  0.000010 -0.001122  0.001328 -0.000016  0.001174 -0.001390  0.000016

   5.1   0     0.0343   -1.9550  0.000000 -0.000000  0.000000 -0.000000  0.000000 -0.000000  0.000000 -0.000000  0.000000 -0.000000
                                 0.000000 -0.000001  0.000002 -0.000005  0.000016 -0.000056  0.000417 -0.000899  0.000870 -0.000861
                                 0.001573 -0.003665  0.010732 -0.055736  0.126402 -0.119838  0.128991 -0.356255  1.112967 -1.253910
                                 1.003385 -1.722941  1.438763 -0.629830  0.916155 -2.338709  2.332334 -0.000000  0.000000  0.000000
                                -0.000000 -0.000000  0.000000  0.000000 -0.000000 -0.000000  0.000000  0.000000 -0.000000 -0.000000
                                 0.000000  0.000000 -0.000000 -0.000000  0.000000  0.000000 -0.000000 -0.000000  0.000000  0.000000
                                -0.000001 -0.000001  0.000002  0.000002 -0.000003 -0.000002  0.000004  0.000002 -0.000003 -0.000001
                                -0.000001  0.000002  0.000000 -0.000001 -0.000002  0.000001 -0.000001 -0.000001 -0.000001  0.000001
                                 0.000001  0.000293  0.000248  0.000000 -0.001023 -0.000865 -0.000000  0.001328  0.001123  0.000000

   6.1   0     0.1869   -2.8204 -0.000000  0.000000 -0.000000  0.000000 -0.000000  0.000000 -0.000000  0.000000 -0.000000  0.000000
                                -0.000001  0.000003 -0.000008  0.000021 -0.000062  0.000226 -0.001676  0.003612 -0.003498  0.003470
                                -0.006376  0.015026 -0.045398  0.259224 -0.633755  0.606106 -0.393975  0.891861 -4.091266  4.555942
                                -3.110817  6.522252 -4.908779  2.070495 -5.157427  5.631687 -2.194466  0.000000  0.000000 -0.000000
                                -0.000000  0.000000  0.000000 -0.000000 -0.000000  0.000000  0.000000 -0.000000 -0.000000  0.000000
                                 0.000000 -0.000000 -0.000000  0.000000  0.000000 -0.000000 -0.000000  0.000001  0.000000 -0.000004
                                -0.000001  0.000021  0.000008 -0.000032 -0.000012  0.000035  0.000012 -0.000026 -0.000010  0.000017
                                 0.000010 -0.000038 -0.000024  0.000035  0.000024 -0.000010 -0.000007  0.000015  0.000011 -0.000030
                                -0.000021  0.000688  0.000582 -0.000000 -0.002422 -0.002047  0.000001  0.003234  0.002734 -0.000001

                                   1 2px     1 2px     1 2px     1 2px     1 2px     1 2px     1 2px     1 2px     1 2px     1 2px  
                                   1 2px     1 2px     1 2px     1 2px     1 2px     1 2px     1 2px     1 2px     1 2px     1 2px  
                                   1 2px     1 2px     1 2px     1 2px     1 2px     1 2px     1 2px     1 2px     1 2px     1 2px  
                                   1 2px     1 2px     1 4f1+    1 4f3+    1 4f1+    1 4f3+    1 4f1+    1 4f3+    1 4f1+    1 4f3+ 
                                   1 4f1+    1 4f3+    1 4f1+    1 4f3+    1 4f1+    1 4f3+    1 4f1+    1 4f3+    1 4f1+    1 4f3+ 
                                   1 4f1+    1 4f3+    1 4f1+    1 4f3+    1 4f1+    1 4f3+    1 4f1+    1 4f3+    1 4f1+    1 4f3+ 
                                   1 4f1+    1 4f3+ 

   1.2   2    -2.4526  -14.9939 -0.000000  0.000000 -0.000000  0.000000 -0.000000  0.000000 -0.000000  0.000000 -0.000001  0.000002
                                -0.000008  0.000031 -0.000198  0.000722 -0.000808  0.000606 -0.000982  0.001996 -0.004405  0.003482
                                 0.060488 -0.240593  0.086149 -0.253878  0.115416  0.327122  0.555100  0.015190  0.264596  0.030933
                                -0.000609  0.000532  0.000000 -0.000000 -0.000000  0.000000  0.000000 -0.000000 -0.000000  0.000000
                                -0.000000  0.000001 -0.000015  0.000019 -0.000039  0.000051 -0.000071  0.000091 -0.000028  0.000037
                                -0.000599  0.000774 -0.000580  0.000749 -0.001682  0.002172 -0.001473  0.001901 -0.001421  0.001834
                                -0.000503  0.000650

   2.2   0     0.0349   -3.3765 -0.000000  0.000000 -0.000000  0.000000 -0.000000  0.000000 -0.000000  0.000000 -0.000001  0.000002
                                -0.000009  0.000034 -0.000215  0.000783 -0.000871  0.000640 -0.000999  0.001896 -0.004059  0.011255
                                -0.049713  0.431299 -0.743831  1.201413 -1.269978  0.612690 -0.748571  0.858164 -0.597325  0.372628
                                -0.169845  1.012313  0.000000 -0.000000 -0.000000  0.000000  0.000000 -0.000000 -0.000001  0.000001
                                 0.000002 -0.000003 -0.000006  0.000007  0.000011 -0.000014 -0.000042  0.000054  0.000322 -0.000416
                                -0.000864  0.001115  0.001084 -0.001399 -0.001387  0.001790  0.001348 -0.001741 -0.000197  0.000255
                                 0.001634 -0.002109

   3.2   0     0.1639   -3.4242  0.000000 -0.000000  0.000000 -0.000000  0.000000 -0.000000  0.000000 -0.000001  0.000003 -0.000012
                                 0.000040 -0.000158  0.001016 -0.003695  0.004116 -0.003037  0.004773 -0.009190  0.019861 -0.047828
                                 0.144015 -1.482254  2.854494 -4.517477  4.902614 -2.750848  2.407223 -3.522094  2.221549 -0.958260
                                 2.294276 -1.574068  0.000000 -0.000000 -0.000000  0.000000  0.000000 -0.000000 -0.000001  0.000001
                                 0.000003 -0.000004 -0.000008  0.000011  0.000017 -0.000022 -0.000061  0.000079  0.000484 -0.000625
                                -0.001286  0.001660  0.001630 -0.002104 -0.001991  0.002571  0.002024 -0.002612 -0.000067  0.000087
                                 0.002708 -0.003497

                                   1 2py     1 2py     1 2py     1 2py     1 2py     1 2py     1 2py     1 2py     1 2py     1 2py  
                                   1 2py     1 2py     1 2py     1 2py     1 2py     1 2py     1 2py     1 2py     1 2py     1 2py  
                                   1 2py     1 2py     1 2py     1 2py     1 2py     1 2py     1 2py     1 2py     1 2py     1 2py  
                                   1 2py     1 2py     1 4f1-    1 4f3-    1 4f1-    1 4f3-    1 4f1-    1 4f3-    1 4f1-    1 4f3- 
                                   1 4f1-    1 4f3-    1 4f1-    1 4f3-    1 4f1-    1 4f3-    1 4f1-    1 4f3-    1 4f1-    1 4f3- 
                                   1 4f1-    1 4f3-    1 4f1-    1 4f3-    1 4f1-    1 4f3-    1 4f1-    1 4f3-    1 4f1-    1 4f3- 
                                   1 4f1-    1 4f3- 

   1.3   2    -2.4526  -14.9939 -0.000000  0.000000 -0.000000  0.000000 -0.000000  0.000000 -0.000000  0.000000 -0.000001  0.000002
                                -0.000008  0.000031 -0.000198  0.000722 -0.000808  0.000606 -0.000982  0.001996 -0.004405  0.003482
                                 0.060488 -0.240589  0.086142 -0.253870  0.115410  0.327124  0.555100  0.015189  0.264596  0.030933
                                -0.000609  0.000532  0.000000  0.000000 -0.000000 -0.000000  0.000000  0.000000 -0.000000 -0.000000
                                -0.000000 -0.000001 -0.000015 -0.000019 -0.000039 -0.000051 -0.000071 -0.000091 -0.000028 -0.000037
                                -0.000599 -0.000774 -0.000580 -0.000749 -0.001682 -0.002172 -0.001473 -0.001901 -0.001421 -0.001834
                                -0.000503 -0.000650

   2.3   0     0.0349   -3.3765 -0.000000  0.000000 -0.000000  0.000000 -0.000000  0.000000 -0.000000  0.000000 -0.000001  0.000002
                                -0.000009  0.000034 -0.000215  0.000783 -0.000871  0.000640 -0.000999  0.001896 -0.004059  0.011255
                                -0.049713  0.431299 -0.743831  1.201413 -1.269977  0.612689 -0.748570  0.858164 -0.597325  0.372628
                                -0.169845  1.012313  0.000000  0.000000 -0.000000 -0.000000  0.000000  0.000000 -0.000001 -0.000001
                                 0.000002  0.000003 -0.000006 -0.000007  0.000011  0.000014 -0.000042 -0.000054  0.000322  0.000416
                                -0.000864 -0.001115  0.001084  0.001399 -0.001387 -0.001790  0.001348  0.001741 -0.000197 -0.000255
                                 0.001634  0.002109

   3.3   0     0.1639   -3.4242  0.000000 -0.000000  0.000000 -0.000000  0.000000 -0.000000  0.000000 -0.000001  0.000003 -0.000012
                                 0.000040 -0.000158  0.001016 -0.003695  0.004116 -0.003037  0.004773 -0.009190  0.019861 -0.047828
                                 0.144015 -1.482255  2.854495 -4.517478  4.902616 -2.750849  2.407224 -3.522095  2.221550 -0.958261
                                 2.294276 -1.574068  0.000000  0.000000 -0.000000 -0.000000  0.000000  0.000000 -0.000001 -0.000001
                                 0.000003  0.000004 -0.000008 -0.000011  0.000017  0.000022 -0.000061 -0.000079  0.000484  0.000625
                                -0.001286 -0.001660  0.001630  0.002104 -0.001991 -0.002571  0.002024  0.002612 -0.000067 -0.000087
                                 0.002709  0.003497

                                   1 3d2-    1 3d2-    1 3d2-    1 3d2-    1 3d2-    1 3d2-    1 3d2-    1 3d2-    1 3d2-    1 3d2- 
                                   1 3d2-    1 3d2-    1 3d2-    1 3d2-    1 3d2-    1 3d2-    1 3d2-    1 3d2-    1 3d2-    1 3d2- 
                                   1 3d2-    1 3d2-    1 5g2-    1 5g4-    1 5g2-    1 5g4-    1 5g2-    1 5g4- 

   1.4   +    -0.5247   -9.7023  0.000000 -0.000000  0.000000 -0.000000  0.000000 -0.000000  0.000000  0.000002 -0.000020  0.000163
                                -0.001333  0.010964  0.033068 -0.103232 -0.012742  0.021050  0.259005  0.005229  0.410094  0.351956
                                 0.159842  0.020407  0.001453  0.000000 -0.001745 -0.000000  0.003310  0.000000

   2.4   0     0.1966   -2.8824 -0.000000  0.000001 -0.000003  0.000015 -0.000060  0.000202 -0.000594  0.001561 -0.003831  0.009539
                                -0.028308  0.159001 -0.877526  1.354000 -1.440557  1.082698 -0.736674  1.625684 -1.537997  0.446862
                                -0.672704  1.327767 -0.000136  0.000000 -0.000007 -0.000000 -0.000331  0.000000

   3.4   0     0.6634   -3.6408  0.000000 -0.000002  0.000010 -0.000046  0.000182 -0.000617  0.001820 -0.004786  0.011771 -0.029456
                                 0.088482 -0.502313  2.674402 -4.073292  4.488355 -3.401128  2.030283 -5.254279  4.527823 -1.997594
                                 2.474587 -1.049070 -0.000005  0.000000 -0.000838 -0.000000 -0.000042  0.000000

                                   1 2pz     1 2pz     1 2pz     1 2pz     1 2pz     1 2pz     1 2pz     1 2pz     1 2pz     1 2pz  
                                   1 2pz     1 2pz     1 2pz     1 2pz     1 2pz     1 2pz     1 2pz     1 2pz     1 2pz     1 2pz  
                                   1 2pz     1 2pz     1 2pz     1 2pz     1 2pz     1 2pz     1 2pz     1 2pz     1 2pz     1 2pz  
                                   1 2pz     1 2pz     1 4f0     1 4f2+    1 4f0     1 4f2+    1 4f0     1 4f2+    1 4f0     1 4f2+ 
                                   1 4f0     1 4f2+    1 4f0     1 4f2+    1 4f0     1 4f2+    1 4f0     1 4f2+    1 4f0     1 4f2+ 
                                   1 4f0     1 4f2+    1 4f0     1 4f2+    1 4f0     1 4f2+    1 4f0     1 4f2+    1 4f0     1 4f2+ 
                                   1 4f0     1 4f2+ 

   1.5   2    -2.4526  -14.9939 -0.000000  0.000000 -0.000000  0.000000 -0.000000  0.000000 -0.000000  0.000000 -0.000001  0.000002
                                -0.000008  0.000031 -0.000198  0.000722 -0.000808  0.000606 -0.000982  0.001996 -0.004405  0.003482
                                 0.060488 -0.240590  0.086144 -0.253872  0.115411  0.327124  0.555099  0.015190  0.264596  0.030933
                                -0.000609  0.000532 -0.000000 -0.000000  0.000000 -0.000000 -0.000000 -0.000000  0.000000  0.000000
                                 0.000001 -0.000000  0.000024  0.000000  0.000064 -0.000000  0.000116  0.000000  0.000046 -0.000000
                                 0.000979  0.000000  0.000947 -0.000000  0.002747  0.000000  0.002405  0.000000  0.002320 -0.000000
                                 0.000822 -0.000000

   2.5   0     0.0349   -3.3765 -0.000000  0.000000 -0.000000  0.000000 -0.000000  0.000000 -0.000000  0.000000 -0.000001  0.000002
                                -0.000009  0.000034 -0.000215  0.000783 -0.000871  0.000640 -0.000999  0.001896 -0.004059  0.011255
                                -0.049713  0.431299 -0.743831  1.201413 -1.269977  0.612690 -0.748571  0.858164 -0.597325  0.372628
                                -0.169845  1.012313 -0.000000  0.000000  0.000000 -0.000000 -0.000000  0.000000  0.000001 -0.000000
                                -0.000003  0.000000  0.000009 -0.000000 -0.000017  0.000000  0.000068 -0.000000 -0.000526  0.000000
                                 0.001410 -0.000000 -0.001770  0.000000  0.002264 -0.000000 -0.002202  0.000000  0.000322 -0.000000
                                -0.002668  0.000000

   3.5   0     0.1639   -3.4242  0.000000 -0.000000  0.000000 -0.000000  0.000000 -0.000000  0.000000 -0.000001  0.000003 -0.000012
                                 0.000040 -0.000158  0.001016 -0.003695  0.004116 -0.003037  0.004773 -0.009190  0.019861 -0.047828
                                 0.144015 -1.482254  2.854494 -4.517477  4.902615 -2.750849  2.407223 -3.522094  2.221550 -0.958261
                                 2.294276 -1.574068 -0.000000  0.000000  0.000000 -0.000000 -0.000000 -0.000000  0.000002  0.000000
                                -0.000005 -0.000000  0.000014  0.000000 -0.000028 -0.000000  0.000099  0.000000 -0.000791 -0.000000
                                 0.002100  0.000000 -0.002661 -0.000000  0.003252  0.000000 -0.003305 -0.000000  0.000110  0.000000
                                -0.004423 -0.000000

                                   1 3d1+    1 3d1+    1 3d1+    1 3d1+    1 3d1+    1 3d1+    1 3d1+    1 3d1+    1 3d1+    1 3d1+ 
                                   1 3d1+    1 3d1+    1 3d1+    1 3d1+    1 3d1+    1 3d1+    1 3d1+    1 3d1+    1 3d1+    1 3d1+ 
                                   1 3d1+    1 3d1+    1 5g1+    1 5g3+    1 5g1+    1 5g3+    1 5g1+    1 5g3+ 

   1.6   +    -0.5247   -9.7023  0.000000 -0.000000  0.000000 -0.000000  0.000000 -0.000000  0.000000  0.000002 -0.000020  0.000163
                                -0.001333  0.010964  0.033068 -0.103232 -0.012742  0.021050  0.259005  0.005229  0.410094  0.351956
                                 0.159842  0.020407 -0.000514 -0.001359  0.000617  0.001633 -0.001170 -0.003096

   2.6   0     0.1966   -2.8824 -0.000000  0.000001 -0.000003  0.000015 -0.000060  0.000202 -0.000594  0.001561 -0.003831  0.009539
                                -0.028308  0.159001 -0.877526  1.354000 -1.440557  1.082698 -0.736674  1.625684 -1.537997  0.446862
                                -0.672704  1.327767  0.000048  0.000127  0.000002  0.000007  0.000117  0.000309

   3.6   0     0.6634   -3.6408  0.000000 -0.000002  0.000010 -0.000046  0.000182 -0.000617  0.001820 -0.004786  0.011771 -0.029456
                                 0.088482 -0.502313  2.674402 -4.073292  4.488355 -3.401128  2.030283 -5.254279  4.527823 -1.997594
                                 2.474587 -1.049070  0.000002  0.000004  0.000296  0.000784  0.000015  0.000039

                                   1 3d1-    1 3d1-    1 3d1-    1 3d1-    1 3d1-    1 3d1-    1 3d1-    1 3d1-    1 3d1-    1 3d1- 
                                   1 3d1-    1 3d1-    1 3d1-    1 3d1-    1 3d1-    1 3d1-    1 3d1-    1 3d1-    1 3d1-    1 3d1- 
                                   1 3d1-    1 3d1-    1 5g1-    1 5g3-    1 5g1-    1 5g3-    1 5g1-    1 5g3- 

   1.7   +    -0.5247   -9.7023  0.000000 -0.000000  0.000000 -0.000000  0.000000 -0.000000  0.000000  0.000002 -0.000020  0.000163
                                -0.001333  0.010964  0.033068 -0.103232 -0.012742  0.021050  0.259005  0.005229  0.410094  0.351956
                                 0.159842  0.020407 -0.000514  0.001359  0.000617 -0.001633 -0.001170  0.003096

   2.7   0     0.1966   -2.8824 -0.000000  0.000001 -0.000003  0.000015 -0.000060  0.000202 -0.000594  0.001561 -0.003831  0.009539
                                -0.028308  0.159001 -0.877526  1.354000 -1.440557  1.082698 -0.736674  1.625684 -1.537997  0.446862
                                -0.672704  1.327767  0.000048 -0.000127  0.000002 -0.000007  0.000117 -0.000309

   3.7   0     0.6634   -3.6408  0.000000 -0.000002  0.000010 -0.000046  0.000182 -0.000617  0.001820 -0.004786  0.011771 -0.029456
                                 0.088482 -0.502314  2.674402 -4.073292  4.488355 -3.401128  2.030283 -5.254279  4.527823 -1.997594
                                 2.474587 -1.049070  0.000002 -0.000004  0.000296 -0.000784  0.000015 -0.000039

                                   1 4f2-    1 4f2-    1 4f2-    1 4f2-    1 4f2-    1 4f2-    1 4f2-    1 4f2-    1 4f2-    1 4f2- 
                                   1 4f2-    1 4f2-    1 4f2-    1 4f2-    1 4f2- 

   1.8   0     0.5745   -3.4933  0.000012 -0.000078  0.000359 -0.001277  0.003761 -0.009626  0.025883 -0.074481  0.482315 -1.247505
                                 2.080566 -2.292905  2.123229 -1.585999  1.503107

   2.8   0     1.2852   -3.8487 -0.000022  0.000148 -0.000682  0.002425 -0.007069  0.019515 -0.045911  0.150969 -0.931298  2.450444
                                -4.055462  4.715996 -4.186388  3.794461 -1.387643

 HOMO      4.1    -0.457520 =     -12.4498eV
 LUMO      5.1     0.034338 =       0.9344eV
 LUMO-HOMO         0.491858 =      13.3841eV


 **********************************************************************************************************************************
 DATASETS  * FILE   NREC   LENGTH (MB)   RECORD NAMES
              1      19       20.98       500      610      700      900      950      970     1000      129      960     1100   
                                          VAR    BASINP    GEOM    SYMINP    ZMAT    AOBASIS   BASIS     P2S    ABASIS      S 
                                         1400     1410     1420     1200     1210     1080     1600     1650     1700   
                                           T        V       ECP      H0       H01     AOSYM     SMH    MOLCAS    OPER   

              2       4        3.43       700     1000      520     4202   
                                         GEOM     BASIS   MCVARS     RHF  

 PROGRAMS   *        TOTAL       RHF       INT
 CPU TIMES  *       130.92      2.15    128.31
 REAL TIME  *       136.16 SEC
 DISK USED  *         5.51 GB      
 SF USED    *         0.09 MB      
 GA USED    *         0.00 MB       (max)       0.00 MB       (current)
 **********************************************************************************************************************************
 SETTING SCF(I)         =      -103.76968587  AU                              
 SETTING _CC_NORM_MAX   =         2.00000000                                  


 PROGRAM * CCSD (Restricted open-shell coupled cluster)     Authors: C. Hampel, H.-J. Werner, 1991, M. Deegan, P.J. Knowles, 1992


 Convergence thresholds:  THRVAR = 1.00D-08  THRDEN = 1.00D-06

 CCSD(T)     terms to be evaluated (factor= 1.000)


 Number of closed-shell orbitals:   7 (   4   1   1   0   1   0   0   0 )
 Number of active  orbitals:        3 (   0   0   0   1   0   1   1   0 )
 Number of external orbitals:     365 (  86  61  61  27  61  27  27  15 )

 Memory could be reduced to 110.89 Mwords without degradation in triples

 Number of N-1 electron functions:              17
 Number of N-2 electron functions:             136
 Number of singly external CSFs:              1138
 Number of doubly external CSFs:           1847494
 Total number of CSFs:                     1848632

 Molecular orbitals read from record     4202.2  Type=RHF/CANONICAL (state 1.1)

 Integral transformation finished. Total CPU:   2.17 sec, npass=  1  Memory used:  20.21 MW

 Starting RMP2 calculation

 Wavefunction is spin-projected

 ITER.      SQ.NORM     CORR.ENERGY   TOTAL ENERGY   ENERGY CHANGE        DEN1      VAR(S)    VAR(P)  DIIS     TIME
   1      1.13895366    -0.60224291  -104.37192878    -0.60224291    -0.00136813  0.10D-04  0.81D-03  1  1     2.69
   2      1.14100525    -0.60371456  -104.37340043    -0.00147166    -0.00000868  0.38D-07  0.80D-05  2  2     3.28
   3      1.14119466    -0.60379149  -104.37347736    -0.00007693    -0.00000004  0.18D-09  0.41D-07  3  3     3.84
   4      1.14120194    -0.60379305  -104.37347892    -0.00000156    -0.00000000  0.48D-11  0.19D-09  4  4     4.43
   5      1.14120198    -0.60379304  -104.37347891     0.00000001    -0.00000000  0.12D-12  0.93D-12  5  5     4.99

 Norm of t1 vector:      0.04727352      S-energy:    -0.00656335      T1 diagnostic:  0.00014706
 Norm of t2 vector:      0.37278304      P-energy:    -0.59722969
                                         Alpha-Beta:  -0.41678407
                                         Alpha-Alpha: -0.12263624
                                         Beta-Beta:   -0.05780938

 Spin contamination <S**2-Sz**2-Sz>     0.00000000
  Reference energy                   -103.769685866741
  RHF-RMP2 correlation energy          -0.603793039373
 !RHF-RMP2 energy                    -104.373478906114
 (NB above energy spin projected)

 Starting RCCSD calculation

 ITER.      SQ.NORM     CORR.ENERGY   TOTAL ENERGY   ENERGY CHANGE        DEN1      VAR(S)    VAR(P)  DIIS     TIME
   1      1.12614922    -0.57194635  -104.34163222    -0.57194635    -0.01184930  0.33D-02  0.24D-02  1  1     6.88
   2      1.13799264    -0.58276091  -104.35244677    -0.01081455    -0.00104593  0.36D-03  0.42D-03  2  2     8.60
   3      1.14468878    -0.58461418  -104.35430005    -0.00185327    -0.00011404  0.81D-04  0.33D-04  3  3    10.34
   4      1.14827337    -0.58553596  -104.35522183    -0.00092178    -0.00000446  0.24D-05  0.14D-05  4  4    12.33
   5      1.14862935    -0.58558267  -104.35526854    -0.00004671    -0.00000040  0.30D-06  0.14D-06  5  5    14.00
   6      1.14873212    -0.58559889  -104.35528476    -0.00001623    -0.00000003  0.14D-07  0.17D-07  6  6    15.62
   7      1.14873014    -0.58559807  -104.35528394     0.00000082    -0.00000000  0.86D-09  0.16D-08  6  1    17.39

 Norm of t1 vector:      0.11115284      S-energy:    -0.00659252      T1 diagnostic:  0.01627636
                                                                       D1 diagnostic:  0.06087946
 Norm of t2 vector:      0.36929011      P-energy:    -0.57900556
                                         Alpha-Beta:  -0.41999182
                                         Alpha-Alpha: -0.10779307
                                         Beta-Beta:   -0.05122067

 Singles amplitudes (print threshold =  0.500E-01):

         I         SYM. A    A   T(IA) [Alpha-Alpha]

         2         1         2     -0.06548381

 Spin contamination <S**2-Sz**2-Sz>     0.00000000

 Memory could be reduced to 115.46 Mwords without degradation in triples
 

  Correlated core orbitals:             1.1       1.2       1.3       1.5
  Orbital energies:                    -4.3076   -2.5607   -2.5607   -2.5607
 
  RCCSD core-core energy               -0.128257873562
  RCCSD core-valence energy            -0.217548587814
  RCCSD valence correlation energy     -0.239791613090
 

 RESULTS
 =======

  Reference energy                   -103.769685866741
  RCCSD singles energy                 -0.006592517744
  RCCSD pair energy                    -0.579005556722
  RCCSD correlation energy             -0.585598074466
  Triples (T) contribution             -0.022393382732
  Total correlation energy             -0.607991457198
 
  RHF-RCCSD energy                   -104.355283941207
  RHF-RCCSD[T] energy                -104.378007293262
  RHF-RCCSD-T energy                 -104.377599595765
 !RHF-RCCSD(T) energy                -104.377677323939

 Program statistics:

 Available memory in ccsd:              1023999000
 Min. memory needed in ccsd:               5644238
 Max. memory used in ccsd:                 7880512
 Max. memory used in cckext:               6225900 ( 7 integral passes)
 Max. memory used in cckint:              20213584 ( 1 integral passes)



 **********************************************************************************************************************************
 DATASETS  * FILE   NREC   LENGTH (MB)   RECORD NAMES
              1      19       20.98       500      610      700      900      950      970     1000      129      960     1100   
                                          VAR    BASINP    GEOM    SYMINP    ZMAT    AOBASIS   BASIS     P2S    ABASIS      S 
                                         1400     1410     1420     1200     1210     1080     1600     1650     1700   
                                           T        V       ECP      H0       H01     AOSYM     SMH    MOLCAS    OPER   

              2       4        3.43       700     1000      520     4202   
                                         GEOM     BASIS   MCVARS     RHF  

 PROGRAMS   *        TOTAL  RCCSD(T)       RHF       INT
 CPU TIMES  *       177.57     46.64      2.15    128.31
 REAL TIME  *       194.52 SEC
 DISK USED  *         7.95 GB      
 SF USED    *         1.75 GB      
 GA USED    *         0.00 MB       (max)       0.00 MB       (current)
 **********************************************************************************************************************************
 SETTING CCSD(I)        =      -104.37767732  AU                              
 Output type csv         
                                                                                                                                                                                                                                                                

        SCF,CCSD
   -103.7696859,   -104.3776773
                                                  

 RCCSD(T)/USERDEF energy=   -104.377677323939

        RCCSD(T)        RHF-SCF 
   -104.37767732   -103.76968587
 **********************************************************************************************************************************
 Molpro calculation terminated
 Variable memory released
