
 Primary working directories    : /global/cscratch1/sd/haihan
 Secondary working directories  : /global/cscratch1/sd/haihan
 Wavefunction directory         : /global/homes/h/haihan/wfu/
 Main file repository           : /global/cscratch1/sd/haihan/

 SHA1      : 19cd028119e0e09f93f0674bd8af7968d9b3eff6
 NAME      : 2015.1.36
 ARCHNAME  : linux/x86_64
 FC        : /opt/cray/pe/craype/2.5.14/bin/ftn
 BLASLIB   : -L/opt/intel/compilers_and_libraries_2018.1.163/linux/mkl/lib/intel64 -Wl,-_start-group -lmkl_intel_ilp64 -lmkl_intel_thread -lmkl_core -Wl,-_end-group -liomp5
 id        : lbl

 Nodes     nprocs
 nid00747    15
 Number of processes for MPI-2 version of Molpro:   nprocs(total)=   16   nprocs(compute)=   15   nprocs(helper)=    1

 Using customized tuning parameters: mindgm=7; mindgv=16; mindgc=1; mindgr=1; noblas=0; minvec=7
 default implementation of scratch files=sf  

 ***,Mo
 memory,512,m
 
 gthresh,twoint=1.e-12
 gprint,basis,orbitals
 
 angstrom
 geometry={
 1                                                                               ! Number of atoms
 Mo 0.0 0.0 0.0
 }
 
 basis={
 Including file /global/u2/h/haihan/Research/HZECP/Mo/basis/Mo/check_contractions_TZ/ecp.molpro
 Including file /global/u2/h/haihan/Research/HZECP/Mo/basis/Mo/check_contractions_TZ/basis.molpro
 }
 
 {rhf
  start,atden
  wf,14,1,6
  occ,4,1,1,1,1,1,1,0
  closed,1,1,1,0,1,0,0,0
  sym,1,1,3,2,1
  restrict,1,1,4.1
  orbital,4202.2
 }
 pop
 {multi
  start,4202.2
  occ,4,1,1,1,1,1,1,0
  closed,1,1,1,0,1,0,0,0
  wf,14,1,6;state,1
  restrict,1,1,4.1
  natorb,ci,print
  orbital,5202.2
 }
 {rhf,nitord=1,maxit=0
  start,5202.2
  wf,14,1,6
  occ,4,1,1,1,1,1,1,0
  closed,1,1,1,0,1,0,0,0
  sym,1,1,3,2,1
  restrict,1,1,4.1
  print,orbitals=2
 }
 
 {ci;maxit,100;core,1,1,1,0,1,0,0,0
  natorb,ci,print=15
 
 }

 Variables initialized (889), CPU time= 0.01 sec
 Commands  initialized (702), CPU time= 0.01 sec, 572 directives.
 Default parameters read. Elapsed time= 0.28 sec

 Checking input...
 Passed
1


                                         ***  PROGRAM SYSTEM MOLPRO  ***
                                       Copyright, TTI GmbH Stuttgart, 2015
                                    Version 2015.1 linked Dec 29 2018 15:55:43


 **********************************************************************************************************************************
 LABEL *   Mo                                                                            
  64 bit mpp version                                                                     DATE: 06-Dec-21          TIME: 17:04:02  
 **********************************************************************************************************************************

 SHA1:             19cd028119e0e09f93f0674bd8af7968d9b3eff6
 **********************************************************************************************************************************

 THRESHOLDS:

 ZERO    =  1.00D-12  ONEINT  =  1.00D-12  TWOINT  =  1.00D-12  PREFAC  =  1.00D-14  LOCALI  =  1.00D-09  EORDER  =  1.00D-04
 ENERGY  =  0.00D+00  ETEST   =  0.00D+00  EDENS   =  0.00D+00  THRDEDEF=  1.00D-06  GRADIENT=  1.00D-02  STEP    =  1.00D-03
 ORBITAL =  1.00D-05  CIVEC   =  1.00D-05  COEFF   =  1.00D-04  PRINTCI =  5.00D-02  PUNCHCI =  9.90D+01  OPTGRAD =  3.00D-04
 OPTENERG=  1.00D-06  OPTSTEP =  3.00D-04  THRGRAD =  1.00D-10  COMPRESS=  1.00D-11  VARMIN  =  1.00D-07  VARMAX  =  1.00D-03
 THRDOUB =  0.00D+00  THRDIV  =  1.00D-05  THRRED  =  1.00D-07  THRPSP  =  1.00D+00  THRDC   =  1.00D-10  THRCS   =  1.00D-10
 THRNRM  =  1.00D-08  THREQ   =  0.00D+00  THRDE   =  1.00D+00  THRREF  =  1.00D-05  SPARFAC =  1.00D+00  THRDLP  =  1.00D-07
 THRDIA  =  1.00D-10  THRDLS  =  1.00D-07  THRGPS  =  0.00D+00  THRKEX  =  0.00D+00  THRDIS  =  2.00D-01  THRVAR  =  1.00D-10
 THRLOC  =  1.00D-06  THRGAP  =  1.00D-06  THRLOCT = -1.00D+00  THRGAPT = -1.00D+00  THRORB  =  1.00D-06  THRMLTP =  0.00D+00
 THRCPQCI=  1.00D-10  KEXTA   =  0.00D+00  THRCOARS=  0.00D+00  SYMTOL  =  1.00D-06  GRADTOL =  1.00D-06  THROVL  =  1.00D-08
 THRORTH =  1.00D-08  GRID    =  1.00D-06  GRIDMAX =  1.00D-03  DTMAX   =  0.00D+00  THROCCDE=  1.00D-01  THROCCDE=  1.00D-01



 ZUNIT=ANG
 

Geometry recognized as XYZ


 Variable memory set to  512000000 words,  buffer space   230000 words

 SETTING BASIS          =    USERDEF


 Recomputing integrals since basis changed


 Using spherical harmonics



 PROGRAM * SEWARD (Integral evaluation for generally contracted gaussian basis sets)     Author: Roland Lindh, 1990

 Geometry written to block  1 of record 700

 Orientation using atomic masses  
 Molecule type: Atom
 Symmetry elements: X,Y,Z
 Rotational constants:       0.0000000      0.0000000      0.0000000 GHz  (calculated with average atomic masses)

 Point group  D2h 



 ATOMIC COORDINATES

 NR  ATOM    CHARGE       X              Y              Z

   1  MO     14.00    0.000000000    0.000000000    0.000000000


          MO  CORE POTENTIAL

          f POTENTIAL

 POWERS             1              3              2              2
 EXPONENTIALS   10.99353       11.01508       10.36534       6.281056    
 COEFFICIENTS   14.00000       153.9094      -91.43431      -16.94573    

          s - f POTENTIAL

 POWERS             2              2              2
 EXPONENTIALS   10.07938       4.386730       6.321328    
 COEFFICIENTS   180.0893       24.72363       16.96139    

          p - f POTENTIAL

 POWERS             2              2              2
 EXPONENTIALS   9.027487       3.910532       6.340373    
 COEFFICIENTS   123.6809       18.78431       16.93334    

          d - f POTENTIAL

 POWERS             2              2              2
 EXPONENTIALS   7.378964       2.774830       6.390417    
 COEFFICIENTS   48.28919       7.940102       16.93215    


 BASIS DATA

   Nr Sym  Nuc  Type         Exponents   Contraction coefficients

    1.1 Ag    1  1s          69.256405    -0.000019    0.000003   -0.000072   -0.000454
    2.1 Ag                   36.439356     0.001566   -0.000430   -0.000488    0.001112
    3.1 Ag                   19.172619    -0.028400    0.008527    0.017400    0.022079
    4.1 Ag                   10.087701     0.209329   -0.066553   -0.147523   -0.234779
                              5.307658    -0.374473    0.129519    0.300343    0.518803
                              2.792632    -0.425216    0.133264    0.328314    0.714395
                              1.469347     0.424867   -0.157887   -0.487559   -1.846476
                              0.773099     0.676129   -0.319833   -1.076705   -1.796154
                              0.406767     0.310600   -0.229575   -0.076225    4.372657
                              0.214021     0.025503   -0.022854    1.649122   -0.434280
                              0.112608     0.004380    0.401381    0.511357   -2.676955
                              0.059249    -0.004375    0.458608   -0.618570    0.444245
                              0.031174    -0.001251    0.353669   -0.664542    0.970937
    5.1 Ag    1  3d0         67.297671     0.000088
                             35.419488    -0.000427
                             18.641658     0.002143
                              9.811305    -0.002314
                              5.163795    -0.015767
                              2.717761     0.056271
                              1.430387     0.203165
                              0.752828     0.299890
                              0.396221     0.299775
                              0.208536     0.232455
                              0.109755     0.127672
                              0.057765     0.038964
                              0.030402     0.003430
    6.1 Ag    1  3d2+        67.297671     0.000088
                             35.419488    -0.000427
                             18.641658     0.002143
                              9.811305    -0.002314
                              5.163795    -0.015767
                              2.717761     0.056271
                              1.430387     0.203165
                              0.752828     0.299890
                              0.396221     0.299775
                              0.208536     0.232455
                              0.109755     0.127672
                              0.057765     0.038964
                              0.030402     0.003430
    7.1 Ag    1  3d0         67.297671    -0.000116
                             35.419488     0.000565
                             18.641658    -0.002949
                              9.811305     0.003632
                              5.163795     0.020398
                              2.717761    -0.091207
                              1.430387    -0.319761
                              0.752828    -0.384649
                              0.396221    -0.032169
                              0.208536     0.392896
                              0.109755     0.404265
                              0.057765     0.166215
                              0.030402     0.021087
    8.1 Ag    1  3d2+        67.297671    -0.000116
                             35.419488     0.000565
                             18.641658    -0.002949
                              9.811305     0.003632
                              5.163795     0.020398
                              2.717761    -0.091207
                              1.430387    -0.319761
                              0.752828    -0.384649
                              0.396221    -0.032169
                              0.208536     0.392896
                              0.109755     0.404265
                              0.057765     0.166215
                              0.030402     0.021087
    9.1 Ag    1  3d0         67.297671    -0.000173
                             35.419488     0.000846
                             18.641658    -0.004528
                              9.811305     0.006114
                              5.163795     0.032626
                              2.717761    -0.179375
                              1.430387    -0.628235
                              0.752828    -0.082344
                              0.396221     0.920012
                              0.208536     0.254355
                              0.109755    -0.533406
                              0.057765    -0.344247
                              0.030402    -0.048462
   10.1 Ag    1  3d2+        67.297671    -0.000173
                             35.419488     0.000846
                             18.641658    -0.004528
                              9.811305     0.006114
                              5.163795     0.032626
                              2.717761    -0.179375
                              1.430387    -0.628235
                              0.752828    -0.082344
                              0.396221     0.920012
                              0.208536     0.254355
                              0.109755    -0.533406
                              0.057765    -0.344247
                              0.030402    -0.048462
    1.2 B3u   1  2px         77.150367     0.000003   -0.000012    0.000038   -0.000560
    2.2 B3u                  40.594908     0.000075    0.000018   -0.000142    0.002616
    3.2 B3u                  21.360190    -0.002401    0.001168   -0.001183   -0.005256
    4.2 B3u                  11.239285     0.035359   -0.021143    0.028673   -0.026721
                              5.913876    -0.141836    0.091995   -0.134756    0.167775
                              3.111758    -0.082811    0.047665   -0.061086    0.261337
                              1.637342     0.327357   -0.248952    0.496626   -1.452417
                              0.861535     0.474165   -0.430199    0.572118   -0.146436
                              0.453322     0.300669   -0.106808   -0.621235    2.634034
                              0.238528     0.076103    0.519713   -0.939479   -1.499901
                              0.125509     0.010565    0.525571    0.285982   -1.091350
                              0.066040     0.000312    0.149464    0.716320    0.865530
                              0.034749     0.000334    0.008371    0.222142    0.400963
    1.3 B2u   1  2py         77.150367     0.000003   -0.000012    0.000038   -0.000560
    2.3 B2u                  40.594908     0.000075    0.000018   -0.000142    0.002616
    3.3 B2u                  21.360190    -0.002401    0.001168   -0.001183   -0.005256
    4.3 B2u                  11.239285     0.035359   -0.021143    0.028673   -0.026721
                              5.913876    -0.141836    0.091995   -0.134756    0.167775
                              3.111758    -0.082811    0.047665   -0.061086    0.261337
                              1.637342     0.327357   -0.248952    0.496626   -1.452417
                              0.861535     0.474165   -0.430199    0.572118   -0.146436
                              0.453322     0.300669   -0.106808   -0.621235    2.634034
                              0.238528     0.076103    0.519713   -0.939479   -1.499901
                              0.125509     0.010565    0.525571    0.285982   -1.091350
                              0.066040     0.000312    0.149464    0.716320    0.865530
                              0.034749     0.000334    0.008371    0.222142    0.400963
    1.4 B1g   1  3d2-        67.297671     0.000088   -0.000116   -0.000173
    2.4 B1g                  35.419488    -0.000427    0.000565    0.000846
    3.4 B1g                  18.641658     0.002143   -0.002949   -0.004528
                              9.811305    -0.002314    0.003632    0.006114
                              5.163795    -0.015767    0.020398    0.032626
                              2.717761     0.056271   -0.091207   -0.179375
                              1.430387     0.203165   -0.319761   -0.628235
                              0.752828     0.299890   -0.384649   -0.082344
                              0.396221     0.299775   -0.032169    0.920012
                              0.208536     0.232455    0.392896    0.254355
                              0.109755     0.127672    0.404265   -0.533406
                              0.057765     0.038964    0.166215   -0.344247
                              0.030402     0.003430    0.021087   -0.048462
    1.5 B1u   1  2pz         77.150367     0.000003   -0.000012    0.000038   -0.000560
    2.5 B1u                  40.594908     0.000075    0.000018   -0.000142    0.002616
    3.5 B1u                  21.360190    -0.002401    0.001168   -0.001183   -0.005256
    4.5 B1u                  11.239285     0.035359   -0.021143    0.028673   -0.026721
                              5.913876    -0.141836    0.091995   -0.134756    0.167775
                              3.111758    -0.082811    0.047665   -0.061086    0.261337
                              1.637342     0.327357   -0.248952    0.496626   -1.452417
                              0.861535     0.474165   -0.430199    0.572118   -0.146436
                              0.453322     0.300669   -0.106808   -0.621235    2.634034
                              0.238528     0.076103    0.519713   -0.939479   -1.499901
                              0.125509     0.010565    0.525571    0.285982   -1.091350
                              0.066040     0.000312    0.149464    0.716320    0.865530
                              0.034749     0.000334    0.008371    0.222142    0.400963
    1.6 B2g   1  3d1+        67.297671     0.000088   -0.000116   -0.000173
    2.6 B2g                  35.419488    -0.000427    0.000565    0.000846
    3.6 B2g                  18.641658     0.002143   -0.002949   -0.004528
                              9.811305    -0.002314    0.003632    0.006114
                              5.163795    -0.015767    0.020398    0.032626
                              2.717761     0.056271   -0.091207   -0.179375
                              1.430387     0.203165   -0.319761   -0.628235
                              0.752828     0.299890   -0.384649   -0.082344
                              0.396221     0.299775   -0.032169    0.920012
                              0.208536     0.232455    0.392896    0.254355
                              0.109755     0.127672    0.404265   -0.533406
                              0.057765     0.038964    0.166215   -0.344247
                              0.030402     0.003430    0.021087   -0.048462
    1.7 B3g   1  3d1-        67.297671     0.000088   -0.000116   -0.000173
    2.7 B3g                  35.419488    -0.000427    0.000565    0.000846
    3.7 B3g                  18.641658     0.002143   -0.002949   -0.004528
                              9.811305    -0.002314    0.003632    0.006114
                              5.163795    -0.015767    0.020398    0.032626
                              2.717761     0.056271   -0.091207   -0.179375
                              1.430387     0.203165   -0.319761   -0.628235
                              0.752828     0.299890   -0.384649   -0.082344
                              0.396221     0.299775   -0.032169    0.920012
                              0.208536     0.232455    0.392896    0.254355
                              0.109755     0.127672    0.404265   -0.533406
                              0.057765     0.038964    0.166215   -0.344247
                              0.030402     0.003430    0.021087   -0.048462

 NUCLEAR CHARGE:                   14
 NUMBER OF PRIMITIVE AOS:         130
 NUMBER OF SYMMETRY AOS:          117
 NUMBER OF CONTRACTIONS:           31   (  10Ag  +   4B3u +   4B2u +   3B1g +   4B1u +   3B2g +   3B3g +   0Au  )
 NUMBER OF CORE ORBITALS:           4   (   1Ag  +   1B3u +   1B2u +   0B1g +   1B1u +   0B2g +   0B3g +   0Au  )
 NUMBER OF VALENCE ORBITALS:        6   (   3Ag  +   0B3u +   0B2u +   1B1g +   0B1u +   1B2g +   1B3g +   0Au  )


 NUCLEAR REPULSION ENERGY    0.00000000

 EXTRA SYMMETRY OF AOS IN SYMMETRY 1:   1 1 1 1 2 3 2 3 2 3

 Eigenvalues of metric

         1 0.987E+00 0.987E+00 0.994E+00 0.100E+01 0.100E+01 0.100E+01 0.100E+01 0.101E+01
         2 0.100E+01 0.100E+01 0.100E+01 0.100E+01
         3 0.100E+01 0.100E+01 0.100E+01 0.100E+01
         4 0.987E+00 0.100E+01 0.101E+01
         5 0.100E+01 0.100E+01 0.100E+01 0.100E+01
         6 0.987E+00 0.100E+01 0.101E+01
         7 0.987E+00 0.100E+01 0.101E+01


 Contracted 2-electron integrals neglected if value below      1.0D-12
 AO integral compression algorithm  1   Integral accuracy      1.0D-12

     3.932 MB (compressed) written to integral file (100.0%)

     Node minimum: 0.262 MB, node maximum: 0.262 MB


 NUMBER OF SORTED TWO-ELECTRON INTEGRALS:        660.     BUFFER LENGTH:  32768
 NUMBER OF SEGMENTS:   1  SEGMENT LENGTH:        660      RECORD LENGTH: 524288

 Memory used in sort:       0.56 MW

 SORT1 READ       49837. AND WROTE         603. INTEGRALS IN      1 RECORDS. CPU TIME:     0.02 SEC, REAL TIME:     0.04 SEC
 SORT2 READ       16891. AND WROTE       18958. INTEGRALS IN     15 RECORDS. CPU TIME:     0.00 SEC, REAL TIME:     0.05 SEC

 Node minimum:          81.  Node maximum:        2112. integrals

 OPERATOR DM      FOR CENTER  0  COORDINATES:    0.000000    0.000000    0.000000


 **********************************************************************************************************************************
 DATASETS  * FILE   NREC   LENGTH (MB)   RECORD NAMES
              1      19       19.89       500      610      700      900      950      970     1000      129      960     1100   
                                          VAR    BASINP    GEOM    SYMINP    ZMAT    AOBASIS   BASIS     P2S    ABASIS      S 
                                         1400     1410     1420     1200     1210     1080     1600     1650     1700   
                                           T        V       ECP      H0       H01     AOSYM     SMH    MOLCAS    OPER   

 PROGRAMS   *        TOTAL       INT
 CPU TIMES  *         2.50      2.06
 REAL TIME  *         3.54 SEC
 DISK USED  *        63.33 MB      
 GA USED    *         0.00 MB       (max)       0.00 MB       (current)
 **********************************************************************************************************************************


 PROGRAM * RHF-SCF (OPEN SHELL)       Authors: W. Meyer, H.-J. Werner


 NUMBER OF ELECTRONS:      10+    4-    SPACE SYMMETRY=1    SPIN SYMMETRY: Septet  
 CONVERGENCE THRESHOLDS:    1.00E-05 (Density)    1.00E-07 (Energy)
 MAX. NUMBER OF ITERATIONS:       60
 INTERPOLATION TYPE:            DIIS
 INTERPOLATION STEPS:              2 (START)      1 (STEP)
 LEVEL SHIFTS:                 -0.60 (CLOSED) -0.30 (OPEN) 

 Number of closed-shell orbitals:    4 (   1   1   1   0   1   0   0 )
 Number of open-shell orbitals:      6 (   3   0   0   1   0   1   1 )


 
 Extra symmetries of mos in symmetry 1:   1   3   2   1
     Symmetry restrictions:    1             1

   Atom=MO basis=cc-pVTZ-PP        lmin=0  lmax=2

 Orbital guess generated from atomic densities. Full valence occupancy:    4   1   1   1   1   1   1   0


 Molecular orbital dump at record        4202.2

 ITERATION    DDIFF          GRAD             ENERGY        2-EL.EN.            DIPOLE MOMENTS         DIIS   ORB.
    1      0.000D+00      0.000D+00       -67.40615332     94.320779    0.00000    0.00000    0.00000    0    start
    2      0.000D+00      0.226D-01       -67.46253094     98.157089    0.00000    0.00000    0.00000    1    diag,B
    3      0.221D-01      0.111D-01       -67.46656487     98.092188    0.00000    0.00000    0.00000    2    diag,B
    4      0.342D-02      0.436D-02       -67.46807473     98.347708    0.00000    0.00000    0.00000    3    diag,B
    5      0.419D-02      0.489D-03       -67.46809211     98.380536    0.00000    0.00000    0.00000    4    diag,B
    6      0.514D-03      0.422D-04       -67.46809229     98.371962    0.00000    0.00000    0.00000    5    diag,B
    7      0.646D-04      0.126D-04       -67.46809230     98.374111    0.00000    0.00000    0.00000    6    fixocc
    8      0.154D-04      0.653D-06       -67.46809230     98.374061    0.00000    0.00000    0.00000    7    diag,B
    9      0.122D-05      0.328D-06       -67.46809230     98.374083    0.00000    0.00000    0.00000    0    orth

 Final alpha occupancy:   4   1   1   1   1   1   1
 Final beta  occupancy:   1   1   1   0   1   0   0

 !RHF STATE 1.1 Energy                -67.468092304507
 Nuclear energy                         0.00000000
 One-electron energy                 -116.65513383
 Two-electron energy                   49.18704152
 Virial quotient                       -2.82487666
 !RHF STATE 1.1 Dipole moment           0.00000000     0.00000000     0.00000000
 Dipole moment /Debye                   0.00000000     0.00000000     0.00000000

 ELECTRON ORBITALS
 =================


   Orb  Occ    Energy  Couls-En    Coefficients

                                   1 1s      1 1s      1 1s      1 1s      1 3d0     1 3d2+    1 3d0     1 3d2+    1 3d0     1 3d2+ 


   1.1   2    -2.8939  -13.6933  1.000000 -0.000000 -0.000000 -0.000000  0.000000  0.000000 -0.000000 -0.000000  0.000000  0.000000

   2.1   +    -0.3419   -7.1114 -0.000000 -0.000000 -0.000000  0.000000  0.013410  0.999910  0.000000  0.000000 -0.000000 -0.000001

   3.1   +    -0.3419   -7.1114 -0.000000 -0.000000 -0.000000  0.000000  0.999910 -0.013410  0.000000 -0.000000 -0.000001  0.000000

   4.1   +    -0.2374   -4.3885 -0.000001  1.000000  0.000006 -0.000002  0.000000  0.000000 -0.000000  0.000000  0.000000 -0.000000

                                   1 2px     1 2px     1 2px     1 2px  

   1.2   2    -1.7577  -11.2674  1.000000  0.000001  0.000000  0.000000

                                   1 2py     1 2py     1 2py     1 2py  

   1.3   2    -1.7577  -11.2674  1.000000  0.000001  0.000000  0.000000

                                   1 3d2-    1 3d2-    1 3d2- 

   1.4   +    -0.3419   -7.1114  1.000000  0.000000 -0.000001

                                   1 2pz     1 2pz     1 2pz     1 2pz  

   1.5   2    -1.7577  -11.2674  1.000000  0.000001  0.000000  0.000000

                                   1 3d1+    1 3d1+    1 3d1+ 

   1.6   +    -0.3419   -7.1114  1.000000  0.000000 -0.000001

                                   1 3d1-    1 3d1-    1 3d1- 

   1.7   +    -0.3419   -7.1114  1.000000  0.000000 -0.000001

 HOMO      4.1    -0.237435 =      -6.4609eV
 LUMO      2.2     0.057960 =       1.5772eV
 LUMO-HOMO         0.295395 =       8.0381eV


 **********************************************************************************************************************************
 DATASETS  * FILE   NREC   LENGTH (MB)   RECORD NAMES
              1      19       19.89       500      610      700      900      950      970     1000      129      960     1100   
                                          VAR    BASINP    GEOM    SYMINP    ZMAT    AOBASIS   BASIS     P2S    ABASIS      S 
                                         1400     1410     1420     1200     1210     1080     1600     1650     1700   
                                           T        V       ECP      H0       H01     AOSYM     SMH    MOLCAS    OPER   

              2       4        2.76       700     1000      520     4202   
                                         GEOM     BASIS   MCVARS     RHF  

 PROGRAMS   *        TOTAL       RHF       INT
 CPU TIMES  *         2.53      0.03      2.06
 REAL TIME  *         4.02 SEC
 DISK USED  *       404.15 MB      
 SF USED    *         0.00 MB      
 GA USED    *         0.00 MB       (max)       0.00 MB       (current)
 **********************************************************************************************************************************


 PROGRAM * POP (Mulliken population analysis)

 
 Density matrix read from record         4202.2  Type=RHF/CHARGE (state 1.1)
 
 Population analysis by basis function type

 Unique atom        s        p        d        f        g    Total    Charge
   1  MO      3.00000  6.00000  5.00000  0.00000  0.00000 14.00000  - 0.00000


 **********************************************************************************************************************************
 DATASETS  * FILE   NREC   LENGTH (MB)   RECORD NAMES
              1      19       19.89       500      610      700      900      950      970     1000      129      960     1100   
                                          VAR    BASINP    GEOM    SYMINP    ZMAT    AOBASIS   BASIS     P2S    ABASIS      S 
                                         1400     1410     1420     1200     1210     1080     1600     1650     1700   
                                           T        V       ECP      H0       H01     AOSYM     SMH    MOLCAS    OPER   

              2       4        2.76       700     1000      520     4202   
                                         GEOM     BASIS   MCVARS     RHF  

 PROGRAMS   *        TOTAL       POP       RHF       INT
 CPU TIMES  *         2.53      0.00      0.03      2.06
 REAL TIME  *         4.09 SEC
 DISK USED  *       404.15 MB      
 SF USED    *         0.00 MB      
 GA USED    *         0.00 MB       (max)       0.00 MB       (current)
 **********************************************************************************************************************************


 PROGRAM * MULTI (Direct Multiconfiguration SCF)       Authors: P.J. Knowles, H.-J. Werner (1984)     S.T. Elbert (1988)


 Number of closed-shell orbitals:   4 (   1   1   1   0   1   0   0   0 )
 Number of active  orbitals:        6 (   3   0   0   1   0   1   1   0 )
 Number of external orbitals:      21 (   6   3   3   2   3   2   2   0 )

 State symmetry 1

 Orbital occupancy restrictions for symmetry 1
  1      1       002000                          

 Number of electrons:     6    Spin symmetry=Septet    Space symmetry=1
 Number of states:        1
 Number of CSFs:          1
 
 Maximum number of shells:             1
 Maximum number of spin couplings:     1

 Storage for configuration lists      22, coupling coefficients      6, address lists     92

 Molecular orbitals read from record     4202.2  Type=RHF/CANONICAL (state 1.1)
 *** IN SYMMETRY 1 ORBITAL  2 SYMMETRY CONTAMINATION OF 0.132D-01 HAS BEEN REMOVED
 *** IN SYMMETRY 1 ORBITAL  3 SYMMETRY CONTAMINATION OF 0.132D-01 HAS BEEN REMOVED

 EXTRA SYMMETRY OF MOS IN SYMMETRY 1:   1 3 2 1 1 2 3 1 2 3

 Wavefunction dump at record             5202.2

 Convergence thresholds  0.10E-01 (gradient)  0.10E-05 (energy)  0.10E-02 (step length)

 Eigenvalues of redundancy matrix
   1-  3    0.000000    0.000000    0.000000

 Number of orbital rotations:       42   (     3 Core/Active     15 Core/Virtual   0 Active/Active     24 Active/Virtual)
 Total number of variables:         43


 ITER. MIC  NCI  NEG     ENERGY(VAR)     ENERGY(PROJ)   ENERGY CHANGE     GRAD(0)  GRAD(ORB)   GRAD(CI)     STEP       TIME

   1   24    4    0     -67.46809230     -67.46809230   -0.00000000    0.00000248 0.00000000 0.00000000  0.69D-05      0.03

 ** WVFN ****  CONVERGENCE REACHED, FINAL GRADIENT:  0.57D-11


 First order charge density matrix for state 1.1 saved on record  5202.2 (density set 1)

 Results for state 1.1
 =====================

 !MCSCF STATE 1.1 Energy              -67.468092304521
 Nuclear energy                         0.00000000
 Kinetic energy                        23.88355533
 One electron energy                 -116.65512963
 Two electron energy                   49.18703733
 Virial ratio                           3.82487642

 !MCSCF STATE 1.1 Dipole moment         0.00000000     0.00000000     0.00000000
 Dipole moment /Debye                   0.00000000     0.00000000     0.00000000


 NATURAL ORBITALS
 ================

 Some active orbitals have been swapped

   Orb     Occ        Energy       Coefficients

                                   1 1s      1 1s      1 1s      1 1s      1 3d0     1 3d2+    1 3d0     1 3d2+    1 3d0     1 3d2+ 


   1.1  2.00000    -2.893914     1.000000  0.000000 -0.000000 -0.000000  0.000000  0.000000  0.000000  0.000000  0.000000  0.000000

   2.1  1.00000    -0.039049     0.000000  0.000000  0.000000  0.000000  0.000000  1.000000  0.000000 -0.000000  0.000000 -0.000000

   3.1  1.00000    -0.039049     0.000000  0.000000  0.000000  0.000000  1.000000  0.000000 -0.000000  0.000000 -0.000000  0.000000

   4.1  1.00000    -0.083113    -0.000001  1.000000  0.000000  0.000000  0.000000  0.000000  0.000000  0.000000  0.000000  0.000000

                                   1 2px     1 2px     1 2px     1 2px  

   1.2  2.00000    -1.757727     1.000000  0.000001  0.000000  0.000000

                                   1 2py     1 2py     1 2py     1 2py  

   1.3  2.00000    -1.757727     1.000000  0.000001  0.000000  0.000000

                                   1 3d2-    1 3d2-    1 3d2- 

   1.4  1.00000    -0.039049     1.000000 -0.000000 -0.000000

                                   1 2pz     1 2pz     1 2pz     1 2pz  

   1.5  2.00000    -1.757727     1.000000  0.000001  0.000000  0.000000

                                   1 3d1+    1 3d1+    1 3d1+ 

   1.6  1.00000    -0.039049     1.000000 -0.000000 -0.000000

                                   1 3d1-    1 3d1-    1 3d1- 

   1.7  1.00000    -0.039049     1.000000 -0.000000 -0.000000
 

 Natural orbital dump at molpro section  5202.2    (Orbital set 2)


 CI vector
 =========

 /// / / /          1.0000000


 **********************************************************************************************************************************
 DATASETS  * FILE   NREC   LENGTH (MB)   RECORD NAMES
              1      20       19.99       500      610      700      900      950      970     1000      129      960     1100   
                                          VAR    BASINP    GEOM    SYMINP    ZMAT    AOBASIS   BASIS     P2S    ABASIS      S 
                                         1400     1410     1420     1200     1210     1080     1600     1650     1700     1380   
                                           T        V       ECP      H0       H01     AOSYM     SMH    MOLCAS    OPER     JKOP   

              2       5        5.25       700     1000      520     4202     5202   
                                         GEOM     BASIS   MCVARS     RHF     MCSCF   

 PROGRAMS   *        TOTAL     MULTI       POP       RHF       INT
 CPU TIMES  *         2.74      0.21      0.00      0.03      2.06
 REAL TIME  *         4.78 SEC
 DISK USED  *       404.15 MB      
 SF USED    *         3.39 MB      
 GA USED    *         0.00 MB       (max)       0.00 MB       (current)
 **********************************************************************************************************************************


 PROGRAM * RHF-SCF (OPEN SHELL)       Authors: W. Meyer, H.-J. Werner


 NUMBER OF ELECTRONS:      10+    4-    SPACE SYMMETRY=1    SPIN SYMMETRY: Septet  
 CONVERGENCE THRESHOLDS:    1.00E-05 (Density)    1.00E-07 (Energy)
 MAX. NUMBER OF ITERATIONS:        0
 INTERPOLATION TYPE:            DIIS
 INTERPOLATION STEPS:              2 (START)      1 (STEP)
 LEVEL SHIFTS:                 -0.60 (CLOSED) -0.30 (OPEN) 

 Number of closed-shell orbitals:    4 (   1   1   1   0   1   0   0 )
 Number of open-shell orbitals:      6 (   3   0   0   1   0   1   1 )


 
 Extra symmetries of mos in symmetry 1:   1   3   2   1
     Symmetry restrictions:    1             1
 Molecular orbitals read from record     5202.2  Type=MCSCF/NATURAL (state 1.1)

 Molecular orbital dump at record        2101.2

 ITERATION    DDIFF          GRAD             ENERGY        2-EL.EN.            DIPOLE MOMENTS         DIIS   ORB.
    1      0.000D+00      0.000D+00       -67.46809230     98.374075    0.00000    0.00000    0.00000    0    start

 Final alpha occupancy:   4   1   1   1   1   1   1
 Final beta  occupancy:   1   1   1   0   1   0   0

 !RHF STATE 1.1 Energy                -67.468092304522
 Nuclear energy                         0.00000000
 One-electron energy                 -116.65512963
 Two-electron energy                   49.18703733
 Virial quotient                       -2.82487642
 !RHF STATE 1.1 Dipole moment           0.00000000     0.00000000     0.00000000
 Dipole moment /Debye                   0.00000000     0.00000000     0.00000000

 ELECTRON ORBITALS
 =================


   Orb  Occ    Energy  Couls-En    Coefficients

                                   1 1s      1 1s      1 1s      1 1s      1 3d0     1 3d2+    1 3d0     1 3d2+    1 3d0     1 3d2+ 


   1.1   2    -2.8939  -13.6933  1.000000  0.000000 -0.000000 -0.000000  0.000000  0.000000  0.000000  0.000000  0.000000  0.000000

   2.1   +    -0.0390   -6.8085  0.000000  0.000000  0.000000  0.000000  0.000000  1.000000  0.000000 -0.000000  0.000000 -0.000000

   3.1   +    -0.0390   -6.8085  0.000000  0.000000  0.000000  0.000000  1.000000  0.000000 -0.000000  0.000000 -0.000000  0.000000

   4.1   +    -0.0831   -4.2341 -0.000001  1.000000  0.000000  0.000000  0.000000  0.000000  0.000000  0.000000  0.000000  0.000000

   5.1   0     0.3078   -3.1021 -0.000000  0.004190  0.930296 -0.366832  0.000000  0.000000  0.000000  0.000000  0.000000  0.000000

   6.1   0     0.4277   -3.2256  0.000000  0.000000  0.000000  0.000000  0.012763  0.000000  0.902900  0.000000 -0.430040  0.000000

                                   1 2px     1 2px     1 2px     1 2px  

   1.2   2    -1.7577  -11.2674  1.000000  0.000001  0.000000  0.000000

   2.2   0     0.0976   -3.1237  0.000001  0.771361  0.603628  0.201584

   3.2   0     0.5742   -3.4691 -0.000000 -0.621497  0.646366  0.442664

                                   1 2py     1 2py     1 2py     1 2py  

   1.3   2    -1.7577  -11.2674  1.000000  0.000001  0.000000  0.000000

   2.3   0     0.0976   -3.1237  0.000001  0.771361  0.603628  0.201584

   3.3   0     0.5742   -3.4691 -0.000000 -0.621497  0.646366  0.442664

                                   1 3d2-    1 3d2-    1 3d2- 

   1.4   +    -0.0390   -6.8085  1.000000 -0.000000 -0.000000

   2.4   0     0.4277   -3.2256  0.012763  0.902900 -0.430040

   3.4   0     2.0226   -3.1730 -0.003944  0.429963  0.902855

                                   1 2pz     1 2pz     1 2pz     1 2pz  

   1.5   2    -1.7577  -11.2674  1.000000  0.000001  0.000000  0.000000

   2.5   0     0.0976   -3.1237  0.000001  0.771361  0.603628  0.201584

   3.5   0     0.5742   -3.4691 -0.000000 -0.621497  0.646366  0.442664

                                   1 3d1+    1 3d1+    1 3d1+ 

   1.6   +    -0.0390   -6.8085  1.000000 -0.000000 -0.000000

   2.6   0     0.4277   -3.2256  0.012763  0.902900 -0.430040

   3.6   0     2.0226   -3.1730 -0.003944  0.429963  0.902855

                                   1 3d1-    1 3d1-    1 3d1- 

   1.7   +    -0.0390   -6.8085  1.000000 -0.000000 -0.000000

   2.7   0     0.4277   -3.2256  0.012763  0.902900 -0.430040

   3.7   0     2.0226   -3.1730 -0.003944  0.429963  0.902855

 HOMO      1.4    -0.039049 =      -1.0626eV
 LUMO      2.2     0.097613 =       2.6562eV
 LUMO-HOMO         0.136662 =       3.7187eV


 **********************************************************************************************************************************
 DATASETS  * FILE   NREC   LENGTH (MB)   RECORD NAMES
              1      20       19.99       500      610      700      900      950      970     1000      129      960     1100   
                                          VAR    BASINP    GEOM    SYMINP    ZMAT    AOBASIS   BASIS     P2S    ABASIS      S 
                                         1400     1410     1420     1200     1210     1080     1600     1650     1700     1380   
                                           T        V       ECP      H0       H01     AOSYM     SMH    MOLCAS    OPER     JKOP   

              2       6        7.75       700     1000      520     4202     5202     2101   
                                         GEOM     BASIS   MCVARS     RHF     MCSCF     RHF  

 PROGRAMS   *        TOTAL       RHF     MULTI       POP       RHF       INT
 CPU TIMES  *         2.85      0.11      0.21      0.00      0.03      2.06
 REAL TIME  *         5.00 SEC
 DISK USED  *       404.15 MB      
 SF USED    *         3.39 MB      
 GA USED    *         0.00 MB       (max)       0.00 MB       (current)
 **********************************************************************************************************************************


 PROGRAM * CI (Multireference internally contracted CI)     Authors: H.-J. Werner, P.J. Knowles, 1987


 Convergence thresholds:  THRVAR = 1.00D-08  THRDEN = 1.00D-06

 Number of optimized states:  1  Roots:   1
 Number of reference states:  1  Roots:   1

 Reference symmetry:                   1   Septet  
 Number of electrons:                 14
 Maximum number of shells:             1
 Maximum number of spin couplings:     1

 Reference space:        1 conf        1 CSFs
 N elec internal:        1 conf        1 CSFs
 N-1 el internal:        6 conf        6 CSFs
 N-2 el internal:       15 conf       15 CSFs

 Number of electrons in valence space:                      6
 Maximum number of open shell orbitals in reference space:  6
 Maximum number of open shell orbitals in internal spaces:  6


 Number of core orbitals:           4 (   1   1   1   0   1   0   0 )
 Number of active  orbitals:        6 (   3   0   0   1   0   1   1 )
 Number of external orbitals:      21 (   6   3   3   2   3   2   2 )

 Molecular orbitals read from record     2101.2  Type=RHF/CANONICAL (state 1.1)

 Coulomb and exchange operators available. No transformation done.

 Number of p-space configurations:   1

 Reference wavefunction optimized for reference space (refopt=1)

 State     Reference Energy 
   1         -67.46809230

 Number of blocks in overlap matrix:    15   Smallest eigenvalue:  0.10D+01
 Number of N-2 electron functions:      15
 Number of N-1 electron functions:       6

 Number of internal configurations:                    1
 Number of singly external configurations:            24
 Number of doubly external configurations:           381
 Total number of contracted configurations:          406
 Total number of uncontracted configurations:        406

 Diagonal Coupling coefficients finished.               Storage:    1711 words, CPU-Time:      0.01 seconds.
 Energy denominators for pairs finished in 1 passes.    Storage:    1697 words, CPU-time:      0.00 seconds.

  ITER. STATE  ROOT     SQ.NORM     CORR.ENERGY   TOTAL ENERGY   ENERGY CHANGE       DEN1      VAR(S)    VAR(P)      TIME
    1     1     1     1.00000000     0.00000000   -67.46809230     0.00000000    -0.02618472  0.00D+00  0.15D-01     0.04
    2     1     1     1.01558723    -0.02702331   -67.49511561    -0.02702331    -0.00067769  0.52D-03  0.23D-03     0.05
    3     1     1     1.01920385    -0.02794412   -67.49603643    -0.00092082    -0.00004568  0.18D-04  0.29D-04     0.05
    4     1     1     1.01995729    -0.02800707   -67.49609938    -0.00006295    -0.00000326  0.12D-07  0.20D-05     0.06
    5     1     1     1.01993376    -0.02801101   -67.49610331    -0.00000394    -0.00000006  0.28D-07  0.20D-07     0.06
    6     1     1     1.01993486    -0.02801108   -67.49610338    -0.00000007    -0.00000000  0.16D-08  0.78D-09     0.06


 =====================================
 Analysis of CPU times by interactions
 =====================================

       I      S      P

 I  16.7%
 S   0.0%  33.3%
 P   0.0%   0.0%   0.0%

 Initialization:  50.0%
 Other:            0.0%

 Total CPU:        0.1 seconds
 =====================================



 Reference coefficients greater than 0.0500000
 =============================================
 //////           0.9901792



 RESULTS FOR STATE 1.1
 =====================

 Coefficient of reference function:   C(0) = 0.99017916 (fixed)   0.99017916 (relaxed)

 Energy contributions of configuration classes

 CLASS          SQ.NORM        ECORR1        ECORR2
 +++++++++++++++++++++++++++++++++++++++++++++++++++
 Internals    0.00000000    0.00000000   -0.00000000
 Singles      0.00079134   -0.00000000   -0.00002172
 Pairs        0.01914352   -0.02801108   -0.02798936
 Total        1.01993486   -0.02801108   -0.02801108
 +++++++++++++++++++++++++++++++++++++++++++++++++++


 Reference energy                     -67.46809230
 Nuclear energy                         0.00000000
 Kinetic energy                        23.82948904
 One electron energy                 -116.48182529
 Two electron energy                   48.98572191
 Virial quotient                       -2.83246121
 Correlation energy                    -0.02801108
 !CI(SD) STATE 1.1 Energy             -67.496103382870

 Properties without orbital relaxation:

 !CI(SD) STATE 1.1 Dipole moment        0.00000000     0.00000000     0.00000000
 Dipole moment /Debye                   0.00000000     0.00000000     0.00000000

 Cluster corrected energies           -67.49666178 (Davidson, fixed reference)
 Cluster corrected energies           -67.49666178 (Davidson, relaxed reference)

 Cluster corrected energies           -67.49610338 (Pople, fixed reference)
 Cluster corrected energies           -67.49610338 (Pople, relaxed reference)


 Natural orbitals
 ================

   Orb     Occ           Coefficients

                         1 1s      1 1s      1 1s      1 1s      1 3d0     1 3d2+    1 3d0     1 3d2+    1 3d0     1 3d2+ 


   1.1    2.0000000    1.000000  0.000000 -0.000000 -0.000000  0.000000  0.000000  0.000000  0.000000  0.000000  0.000000

   2.1    0.9958418   -0.000001  1.000017  0.005268  0.002044 -0.000039  0.000000 -0.000000  0.000000  0.000000 -0.000000

   3.1    0.9933034   -0.000000  0.000039  0.000000  0.000000  1.000086  0.000000  0.009040  0.000000 -0.006852 -0.000000

   4.1    0.9933030    0.000000 -0.000000 -0.000000 -0.000000 -0.000000  1.000086 -0.000000  0.009040  0.000000 -0.006852

   5.1    0.0045344   -0.000000  0.000000 -0.000000 -0.000000 -0.000000  0.000774 -0.000000  0.999993 -0.000000  0.005346

   6.1    0.0045344    0.000000 -0.000000  0.000006  0.000000  0.000775  0.000000  0.999993  0.000000  0.005347  0.000000

   7.1    0.0032953    0.000000  0.000146  0.999960  0.008979  0.000000  0.000000 -0.000006  0.000000 -0.000000 -0.000000

   8.1    0.0001461    0.000000  0.000000 -0.000000  0.000000 -0.000000 -0.002201 -0.000000 -0.005373  0.000000  1.000003

   9.1    0.0001461   -0.000000  0.000000  0.000000 -0.000000 -0.002201  0.000000 -0.005374  0.000000  1.000003 -0.000000

  10.1    0.0000720    0.000001  0.000257 -0.008977  0.999960 -0.000000 -0.000000 -0.000000  0.000000  0.000000 -0.000000

                         1 2px     1 2px     1 2px     1 2px  

   1.2    2.0000000    1.000000  0.000001  0.000000  0.000000

   2.2    0.0033556    0.000001  0.999996 -0.002290 -0.001498

   3.2    0.0002596    0.000000  0.002289  0.999996 -0.001595

   4.2    0.0000098    0.000001  0.001502  0.001592  0.999998

                         1 2py     1 2py     1 2py     1 2py  

   1.3    2.0000000    1.000000  0.000001  0.000000  0.000000

   2.3    0.0033556    0.000001  0.999996 -0.002290 -0.001498

   3.3    0.0002596    0.000000  0.002289  0.999996 -0.001595

   4.3    0.0000098    0.000001  0.001502  0.001592  0.999998

                         1 3d2-    1 3d2-    1 3d2- 

   1.4    0.9933032    1.000086  0.009040 -0.006852

   2.4    0.0045344    0.000774  0.999993  0.005347

   3.4    0.0001461   -0.002201 -0.005374  1.000003

                         1 2pz     1 2pz     1 2pz     1 2pz  

   1.5    2.0000000    1.000000  0.000001  0.000000  0.000000

   2.5    0.0033569    0.000001  0.999996 -0.002227 -0.001486

   3.5    0.0002597    0.000000  0.002226  0.999996 -0.001568

   4.5    0.0000098    0.000001  0.001490  0.001565  0.999998

                         1 3d1+    1 3d1+    1 3d1+ 

   1.6    0.9933014    1.000086  0.009043 -0.006853

   2.6    0.0045343    0.000771  0.999993  0.005343

   3.6    0.0001461   -0.002201 -0.005370  1.000003

                         1 3d1-    1 3d1-    1 3d1- 

   1.7    0.9933014    1.000086  0.009043 -0.006853

   2.7    0.0045343    0.000771  0.999993  0.005343

   3.7    0.0001461   -0.002201 -0.005370  1.000003

 Electronic charge:   14.000000


 **********************************************************************************************************************************
 DATASETS  * FILE   NREC   LENGTH (MB)   RECORD NAMES
              1      20       19.99       500      610      700      900      950      970     1000      129      960     1100   
                                          VAR    BASINP    GEOM    SYMINP    ZMAT    AOBASIS   BASIS     P2S    ABASIS      S 
                                         1400     1410     1420     1200     1210     1080     1600     1650     1700     1380   
                                           T        V       ECP      H0       H01     AOSYM     SMH    MOLCAS    OPER     JKOP   

              2       6        7.75       700     1000      520     4202     5202     2101   
                                         GEOM     BASIS   MCVARS     RHF     MCSCF     RHF  

 PROGRAMS   *        TOTAL        CI       RHF     MULTI       POP       RHF       INT
 CPU TIMES  *         3.01      0.16      0.11      0.21      0.00      0.03      2.06
 REAL TIME  *         5.50 SEC
 DISK USED  *       404.15 MB      
 SF USED    *         3.39 MB      
 GA USED    *         0.00 MB       (max)       0.00 MB       (current)
 **********************************************************************************************************************************

 CI/USERDEF energy=    -67.496103382870

        CI              RHF-SCF         MULTI           RHF-SCF 
    -67.49610338    -67.46809230    -67.46809230    -67.46809230
 **********************************************************************************************************************************
 Molpro calculation terminated
 Variable memory released
