
 Primary working directories    : /global/cscratch1/sd/bkincaid
 Secondary working directories  : /global/cscratch1/sd/bkincaid
 Wavefunction directory         : /global/homes/b/bkincaid/wfu/
 Main file repository           : /global/cscratch1/sd/bkincaid/

 SHA1      : 19cd028119e0e09f93f0674bd8af7968d9b3eff6
 NAME      : 2015.1.36
 ARCHNAME  : linux/x86_64
 FC        : /opt/cray/pe/craype/2.5.14/bin/ftn
 BLASLIB   : -L/opt/intel/compilers_and_libraries_2018.1.163/linux/mkl/lib/intel64 -Wl,-_start-group -lmkl_intel_ilp64 -lmkl_intel_thread -lmkl_core -Wl,-_end-group -liomp5
 id        : lbl

 Nodes     nprocs
 nid00749    11
 Number of processes for MPI-2 version of Molpro:   nprocs(total)=   12   nprocs(compute)=   11   nprocs(helper)=    1

 Using customized tuning parameters: mindgm=7; mindgv=16; mindgc=1; mindgr=1; noblas=0; minvec=7
 default implementation of scratch files=sf  

 ***,Calculation for IrO groundstate
 memory,1024,m
 gthresh,twoint=1.0E-15
 gthresh,throvl=1.0E-15
                                                                                 !symmetry,nosym
 
 basis={
 Including file /global/u1/b/bkincaid/molpro/Ir/molecules/tz/IrO/ecps/CRENBL/crenbl
 
 Including file /global/u1/b/bkincaid/molpro/Ir/molecules/tz/IrO/ecps/CRENBL/tz.basis
 
 ecp,O,2,1,0
 3
 1,  12.30997,  6.000000
 3,  14.76962,  73.85984
 2,  13.71419, -47.87600
 1
 2,  13.65512,  85.86406
 
 Including file /global/u1/b/bkincaid/molpro/Ir/molecules/tz/IrO/ecps/CRENBL/O-aug-cc-CVTZ.basis
 }
 
 ne = 23
 
 A1=6
 B1=2
 B2=3
 A2=1
 
 
 do i=4,4
         if(i.eq.1) then
                 z(i) = 1.500
         else if(i.eq.2) then
                 z(i) = 1.600
         else if(i.eq.3) then
                 z(i) = 1.700
         else if(i.eq.4) then
                 z(i) = 1.800
         else if(i.eq.5) then
                 z(i) = 1.900
         endif
 
 geometry={
 2
 IrO
 Ir 0.0 0.0 0.0
 O 0.0 0.0 z(i)
 }
 
 
 {rhf,maxdis=25,iptyp='DIIS',nitord=30,maxit=60; shift,-1.0,-0.5
 wf,nelec=ne,spin=1,sym=4
 occ,A1,B1,B2,A2
 closed,A1,B1,B2,A2-1
 print,orbitals=2
         }
 scf(i)=energy
 {rccsd(t),shifts=0.2,shiftp=0.2,thrdis=1.0;diis,1,1,15,1;maxit,100;core}
 ccsd(i)=energy
 enddo
 
 table,z,scf,ccsd
 save
 type,csv
 

 Variables initialized (889), CPU time= 0.01 sec
 Commands  initialized (702), CPU time= 0.01 sec, 572 directives.
 Default parameters read. Elapsed time= 0.15 sec

 Checking input...
 Passed
1


                                         ***  PROGRAM SYSTEM MOLPRO  ***
                                       Copyright, TTI GmbH Stuttgart, 2015
                                    Version 2015.1 linked Dec 29 2018 15:55:43


 **********************************************************************************************************************************
 LABEL *   Calculation for IrO groundstate                                               
  64 bit mpp version                                                                     DATE: 09-Mar-21          TIME: 16:38:18  
 **********************************************************************************************************************************

 SHA1:             19cd028119e0e09f93f0674bd8af7968d9b3eff6
 **********************************************************************************************************************************

 THRESHOLDS:

 ZERO    =  1.00D-12  ONEINT  =  1.00D-12  TWOINT  =  1.00D-15  PREFAC  =  1.00D-14  LOCALI  =  1.00D-09  EORDER  =  1.00D-04
 ENERGY  =  0.00D+00  ETEST   =  0.00D+00  EDENS   =  0.00D+00  THRDEDEF=  1.00D-06  GRADIENT=  1.00D-02  STEP    =  1.00D-03
 ORBITAL =  1.00D-05  CIVEC   =  1.00D-05  COEFF   =  1.00D-04  PRINTCI =  5.00D-02  PUNCHCI =  9.90D+01  OPTGRAD =  3.00D-04
 OPTENERG=  1.00D-06  OPTSTEP =  3.00D-04  THRGRAD =  1.00D-10  COMPRESS=  1.00D-11  VARMIN  =  1.00D-07  VARMAX  =  1.00D-03
 THRDOUB =  0.00D+00  THRDIV  =  1.00D-05  THRRED  =  1.00D-07  THRPSP  =  1.00D+00  THRDC   =  1.00D-10  THRCS   =  1.00D-10
 THRNRM  =  1.00D-08  THREQ   =  0.00D+00  THRDE   =  1.00D+00  THRREF  =  1.00D-05  SPARFAC =  1.00D+00  THRDLP  =  1.00D-07
 THRDIA  =  1.00D-10  THRDLS  =  1.00D-07  THRGPS  =  0.00D+00  THRKEX  =  0.00D+00  THRDIS  =  2.00D-01  THRVAR  =  1.00D-10
 THRLOC  =  1.00D-06  THRGAP  =  1.00D-06  THRLOCT = -1.00D+00  THRGAPT = -1.00D+00  THRORB  =  1.00D-06  THRMLTP =  0.00D+00
 THRCPQCI=  1.00D-10  KEXTA   =  0.00D+00  THRCOARS=  0.00D+00  SYMTOL  =  1.00D-06  GRADTOL =  1.00D-06  THROVL  =  1.00D-08
 THRORTH =  1.00D-08  GRID    =  1.00D-06  GRIDMAX =  1.00D-03  DTMAX   =  0.00D+00  THROCCDE=  1.00D-01  THROCCDE=  1.00D-01



 THRESHOLDS:

 ZERO    =  1.00D-12  ONEINT  =  1.00D-12  TWOINT  =  1.00D-15  PREFAC  =  1.00D-14  LOCALI  =  1.00D-09  EORDER  =  1.00D-04
 ENERGY  =  0.00D+00  ETEST   =  0.00D+00  EDENS   =  0.00D+00  THRDEDEF=  1.00D-06  GRADIENT=  1.00D-02  STEP    =  1.00D-03
 ORBITAL =  1.00D-05  CIVEC   =  1.00D-05  COEFF   =  1.00D-04  PRINTCI =  5.00D-02  PUNCHCI =  9.90D+01  OPTGRAD =  3.00D-04
 OPTENERG=  1.00D-06  OPTSTEP =  3.00D-04  THRGRAD =  1.00D-10  COMPRESS=  1.00D-11  VARMIN  =  1.00D-07  VARMAX  =  1.00D-03
 THRDOUB =  0.00D+00  THRDIV  =  1.00D-05  THRRED  =  1.00D-07  THRPSP  =  1.00D+00  THRDC   =  1.00D-10  THRCS   =  1.00D-10
 THRNRM  =  1.00D-08  THREQ   =  0.00D+00  THRDE   =  1.00D+00  THRREF  =  1.00D-05  SPARFAC =  1.00D+00  THRDLP  =  1.00D-07
 THRDIA  =  1.00D-10  THRDLS  =  1.00D-07  THRGPS  =  0.00D+00  THRKEX  =  0.00D+00  THRDIS  =  2.00D-01  THRVAR  =  1.00D-10
 THRLOC  =  1.00D-06  THRGAP  =  1.00D-06  THRLOCT = -1.00D+00  THRGAPT = -1.00D+00  THRORB  =  1.00D-06  THRMLTP =  0.00D+00
 THRCPQCI=  1.00D-10  KEXTA   =  0.00D+00  THRCOARS=  0.00D+00  SYMTOL  =  1.00D-06  GRADTOL =  1.00D-06  THROVL  =  1.00D-15
 THRORTH =  1.00D-08  GRID    =  1.00D-06  GRIDMAX =  1.00D-03  DTMAX   =  0.00D+00  THROCCDE=  1.00D-01  THROCCDE=  1.00D-01



 Variable memory set to 1024000000 words,  buffer space   230000 words

 SETTING BASIS          =    USERDEF
 SETTING NE             =        23.00000000                                  
 SETTING A1             =         6.00000000                                  
 SETTING B1             =         2.00000000                                  
 SETTING B2             =         3.00000000                                  
 SETTING A2             =         1.00000000                                  

 DO I                   =         4.00000000   
 SETTING Z(4)           =         1.80000000                                  

Geometry recognized as XYZ



 Recomputing integrals since basis changed


 Using spherical harmonics



 PROGRAM * SEWARD (Integral evaluation for generally contracted gaussian basis sets)     Author: Roland Lindh, 1990

 Geometry written to block  1 of record 700


 Point group  C2v 



 ATOMIC COORDINATES

 NR  ATOM    CHARGE       X              Y              Z

   1  IR     17.00    0.000000000    0.000000000    0.000000000
   2  O       6.00    0.000000000    0.000000000    3.401507024

 Bond lengths in Bohr (Angstrom)

 1-2  3.401507024
     ( 1.800000000)

 NUCLEAR CHARGE:                   23
 NUMBER OF PRIMITIVE AOS:         556
 NUMBER OF SYMMETRY AOS:          455
 NUMBER OF CONTRACTIONS:          455   ( 186A1  + 109B1  + 109B2  +  51A2  )
 NUMBER OF CORE ORBITALS:           4   (   2A1  +   1B1  +   1B2  +   0A2  )
 NUMBER OF VALENCE ORBITALS:       10   (   5A1  +   2B1  +   2B2  +   1A2  )


 NUCLEAR REPULSION ENERGY   29.98670862

 EXTRA SYMMETRY OF AOS IN SYMMETRY 1:   1 1 1 1 1 1 1 1 1 1   1 1 1 1 1 1 1 1 1 1   1 1 1 1 1 1 1 1 1 1   1 1 1 1 1 1 1 1 1 1
                                        1 1 1 1 1 1 1 1 1 1   1 1 1 1 1 1 1 1 1 1   1 1 1 1 1 1 1 2 1 2   1 2 1 2 1 2 1 2 1 2
                                        1 2 1 2 1 2 1 2 1 2   1 2 1 2 1 2 1 2 1 2   1 2 1 2 1 2 1 2 1 2   1 2 1 2 1 2 1 2 1 2
                                        1 2 1 2 1 2 1 2 1 2   1 2 1 2 1 2 1 2 1 2   1 2 1 2 1 3 2 1 3 2   1 3 2 1 1 1 1 1 1 1
                                        1 1 1 1 1 1 1 1 1 1   1 1 1 1 1 2 1 2 1 2   1 2 1 2 1 2
 EXTRA SYMMETRY OF AOS IN SYMMETRY 2:   1 1 1 1 1 1 1 1 1 1   1 1 1 1 1 1 1 1 1 1   1 1 1 1 1 1 1 1 1 1   1 1 1 1 1 1 1 1 1 1
                                        1 1 1 1 1 1 1 1 1 1   1 1 1 1 2 1 2 1 2 1   2 1 2 1 2 1 2 1 2 1   2 1 2 1 2 1 2 1 2 1
                                        2 1 2 1 2 1 2 1 2 1   2 1 2 1 1 1 1 1 1 1   1 1 1 1 1 1 2 1 2
 EXTRA SYMMETRY OF AOS IN SYMMETRY 3:   1 1 1 1 1 1 1 1 1 1   1 1 1 1 1 1 1 1 1 1   1 1 1 1 1 1 1 1 1 1   1 1 1 1 1 1 1 1 1 1
                                        1 1 1 1 1 1 1 1 1 1   1 1 1 1 2 1 2 1 2 1   2 1 2 1 2 1 2 1 2 1   2 1 2 1 2 1 2 1 2 1
                                        2 1 2 1 2 1 2 1 2 1   2 1 2 1 1 1 1 1 1 1   1 1 1 1 1 1 2 1 2
 EXTRA SYMMETRY OF AOS IN SYMMETRY 4:   1 1 1 1 1 1 1 1 1 1   1 1 1 1 1 1 1 1 1 1   1 1 1 1 1 1 1 1 1 1   1 1 1 1 1 1 1 1 1 1
                                        2 1 2 1 2 1 1 1 1 1   1

 Eigenvalues of metric

         1 0.774E-07 0.968E-06 0.344E-05 0.127E-04 0.155E-04 0.166E-04 0.253E-04 0.445E-04
         2 0.921E-07 0.374E-05 0.154E-04 0.528E-04 0.539E-04 0.125E-03 0.142E-03 0.435E-03
         3 0.921E-07 0.374E-05 0.154E-04 0.528E-04 0.539E-04 0.125E-03 0.142E-03 0.435E-03
         4 0.155E-04 0.537E-04 0.146E-03 0.608E-03 0.972E-03 0.208E-02 0.548E-02 0.579E-02


 Contracted 2-electron integrals neglected if value below      1.0D-15

 Warning: maximum contribution to expansion of semi-local PP integrals   0.9D+12

 AO integral compression algorithm  1   Integral accuracy      1.0D-15

     4687.659 MB (compressed) written to integral file ( 36.6%)

     Node minimum: 272.368 MB, node maximum: 913.834 MB


 NUMBER OF SORTED TWO-ELECTRON INTEGRALS:  125132898.     BUFFER LENGTH:  32768
 NUMBER OF SEGMENTS:   4  SEGMENT LENGTH:   31982049      RECORD LENGTH: 524288

 Memory used in sort:      32.54 MW

 SORT1 READ  1600176772. AND WROTE    47229886. INTEGRALS IN    138 RECORDS. CPU TIME:    46.31 SEC, REAL TIME:    55.32 SEC
 SORT2 READ   518485192. AND WROTE  1376419418. INTEGRALS IN  11550 RECORDS. CPU TIME:     3.35 SEC, REAL TIME:     4.40 SEC

 Node minimum:   125060912.  Node maximum:   125200036. integrals

 OPERATOR DM      FOR CENTER  0  COORDINATES:    0.000000    0.000000    0.000000


 **********************************************************************************************************************************
 DATASETS  * FILE   NREC   LENGTH (MB)   RECORD NAMES
              1      19       22.50       500      610      700      900      950      970     1000      129      960     1100   
                                          VAR    BASINP    GEOM    SYMINP    ZMAT    AOBASIS   BASIS     P2S    ABASIS      S 
                                         1400     1410     1420     1200     1210     1080     1600     1650     1700   
                                           T        V       ECP      H0       H01     AOSYM     SMH    MOLCAS    OPER   

 PROGRAMS   *        TOTAL       INT
 CPU TIMES  *       231.74    231.38
 REAL TIME  *       244.01 SEC
 DISK USED  *        10.89 GB      
 GA USED    *         0.00 MB       (max)       0.00 MB       (current)
 **********************************************************************************************************************************


 PROGRAM * RHF-SCF (OPEN SHELL)       Authors: W. Meyer, H.-J. Werner


 NUMBER OF ELECTRONS:      12+   11-    SPACE SYMMETRY=4    SPIN SYMMETRY: Doublet 
 CONVERGENCE THRESHOLDS:    1.00E-05 (Density)    1.00E-07 (Energy)
 MAX. NUMBER OF ITERATIONS:       60
 INTERPOLATION TYPE:            DIIS
 INTERPOLATION STEPS:              2 (START)      1 (STEP)
 LEVEL SHIFTS:                 -1.00 (CLOSED) -0.50 (OPEN) 

 Number of closed-shell orbitals:   11 (   6   2   3   0 )
 Number of open-shell orbitals:      1 (   0   0   0   1 )


 Orbital guess generated from atomic densities. Full valence occupancy:    7   3   3   1

 Molecular orbital dump at record        2100.2

 ITERATION    DDIFF          GRAD             ENERGY        2-EL.EN.            DIPOLE MOMENTS         DIIS   ORB.
    1      0.000D+00      0.000D+00      -119.57352220    235.932652    0.00000    0.00000   -2.37292    0    start
    2      0.000D+00      0.542D-02      -119.59964019    234.944931    0.00000    0.00000   -1.91049    1    diag,B
    3      0.977D-02      0.152D-02      -119.60449264    234.937001    0.00000    0.00000   -1.89173    2    diag,B
    4      0.464D-02      0.810D-03      -119.60701077    234.906556    0.00000    0.00000   -1.84971    3    diag,B
    5      0.304D-02      0.481D-03      -119.60848189    234.851917    0.00000    0.00000   -1.84995    4    diag,B
    6      0.121D-02      0.290D-03      -119.60919578    234.827578    0.00000    0.00000   -1.85038    5    diag,B
    7      0.186D-02      0.179D-03      -119.60952313    234.805959    0.00000    0.00000   -1.84979    6    diag,B
    8      0.706D-03      0.114D-03      -119.60966420    234.805815    0.00000    0.00000   -1.84315    7    diag,B
    9      0.754D-03      0.769D-04      -119.60973227    234.810554    0.00000    0.00000   -1.83530    8    diag,B
   10      0.445D-03      0.560D-04      -119.60977910    234.818170    0.00000    0.00000   -1.82590    9    orth
   11      0.193D-03      0.362D-04      -119.60979733    234.823572    0.00000    0.00000   -1.82025   10    diag,B
   12      0.250D-03      0.274D-04      -119.60980687    234.827726    0.00000    0.00000   -1.81644   11    diag,B
   13      0.193D-03      0.212D-04      -119.60980932    234.829631    0.00000    0.00000   -1.81507   12    diag,B
   14      0.174D-03      0.167D-04      -119.60981271    234.833109    0.00000    0.00000   -1.81250   13    diag,B
   15      0.939D-04      0.126D-04      -119.60981403    234.835003    0.00000    0.00000   -1.81093   14    diag,B
   16      0.463D-04      0.940D-05      -119.60981508    234.836724    0.00000    0.00000   -1.80908   15    diag,B
   17      0.435D-04      0.667D-05      -119.60981531    234.837084    0.00000    0.00000   -1.80846   16    diag,B
   18      0.888D-04      0.708D-05      -119.60981540    234.837279    0.00000    0.00000   -1.80825   17    diag,B
   19      0.831D-04      0.798D-05      -119.60981560    234.837590    0.00000    0.00000   -1.80752   18    diag,B
   20      0.980D-04      0.582D-05      -119.60981567    234.837642    0.00000    0.00000   -1.80723   19    orth
   21      0.881D-04      0.517D-05      -119.60981574    234.837810    0.00000    0.00000   -1.80686   20    diag,B
   22      0.152D-03      0.556D-05      -119.60981579    234.837817    0.00000    0.00000   -1.80662   21    diag,B
   23      0.840D-04      0.101D-04      -119.60981580    234.837778    0.00000    0.00000   -1.80654   22    diag,B
   24      0.133D-03      0.173D-04      -119.60981581    234.837787    0.00000    0.00000   -1.80655   23    diag,B
   25      0.207D-03      0.896D-05      -119.60981582    234.837782    0.00000    0.00000   -1.80648   24    diag,B
   26      0.934D-04      0.583D-05      -119.60981582    234.837763    0.00000    0.00000   -1.80642   24    diag,B
   27      0.582D-04      0.142D-04      -119.60981583    234.837822    0.00000    0.00000   -1.80642   24    diag,B
   28      0.693D-04      0.680D-05      -119.60981586    234.837804    0.00000    0.00000   -1.80616   24    diag,B
   29      0.383D-04      0.585D-05      -119.60981588    234.837799    0.00000    0.00000   -1.80591   24    fixocc
   30      0.924D-04      0.185D-04      -119.60981584    234.837377    0.00000    0.00000   -1.80571   24    orth
   31      0.142D-03      0.842D-05      -119.60981589    234.837789    0.00000    0.00000   -1.80585   24    diag,B
   32      0.957D-04      0.485D-05      -119.60981590    234.837770    0.00000    0.00000   -1.80579   24    diag,B
   33      0.152D-04      0.547D-05      -119.60981590    234.837756    0.00000    0.00000   -1.80576   24    diag,B
   34      0.316D-04      0.804D-05      -119.60981591    234.837704    0.00000    0.00000   -1.80574   24    diag,B
   35      0.177D-04      0.472D-05      -119.60981592    234.837704    0.00000    0.00000   -1.80556   24    diag,B
   36      0.158D-04      0.133D-04      -119.60981592    234.837733    0.00000    0.00000   -1.80550   24    diag,B
   37      0.289D-04      0.180D-04      -119.60981592    234.837738    0.00000    0.00000   -1.80549   24    diag,B
   38      0.360D-04      0.822D-05      -119.60981585    234.838115    0.00000    0.00000   -1.80542   24    diag,B
   39      0.729D-04      0.786D-05      -119.60981592    234.837750    0.00000    0.00000   -1.80548   24    diag,B
   40      0.774D-04      0.430D-05      -119.60981583    234.837692    0.00000    0.00000   -1.80534   24    orth
   41      0.271D-03      0.206D-04      -119.60981592    234.837696    0.00000    0.00000   -1.80553   24    diag,B
   42      0.251D-03      0.131D-04      -119.60981592    234.837699    0.00000    0.00000   -1.80550   24    diag,B
   43      0.352D-04      0.782D-05      -119.60981592    234.837685    0.00000    0.00000   -1.80549   24    diag,B
   44      0.908D-05      0.817D-05      -119.60981592    234.837633    0.00000    0.00000   -1.80546   24    diag,B
   45      0.136D-04      0.967D-05      -119.60981592    234.837687    0.00000    0.00000   -1.80547   24    diag,B
   46      0.142D-04      0.670D-05      -119.60981593    234.837710    0.00000    0.00000   -1.80532   24    diag,B
   47      0.661D-05      0.552D-05      -119.60981593    234.837712    0.00000    0.00000   -1.80529   24    diag,B
   48      0.126D-04      0.110D-04      -119.60981593    234.837809    0.00000    0.00000   -1.80527   24    diag,B
   49      0.145D-04      0.591D-05      -119.60981593    234.837685    0.00000    0.00000   -1.80525   24    diag,B
   50      0.255D-04      0.127D-04      -119.60981593    234.837720    0.00000    0.00000   -1.80527   24    orth
   51      0.212D-04      0.232D-05      -119.60981593    234.837693    0.00000    0.00000   -1.80518   24    diag,B
   52      0.736D-05      0.394D-05      -119.60981593    234.837717    0.00000    0.00000   -1.80513    0    orth

 Final alpha occupancy:   6   2   3   1
 Final beta  occupancy:   6   2   3   0

 !RHF STATE 1.4 Energy               -119.609815929865
 Nuclear energy                        29.98670862
 One-electron energy                 -267.01538317
 Two-electron energy                  117.41885862
 Virial quotient                       -2.64704172
 !RHF STATE 1.4 Dipole moment           0.00000000     0.00000000    -1.80512719
 Dipole moment /Debye                   0.00000000     0.00000000    -4.58787517

 ELECTRON ORBITALS
 =================


   Orb  Occ    Energy  Couls-En    Coefficients

                                   1 1s      1 1s      1 1s      1 1s      1 1s      1 1s      1 1s      1 1s      1 1s      1 1s   
                                   1 1s      1 1s      1 1s      1 1s      1 1s      1 1s      1 1s      1 1s      1 1s      1 1s   
                                   1 1s      1 1s      1 1s      1 1s      1 1s      1 1s      1 1s      1 1s      1 1s      1 1s   
                                   1 1s      1 1s      1 1s      1 1s      1 1s      1 2pz     1 2pz     1 2pz     1 2pz     1 2pz  
                                   1 2pz     1 2pz     1 2pz     1 2pz     1 2pz     1 2pz     1 2pz     1 2pz     1 2pz     1 2pz  
                                   1 2pz     1 2pz     1 2pz     1 2pz     1 2pz     1 2pz     1 2pz     1 2pz     1 2pz     1 2pz  
                                   1 2pz     1 2pz     1 2pz     1 2pz     1 2pz     1 2pz     1 3d0     1 3d2+    1 3d0     1 3d2+ 
                                   1 3d0     1 3d2+    1 3d0     1 3d2+    1 3d0     1 3d2+    1 3d0     1 3d2+    1 3d0     1 3d2+ 
                                   1 3d0     1 3d2+    1 3d0     1 3d2+    1 3d0     1 3d2+    1 3d0     1 3d2+    1 3d0     1 3d2+ 
                                   1 3d0     1 3d2+    1 3d0     1 3d2+    1 3d0     1 3d2+    1 3d0     1 3d2+    1 3d0     1 3d2+ 
                                   1 3d0     1 3d2+    1 3d0     1 3d2+    1 3d0     1 3d2+    1 3d0     1 3d2+    1 3d0     1 3d2+ 
                                   1 4f0     1 4f2+    1 4f0     1 4f2+    1 4f0     1 4f2+    1 4f0     1 4f2+    1 4f0     1 4f2+ 
                                   1 4f0     1 4f2+    1 4f0     1 4f2+    1 4f0     1 4f2+    1 4f0     1 4f2+    1 4f0     1 4f2+ 
                                   1 4f0     1 4f2+    1 4f0     1 4f2+    1 4f0     1 4f2+    1 4f0     1 4f2+    1 4f0     1 4f2+ 
                                   1 4f0     1 4f2+    1 4f0     1 4f2+    1 5g0     1 5g4+    1 5g2+    1 5g0     1 5g4+    1 5g2+ 
                                   1 5g0     1 5g4+    1 5g2+    2 1s      2 1s      2 1s      2 1s      2 1s      2 1s      2 1s   
                                   2 1s      2 1s      2 1s      2 1s      2 1s      2 1s      2 2pz     2 2pz     2 2pz     2 2pz  
                                   2 2pz     2 2pz     2 2pz     2 2pz     2 3d0     2 3d2+    2 3d0     2 3d2+    2 3d0     2 3d2+ 
                                   2 3d0     2 3d2+    2 4f0     2 4f2+    2 4f0     2 4f2+ 

   1.1   2    -4.2695  -20.6975  0.000000 -0.000000  0.000000 -0.000000  0.000000 -0.000000  0.000000 -0.000000  0.000000 -0.000001
                                 0.000002 -0.000005  0.000012 -0.000030  0.000077 -0.000192  0.000481 -0.001189  0.002914 -0.006932
                                 0.016396 -0.036624  0.081130 -0.172637  0.313210 -0.099471 -2.158474  1.788409  0.213079  0.727521
                                 0.094679  0.076564 -0.031278 -0.002514  0.000207 -0.000000  0.000000 -0.000000  0.000000 -0.000000
                                 0.000000 -0.000000  0.000000 -0.000000  0.000000 -0.000000  0.000001 -0.000003  0.000008 -0.000018
                                 0.000043 -0.000095  0.000215 -0.000490  0.001412 -0.004866  0.045602 -0.055607  0.029770 -0.586977
                                 0.578358 -0.023932  0.018873 -0.014520 -0.000514  0.000430  0.000000  0.000000 -0.000000 -0.000000
                                 0.000000  0.000000 -0.000000 -0.000000  0.000001  0.000000 -0.000005 -0.000000  0.000013  0.000001
                                -0.000034 -0.000003  0.000080  0.000006 -0.000177 -0.000017  0.000384  0.000035 -0.001048 -0.000159
                                 0.004042  0.000495 -0.011214 -0.001710  0.010554  0.001224 -0.005911  0.002921  0.023069  0.001080
                                -0.016431  0.000795  0.003059 -0.000118  0.004207 -0.000121 -0.006081  0.000006  0.001372 -0.000003
                                -0.000000 -0.000000  0.000000  0.000000 -0.000002 -0.000000  0.000007  0.000000 -0.000020  0.000000
                                 0.000052  0.000000 -0.000129  0.000007  0.000380 -0.000031 -0.002518  0.000083  0.006522 -0.000248
                                -0.011314 -0.000145  0.011320 -0.000752 -0.009477  0.000148  0.005755  0.000200  0.000841  0.000052
                                -0.002407 -0.000013  0.001005  0.000004  0.000082  0.000074 -0.000115 -0.000213  0.000737 -0.000776
                                 0.000623  0.000389 -0.000340  0.000000 -0.000000  0.000001 -0.000007  0.000062  0.001491  0.002248
                                 0.004725 -0.001053 -0.008189 -0.003203 -0.000913  0.016836 -0.000054 -0.000444 -0.000858 -0.002263
                                 0.006418  0.000018  0.000016 -0.004965  0.000225  0.000022  0.001693  0.000236  0.000013  0.000002
                                -0.002309  0.000127 -0.000426 -0.000033 -0.000878 -0.000195

   2.1   2    -2.5145  -16.9218  0.000000 -0.000000  0.000000 -0.000000  0.000000 -0.000000  0.000000 -0.000000  0.000000 -0.000000
                                 0.000000 -0.000000  0.000000 -0.000000  0.000001 -0.000002  0.000005 -0.000014  0.000033 -0.000079
                                 0.000188 -0.000421  0.000945 -0.002074  0.004169 -0.005028 -0.009413  0.003271  0.022281 -0.018584
                                 0.015899 -0.015672 -0.008693 -0.001608 -0.000033 -0.000000  0.000000 -0.000000  0.000000 -0.000000
                                 0.000000 -0.000000  0.000000 -0.000001  0.000005 -0.000015  0.000042 -0.000112  0.000283 -0.000669
                                 0.001467 -0.003205  0.005303 -0.009054 -0.017877  0.145863 -1.465686  1.314469  0.043622  2.550312
                                -1.901287  0.288476  0.003599 -0.002677 -0.001191  0.000293 -0.000000 -0.000000  0.000000  0.000000
                                -0.000000 -0.000000  0.000000  0.000000 -0.000000 -0.000000  0.000001  0.000000 -0.000003 -0.000000
                                 0.000008  0.000001 -0.000020 -0.000002  0.000049  0.000005 -0.000104 -0.000010  0.000388  0.000066
                                -0.001086 -0.000074  0.003067  0.000168 -0.002828 -0.000062  0.000371 -0.001356 -0.013773  0.000156
                                 0.006423 -0.001903 -0.006477  0.001105 -0.004847  0.000858 -0.000083  0.000049 -0.000296  0.000010
                                -0.000000  0.000000  0.000000 -0.000000 -0.000000  0.000000  0.000001 -0.000001 -0.000004  0.000004
                                 0.000009 -0.000009 -0.000030  0.000039  0.000099 -0.000081 -0.000922 -0.000199  0.002367 -0.000356
                                -0.001893  0.000648  0.002521 -0.002005  0.003333 -0.000796 -0.003374 -0.001600 -0.001920 -0.000403
                                 0.000909  0.000086 -0.000436 -0.000030 -0.000113 -0.000014  0.000106  0.000361 -0.000001 -0.000173
                                -0.000508  0.000013  0.000768 -0.000000  0.000000 -0.000002  0.000014 -0.000149 -0.001949 -0.007205
                                 0.025969  0.006583  0.025731 -0.001230  0.002085  0.008438 -0.000367 -0.003450 -0.009694 -0.019609
                                -0.016198 -0.000090  0.000101 -0.001181  0.001444  0.000060  0.005820  0.000569  0.000073 -0.000002
                                 0.002930  0.000497 -0.001176 -0.000148 -0.000906 -0.000399

   3.1   2    -1.2496  -11.2996 -0.000000  0.000000 -0.000000  0.000000 -0.000000  0.000000 -0.000000  0.000000 -0.000000  0.000000
                                -0.000000  0.000000 -0.000001  0.000002 -0.000005  0.000012 -0.000030  0.000074 -0.000182  0.000433
                                -0.001037  0.002340 -0.005330  0.011870 -0.023321  0.012925  0.181518 -0.174370  0.025655 -0.224859
                                 0.121146  0.021451 -0.050063 -0.015180  0.002429  0.000000 -0.000000  0.000000 -0.000000  0.000000
                                -0.000000  0.000000 -0.000000  0.000000 -0.000001  0.000003 -0.000007  0.000019 -0.000049  0.000116
                                -0.000258  0.000569 -0.001005  0.001905  0.001119 -0.016979  0.200339 -0.180215 -0.014701 -0.157755
                                 0.045048 -0.008956 -0.024760 -0.028819 -0.001510  0.000794  0.000000 -0.000000 -0.000000  0.000000
                                 0.000000 -0.000000 -0.000000  0.000000  0.000001 -0.000000 -0.000004  0.000000  0.000011 -0.000000
                                -0.000032  0.000001  0.000079 -0.000002 -0.000226  0.000006  0.000448 -0.000013 -0.002082  0.000043
                                 0.002460 -0.000113 -0.001240  0.000327 -0.006214 -0.000228  0.038750 -0.000521 -0.030109 -0.000323
                                 0.080278 -0.000381  0.035686  0.000783 -0.011809  0.000587 -0.005428 -0.000038  0.001169 -0.000015
                                -0.000000  0.000000  0.000000 -0.000000 -0.000001  0.000000  0.000002 -0.000000 -0.000006  0.000000
                                 0.000012 -0.000001 -0.000056 -0.000003  0.000117  0.000001 -0.001379  0.000071  0.006086  0.000134
                                -0.007364 -0.000100  0.008405  0.000649  0.006129  0.000660  0.001307  0.002172 -0.004557  0.001074
                                -0.000744 -0.000197  0.001038  0.000052  0.000390  0.000023  0.000014  0.003206 -0.000036  0.000629
                                 0.001014 -0.000063  0.000953 -0.000001  0.000007 -0.000049  0.000322 -0.003356 -0.050518 -0.165120
                                 0.556415  0.159274  0.405161 -0.001710  0.048601  0.067786 -0.000671 -0.006205 -0.017723 -0.039726
                                -0.062651 -0.000171  0.000185 -0.014929  0.001724 -0.000741  0.012522 -0.000710  0.000107 -0.000174
                                 0.014811 -0.001341 -0.001335 -0.000140 -0.002958 -0.001042

   4.1   2    -0.5719  -10.4215  0.000000 -0.000000  0.000000 -0.000000  0.000000 -0.000000  0.000000 -0.000000  0.000000 -0.000000
                                 0.000000 -0.000000  0.000001 -0.000002  0.000005 -0.000013  0.000032 -0.000078  0.000192 -0.000457
                                 0.001094 -0.002470  0.005636 -0.012602  0.025074 -0.016414 -0.182815  0.174916 -0.017244  0.216113
                                -0.099163 -0.035185  0.046631  0.044461 -0.007608 -0.000000  0.000000 -0.000000  0.000000 -0.000000
                                 0.000000 -0.000000  0.000000 -0.000000  0.000000 -0.000001  0.000004 -0.000010  0.000024 -0.000057
                                 0.000124 -0.000275  0.000436 -0.000785 -0.002269  0.016838 -0.198104  0.197884 -0.018977  0.534404
                                -0.434336  0.008141  0.000469  0.032127  0.011157 -0.004179 -0.000000  0.000000  0.000000 -0.000000
                                -0.000000  0.000000  0.000001 -0.000000 -0.000005  0.000001  0.000017 -0.000005 -0.000051  0.000014
                                 0.000142 -0.000038 -0.000352  0.000094  0.001005 -0.000259 -0.002007  0.000525  0.009258 -0.002293
                                -0.013285  0.004037  0.017492 -0.007582  0.010837  0.001586 -0.151319  0.031364  0.050731 -0.000679
                                -0.256709  0.047678 -0.181005  0.039091 -0.062052  0.016991  0.007982  0.001720 -0.000853 -0.000051
                                 0.000000  0.000000 -0.000001 -0.000000  0.000005  0.000000 -0.000016 -0.000000  0.000049  0.000001
                                -0.000122 -0.000003  0.000340  0.000013 -0.000897 -0.000028  0.005467  0.000136 -0.015075 -0.000749
                                 0.016645  0.001058 -0.015538 -0.001758 -0.003804 -0.000073 -0.005532 -0.002957  0.002543 -0.001830
                                 0.002889  0.000171  0.000449 -0.000191 -0.000750  0.000267 -0.000327 -0.004354  0.000441 -0.001063
                                -0.004417  0.000798 -0.001040 -0.000000  0.000001 -0.000011  0.000073 -0.000759 -0.012272 -0.037604
                                 0.125227  0.038328  0.107359  0.003178  0.011171 -0.054314  0.006910  0.071793  0.230147  0.368909
                                 0.272672  0.004006 -0.001821  0.035849 -0.006879 -0.000270 -0.023331 -0.001093 -0.000331 -0.000047
                                -0.017447 -0.001431  0.002977  0.001554  0.003904  0.001439

   5.1   2    -0.4667  -11.1236 -0.000000  0.000000 -0.000000  0.000000 -0.000000  0.000000 -0.000000  0.000000 -0.000000  0.000000
                                -0.000000  0.000000 -0.000001  0.000002 -0.000004  0.000010 -0.000025  0.000061 -0.000149  0.000355
                                -0.000848  0.001913 -0.004354  0.009753 -0.019943  0.020378  0.095204 -0.083815 -0.030606 -0.059227
                                -0.010046  0.057112  0.045224 -0.001600  0.001246  0.000000 -0.000000  0.000000 -0.000000  0.000000
                                -0.000000  0.000000 -0.000000  0.000000 -0.000000  0.000001 -0.000002  0.000005 -0.000013  0.000031
                                -0.000068  0.000152 -0.000276  0.000548  0.000058 -0.003477  0.046403 -0.041030 -0.007455  0.037233
                                -0.066080 -0.002059  0.018826  0.005363 -0.001436  0.000725 -0.000000  0.000000  0.000000 -0.000000
                                -0.000000  0.000001  0.000000 -0.000003 -0.000001  0.000011  0.000003 -0.000039 -0.000009  0.000114
                                 0.000024 -0.000313 -0.000060  0.000771  0.000166 -0.002131 -0.000338  0.004322  0.001491 -0.018938
                                -0.002743  0.032914  0.005473 -0.060356 -0.001618  0.010967 -0.020630  0.258681  0.002190 -0.011552
                                -0.034132  0.398041 -0.021431  0.341795 -0.013238  0.175632 -0.004041  0.029127  0.000258 -0.000711
                                -0.000000  0.000000  0.000000 -0.000000 -0.000001  0.000001  0.000002 -0.000002 -0.000008  0.000007
                                 0.000018 -0.000016 -0.000058  0.000054  0.000131 -0.000127 -0.000836  0.001047  0.003161 -0.004125
                                -0.003615  0.005823  0.005225 -0.008385 -0.000675  0.002818  0.007322 -0.010352  0.001517 -0.007415
                                -0.000765 -0.000138  0.000126 -0.000453  0.000696  0.001660 -0.000020  0.000921  0.002757  0.001367
                                 0.002173  0.003812  0.002684  0.000000 -0.000000  0.000001 -0.000008  0.000083  0.001324  0.004124
                                -0.015743 -0.004292 -0.014473 -0.000216 -0.001222  0.003793 -0.001423 -0.014831 -0.047876 -0.075515
                                -0.059562 -0.000840  0.000374 -0.008668  0.000662  0.000937  0.001853  0.003913  0.000034  0.000055
                                 0.002022  0.002717 -0.000122 -0.001010 -0.000089 -0.001613

   6.1   2    -0.3533   -9.1830 -0.000000  0.000000 -0.000000  0.000000 -0.000000  0.000000 -0.000000  0.000000 -0.000000  0.000000
                                -0.000000  0.000001 -0.000003  0.000008 -0.000021  0.000052 -0.000130  0.000322 -0.000790  0.001884
                                -0.004497  0.010154 -0.023112  0.051883 -0.107183  0.121116  0.437886 -0.374203 -0.199051 -0.207604
                                -0.173165  0.257504  0.495676  0.135561 -0.000350  0.000000 -0.000000  0.000000 -0.000000  0.000000
                                -0.000000  0.000000 -0.000000  0.000000 -0.000000  0.000001 -0.000003  0.000008 -0.000021  0.000050
                                -0.000112  0.000249 -0.000474  0.000964 -0.000628 -0.002061  0.031834 -0.016853 -0.028983  0.405593
                                -0.436476  0.011849 -0.007724 -0.023285 -0.005640  0.001306 -0.000000 -0.000000  0.000000  0.000000
                                -0.000000 -0.000000  0.000002  0.000000 -0.000007 -0.000002  0.000023  0.000007 -0.000068 -0.000019
                                 0.000185  0.000053 -0.000454 -0.000131  0.001249  0.000363 -0.002538 -0.000735  0.011028  0.003245
                                -0.019529 -0.005656  0.036219  0.010674 -0.007453 -0.002315 -0.148820 -0.045178  0.009800  0.001554
                                -0.235419 -0.067113 -0.194985 -0.054776 -0.118940 -0.028647 -0.026665 -0.006713  0.000717 -0.000011
                                -0.000000 -0.000000  0.000000  0.000000 -0.000000 -0.000000  0.000001  0.000000 -0.000003 -0.000001
                                 0.000002  0.000002 -0.000033 -0.000015  0.000014  0.000033 -0.000311 -0.000237  0.003348  0.001183
                                -0.002904 -0.001431  0.008225  0.003049  0.000581  0.000133  0.016673  0.003377  0.009663  0.003136
                                 0.001302  0.000252  0.001568  0.000308  0.000117  0.000294 -0.000948 -0.001080 -0.000177 -0.001262
                                -0.001150 -0.000209 -0.001442  0.000000 -0.000000  0.000003 -0.000019  0.000189  0.003270  0.008732
                                -0.026789 -0.007976 -0.020837 -0.002170 -0.002762 -0.011526 -0.002430 -0.025087 -0.080501 -0.128270
                                -0.117472 -0.001319  0.000643 -0.026481 -0.000898 -0.000127 -0.002850 -0.000039 -0.000035  0.000003
                                 0.003404  0.001015  0.001026 -0.000345  0.000862 -0.001055

   7.1   0    -0.0152   -5.4539 -0.000000  0.000000 -0.000000  0.000000 -0.000000  0.000000 -0.000000  0.000000 -0.000000  0.000000
                                -0.000000  0.000000 -0.000001  0.000002 -0.000004  0.000010 -0.000025  0.000062 -0.000153  0.000364
                                -0.000866  0.001949 -0.004404  0.009791 -0.020062  0.024054  0.060906 -0.043736 -0.055667  0.034650
                                -0.097064  0.018875  0.095618 -0.210311  0.643150 -0.000000  0.000000 -0.000000  0.000000 -0.000000
                                 0.000000 -0.000000  0.000000 -0.000000  0.000001 -0.000004  0.000012 -0.000032  0.000081 -0.000194
                                 0.000435 -0.000964  0.001818 -0.003671  0.001867  0.011067 -0.170677  0.126742  0.077375 -0.910752
                                 1.045995  0.003677 -0.025674 -0.380524 -0.210246 -0.200261  0.000000  0.000000 -0.000000 -0.000000
                                 0.000000  0.000000 -0.000001 -0.000000  0.000005  0.000000 -0.000016 -0.000002  0.000046  0.000005
                                -0.000125 -0.000013  0.000307  0.000033 -0.000827 -0.000092  0.001690  0.000186 -0.007097 -0.000816
                                 0.013487  0.001375 -0.026872 -0.002371  0.009497  0.000209  0.085896  0.011207  0.011577 -0.000771
                                 0.124822  0.017075  0.130273  0.016044  0.107731  0.013726  0.010451  0.009015  0.127551  0.009470
                                -0.000000  0.000000  0.000000 -0.000000 -0.000000  0.000000  0.000001 -0.000000 -0.000001  0.000000
                                 0.000006 -0.000001  0.000002  0.000001  0.000062 -0.000014 -0.000141 -0.000054 -0.001649  0.000489
                                 0.000526 -0.000120 -0.002275  0.001180 -0.004812 -0.000164 -0.008265  0.000103 -0.019589 -0.003857
                                -0.025528 -0.001347  0.005106 -0.003965 -0.000406  0.000485  0.000291 -0.000734  0.000829 -0.000036
                                 0.000531  0.000210  0.001522  0.000000 -0.000000  0.000001 -0.000010  0.000112  0.001200  0.006529
                                -0.036523 -0.007904 -0.041339  0.003457 -0.001659  0.194276  0.002311  0.023811  0.076432  0.123781
                                 0.137160  0.001221 -0.000612 -0.022774  0.001187  0.000081  0.002498 -0.000325  0.000049  0.000008
                                -0.007775  0.000583 -0.000716  0.000393  0.000385  0.000858

   8.1   0     0.0305   -2.6609  0.000000 -0.000000  0.000000 -0.000000  0.000000 -0.000000  0.000000 -0.000000  0.000000 -0.000000
                                 0.000000 -0.000000  0.000001 -0.000002  0.000004 -0.000011  0.000028 -0.000069  0.000169 -0.000402
                                 0.000950 -0.002128  0.004742 -0.010430  0.022002 -0.038600  0.021797 -0.043578  0.092313 -0.036624
                                 0.043705 -0.027664  0.402506 -0.081530  0.320516 -0.000000  0.000000 -0.000000  0.000000 -0.000000
                                 0.000000 -0.000000  0.000000 -0.000000  0.000000 -0.000001  0.000004 -0.000010  0.000025 -0.000062
                                 0.000147 -0.000324  0.000824 -0.001913  0.007697 -0.030988  0.332430 -0.389850  0.163011 -3.651587
                                 3.571660 -0.161267  0.334148  0.159777  1.300552 -1.568621  0.000000 -0.000000 -0.000000  0.000000
                                 0.000000 -0.000000 -0.000001  0.000000  0.000002 -0.000000 -0.000007  0.000001  0.000020 -0.000002
                                -0.000049  0.000005  0.000105 -0.000012 -0.000145  0.000033  0.000382 -0.000067  0.000500  0.000296
                                 0.006937 -0.000484 -0.027748  0.000773  0.038504  0.000030 -0.089092 -0.004068  0.128114  0.000404
                                -0.197721 -0.006308  0.000804 -0.006432  0.017278 -0.006764  0.106251 -0.005032  0.211230 -0.005682
                                -0.000000 -0.000000  0.000002  0.000000 -0.000010 -0.000000  0.000035  0.000001 -0.000104 -0.000003
                                 0.000273  0.000010 -0.000724 -0.000023  0.002150  0.000076 -0.013951 -0.000412  0.037625  0.000869
                                -0.061631 -0.001778  0.071044  0.001359 -0.065794 -0.001693  0.074205  0.001137  0.003038  0.000208
                                 0.060083  0.003928  0.051393 -0.005304  0.000338 -0.000265 -0.000121 -0.000363 -0.000351 -0.000025
                                 0.008121  0.000088 -0.000791 -0.000000  0.000000 -0.000002  0.000014 -0.000148 -0.001917 -0.006906
                                 0.053769  0.006627 -0.066234 -0.002353  0.002123 -0.986774 -0.001160 -0.011270 -0.034039 -0.059321
                                 0.142138 -0.000316  0.000317 -0.000497  0.000238 -0.000038 -0.011577  0.000116 -0.000068 -0.000008
                                -0.057568 -0.000600 -0.000538 -0.000163  0.005396 -0.000397

                                   1 2px     1 2px     1 2px     1 2px     1 2px     1 2px     1 2px     1 2px     1 2px     1 2px  
                                   1 2px     1 2px     1 2px     1 2px     1 2px     1 2px     1 2px     1 2px     1 2px     1 2px  
                                   1 2px     1 2px     1 2px     1 2px     1 2px     1 2px     1 2px     1 2px     1 2px     1 2px  
                                   1 2px     1 3d1+    1 3d1+    1 3d1+    1 3d1+    1 3d1+    1 3d1+    1 3d1+    1 3d1+    1 3d1+ 
                                   1 3d1+    1 3d1+    1 3d1+    1 3d1+    1 3d1+    1 3d1+    1 3d1+    1 3d1+    1 3d1+    1 3d1+ 
                                   1 3d1+    1 3d1+    1 3d1+    1 4f1+    1 4f3+    1 4f1+    1 4f3+    1 4f1+    1 4f3+    1 4f1+ 
                                   1 4f3+    1 4f1+    1 4f3+    1 4f1+    1 4f3+    1 4f1+    1 4f3+    1 4f1+    1 4f3+    1 4f1+ 
                                   1 4f3+    1 4f1+    1 4f3+    1 4f1+    1 4f3+    1 4f1+    1 4f3+    1 4f1+    1 4f3+    1 4f1+ 
                                   1 4f3+    1 4f1+    1 4f3+    1 4f1+    1 4f3+    1 4f1+    1 4f3+    1 5g1+    1 5g3+    1 5g1+ 
                                   1 5g3+    1 5g1+    1 5g3+    2 2px     2 2px     2 2px     2 2px     2 2px     2 2px     2 2px  
                                   2 2px     2 3d1+    2 3d1+    2 3d1+    2 3d1+    2 4f1+    2 4f3+    2 4f1+    2 4f3+ 

   1.2   2    -2.5000  -16.7730 -0.000000  0.000000 -0.000000  0.000000 -0.000000  0.000000 -0.000000  0.000000 -0.000001  0.000005
                                -0.000014  0.000041 -0.000111  0.000279 -0.000660  0.001446 -0.003157  0.005194 -0.008799 -0.018603
                                 0.148370 -1.487659  1.340924  0.030207  2.790378 -2.137157  0.293265  0.023294  0.001405 -0.000058
                                 0.000075 -0.000000  0.000000 -0.000000  0.000000 -0.000000  0.000001 -0.000002  0.000005 -0.000013
                                 0.000033 -0.000068  0.000275 -0.000566  0.001216 -0.000651 -0.002351 -0.001241 -0.005729 -0.002625
                                -0.000959  0.000065  0.000110  0.000000  0.000000 -0.000000 -0.000000  0.000000  0.000000 -0.000000
                                -0.000001  0.000002  0.000003 -0.000002 -0.000014  0.000021  0.000002  0.000018 -0.000147 -0.000405
                                 0.000787 -0.001041  0.001845  0.001038  0.001327 -0.003084  0.004487  0.001125  0.002280 -0.002636
                                 0.002585 -0.000823  0.000537  0.000071 -0.000124  0.000082  0.000051 -0.000052  0.000012  0.000234
                                -0.000481  0.000264  0.000038  0.000111  0.001045  0.003042  0.005683  0.003966  0.000026 -0.000030
                                -0.000345 -0.000448 -0.002159 -0.000026 -0.001230  0.000381  0.000034  0.000670  0.000079

   2.2   2    -0.4568  -10.0953  0.000000 -0.000000  0.000000 -0.000000  0.000000 -0.000000  0.000000 -0.000000  0.000000 -0.000000
                                 0.000001 -0.000004  0.000011 -0.000027  0.000064 -0.000144  0.000319 -0.000590  0.001180 -0.000254
                                -0.005434  0.076277 -0.063564 -0.020458  0.241127 -0.295240  0.001214  0.027868  0.027364  0.000980
                                -0.000802  0.000000 -0.000000  0.000000 -0.000002  0.000006 -0.000022  0.000065 -0.000178  0.000437
                                -0.001209  0.002448 -0.010689  0.017898 -0.030146  0.000461  0.149154 -0.014254  0.232829  0.216180
                                 0.100751  0.025204 -0.002492 -0.000000 -0.000000  0.000000  0.000000 -0.000001 -0.000000  0.000002
                                 0.000000 -0.000007 -0.000001  0.000012  0.000003 -0.000062 -0.000005  0.000092  0.000024 -0.001120
                                -0.000184  0.005853  0.000237 -0.004997 -0.000614  0.006697  0.000410  0.005722 -0.000640  0.014928
                                 0.001038 -0.003405  0.001161  0.003079  0.000227 -0.000243  0.000027  0.000045  0.000624  0.004746
                                 0.001089  0.006900  0.002297  0.005854  0.060360  0.192949  0.315072  0.269605  0.003282 -0.001548
                                 0.032176 -0.005959 -0.026351 -0.000339 -0.029946  0.002249  0.001490  0.007187  0.002150

   3.2   0    -0.0224   -8.3584 -0.000000  0.000000 -0.000000  0.000000 -0.000000  0.000000 -0.000000  0.000000 -0.000000  0.000001
                                -0.000003  0.000008 -0.000021  0.000053 -0.000126  0.000280 -0.000622  0.001128 -0.002218 -0.000303
                                 0.014539 -0.192366  0.173137  0.019974  0.150007 -0.035430  0.030337 -0.084557 -0.163573 -0.138394
                                -0.121850  0.000000 -0.000000  0.000000 -0.000002  0.000007 -0.000025  0.000075 -0.000204  0.000504
                                -0.001396  0.002828 -0.012420  0.021147 -0.037161  0.003463  0.172470 -0.012259  0.270156  0.237147
                                 0.178259  0.100969  0.051834  0.000000 -0.000000 -0.000000  0.000000  0.000000 -0.000000 -0.000001
                                 0.000000  0.000005 -0.000000 -0.000008  0.000001  0.000055 -0.000003 -0.000077  0.000007  0.001123
                                -0.000007 -0.006756  0.000065  0.008826 -0.000063 -0.013846  0.000093  0.002142 -0.000177 -0.022330
                                -0.000390 -0.018984 -0.001568 -0.008778 -0.000858 -0.013757 -0.001788 -0.000789  0.000214 -0.001813
                                -0.000150 -0.001455  0.001225 -0.004046 -0.042151 -0.136476 -0.219306 -0.225729 -0.002411  0.001065
                                -0.127287 -0.000980 -0.001153 -0.000023  0.005916  0.001025 -0.001016 -0.000716 -0.001245

   4.2   0     0.0263   -2.8234  0.000000 -0.000000  0.000000 -0.000000  0.000000 -0.000000  0.000000 -0.000000  0.000000 -0.000001
                                 0.000003 -0.000009  0.000025 -0.000063  0.000152 -0.000350  0.000773 -0.001677  0.003644 -0.008775
                                 0.026791 -0.261081  0.338079 -0.197571  3.917792 -3.889098  0.119945 -0.111253  0.177499 -0.779648
                                 1.378811  0.000000 -0.000000  0.000000 -0.000001  0.000003 -0.000011  0.000032 -0.000087  0.000213
                                -0.000572  0.001170 -0.004860  0.009311 -0.018505  0.006610  0.057300  0.008300  0.086507  0.088552
                                 0.058190 -0.012566 -0.240590  0.000000  0.000000 -0.000001 -0.000000  0.000003  0.000000 -0.000011
                                -0.000001  0.000032  0.000003 -0.000081 -0.000008  0.000229  0.000021 -0.000645 -0.000061  0.004425
                                 0.000386 -0.013345 -0.001030  0.020611  0.001673 -0.025078 -0.001873  0.016601  0.001484 -0.023409
                                -0.001227  0.007183  0.001588 -0.036448 -0.003210 -0.054255  0.007022 -0.000213  0.000054 -0.001005
                                 0.000100 -0.000345  0.000211 -0.001625 -0.018029 -0.061568 -0.091960 -0.124367 -0.001428  0.000413
                                 0.176249 -0.000625  0.000530 -0.000004 -0.004535  0.000045 -0.000465  0.000718 -0.000454

                                   1 2py     1 2py     1 2py     1 2py     1 2py     1 2py     1 2py     1 2py     1 2py     1 2py  
                                   1 2py     1 2py     1 2py     1 2py     1 2py     1 2py     1 2py     1 2py     1 2py     1 2py  
                                   1 2py     1 2py     1 2py     1 2py     1 2py     1 2py     1 2py     1 2py     1 2py     1 2py  
                                   1 2py     1 3d1-    1 3d1-    1 3d1-    1 3d1-    1 3d1-    1 3d1-    1 3d1-    1 3d1-    1 3d1- 
                                   1 3d1-    1 3d1-    1 3d1-    1 3d1-    1 3d1-    1 3d1-    1 3d1-    1 3d1-    1 3d1-    1 3d1- 
                                   1 3d1-    1 3d1-    1 3d1-    1 4f1-    1 4f3-    1 4f1-    1 4f3-    1 4f1-    1 4f3-    1 4f1- 
                                   1 4f3-    1 4f1-    1 4f3-    1 4f1-    1 4f3-    1 4f1-    1 4f3-    1 4f1-    1 4f3-    1 4f1- 
                                   1 4f3-    1 4f1-    1 4f3-    1 4f1-    1 4f3-    1 4f1-    1 4f3-    1 4f1-    1 4f3-    1 4f1- 
                                   1 4f3-    1 4f1-    1 4f3-    1 4f1-    1 4f3-    1 4f1-    1 4f3-    1 5g1-    1 5g3-    1 5g1- 
                                   1 5g3-    1 5g1-    1 5g3-    2 2py     2 2py     2 2py     2 2py     2 2py     2 2py     2 2py  
                                   2 2py     2 3d1-    2 3d1-    2 3d1-    2 3d1-    2 4f1-    2 4f3-    2 4f1-    2 4f3- 

   1.3   2    -2.4901  -16.7610 -0.000000  0.000000 -0.000000  0.000000 -0.000000  0.000000 -0.000000  0.000000 -0.000001  0.000005
                                -0.000014  0.000041 -0.000111  0.000279 -0.000659  0.001443 -0.003151  0.005183 -0.008788 -0.018548
                                 0.147959 -1.486745  1.341898  0.028341  2.806999 -2.157170  0.296270  0.026495  0.002116 -0.000064
                                 0.000087 -0.000000  0.000000 -0.000000  0.000000 -0.000000  0.000000 -0.000001  0.000003 -0.000008
                                 0.000017 -0.000038  0.000086 -0.000354  0.000798 -0.000543  0.001372 -0.001436 -0.000869 -0.004170
                                -0.001743  0.000149  0.000081  0.000000  0.000000 -0.000000 -0.000000  0.000000  0.000000 -0.000001
                                -0.000001  0.000003  0.000004 -0.000013 -0.000011  0.000007  0.000037 -0.000092 -0.000103  0.000529
                                -0.000047  0.000578  0.000007  0.002341  0.000883  0.001796 -0.001009  0.003594 -0.000465  0.000052
                                -0.001735  0.000019 -0.000512 -0.000033  0.000106  0.000125 -0.000047 -0.000105  0.000061 -0.000507
                                -0.000395 -0.000363  0.000178  0.000039  0.000371  0.001044  0.002013  0.000729  0.000012 -0.000011
                                -0.000537 -0.000309 -0.001202 -0.000017 -0.000375  0.000311  0.000013  0.000356  0.000056

   2.3   2    -0.5698  -10.2947  0.000000 -0.000000  0.000000 -0.000000  0.000000 -0.000000  0.000000 -0.000000  0.000000 -0.000000
                                 0.000001 -0.000002  0.000005 -0.000013  0.000031 -0.000070  0.000154 -0.000288  0.000572 -0.000246
                                -0.001932  0.025275 -0.016676 -0.015025  0.267103 -0.288865  0.003198 -0.015086 -0.008061  0.001757
                                -0.001204  0.000000 -0.000000  0.000000 -0.000002  0.000007 -0.000023  0.000067 -0.000184  0.000453
                                -0.001252  0.002537 -0.011100  0.019002 -0.033825  0.004304  0.153023 -0.009907  0.234813  0.207493
                                 0.078477  0.012575 -0.000513 -0.000000 -0.000000  0.000000  0.000000 -0.000000 -0.000000  0.000000
                                 0.000000 -0.000002 -0.000000  0.000002  0.000001 -0.000014 -0.000003  0.000015  0.000012 -0.000323
                                -0.000070  0.001508  0.000071  0.000096 -0.000214 -0.002066  0.000050  0.006954 -0.000380  0.000709
                                 0.000410 -0.011124  0.000557 -0.000043  0.000100  0.001051  0.000000  0.000526  0.000405  0.004917
                                 0.000886  0.006136  0.001480  0.006762  0.070024  0.224641  0.353955  0.264726  0.003751 -0.001786
                                 0.021013 -0.004594 -0.017817 -0.000252 -0.017872  0.002702  0.001721  0.005458  0.001883

   3.3   2    -0.3956  -10.3837 -0.000000  0.000000 -0.000000  0.000000 -0.000000  0.000000 -0.000000  0.000000 -0.000000  0.000001
                                -0.000002  0.000005 -0.000014  0.000035 -0.000083  0.000185 -0.000410  0.000750 -0.001492  0.000018
                                 0.008557 -0.118354  0.105614  0.016150  0.023101  0.050246  0.009706 -0.061359 -0.059588 -0.000617
                                 0.000086  0.000000 -0.000000  0.000000 -0.000002  0.000009 -0.000031  0.000093 -0.000255  0.000629
                                -0.001751  0.003544 -0.015732  0.026936 -0.049164  0.008099  0.219929 -0.014374  0.340018  0.283457
                                 0.166412  0.027777  0.003320  0.000000  0.000000 -0.000000 -0.000000  0.000002  0.000000 -0.000006
                                -0.000000  0.000018  0.000000 -0.000040 -0.000001  0.000145  0.000003 -0.000334 -0.000013  0.002935
                                -0.000004 -0.011940  0.000079  0.016665  0.000204 -0.023302  0.000070  0.006881 -0.000132 -0.028449
                                -0.000452 -0.007444 -0.000335 -0.007103 -0.000060  0.001768 -0.000002  0.000406  0.000596  0.000326
                                 0.001223  0.002106  0.001317 -0.005677 -0.058865 -0.189652 -0.297679 -0.262206 -0.003126  0.001500
                                -0.049536 -0.000755  0.001005 -0.000003  0.012884  0.000402 -0.001421 -0.002713 -0.001242

   4.3   0     0.0228   -2.4928  0.000000 -0.000000  0.000000 -0.000000  0.000000 -0.000000  0.000000 -0.000000  0.000000 -0.000001
                                 0.000004 -0.000011  0.000028 -0.000072  0.000175 -0.000399  0.000882 -0.001830  0.003890 -0.007244
                                 0.016999 -0.146237  0.217798 -0.172800  3.215748 -3.234227  0.087699 -0.062047  0.218795 -0.565014
                                 1.264207  0.000000 -0.000000  0.000000 -0.000000  0.000001 -0.000005  0.000014 -0.000037  0.000089
                                -0.000225  0.000468 -0.001743  0.004181 -0.009943  0.006795  0.012464  0.013909  0.014866  0.027877
                                 0.006449 -0.035725 -0.239229  0.000000  0.000000 -0.000001 -0.000000  0.000003  0.000000 -0.000010
                                -0.000001  0.000029  0.000003 -0.000076 -0.000006  0.000205  0.000017 -0.000600 -0.000047  0.003908
                                 0.000319 -0.010831 -0.000915  0.017214  0.001245 -0.020062 -0.001556  0.015382  0.001290 -0.015224
                                -0.000117  0.014889  0.003410 -0.031357 -0.002468 -0.030839  0.008735  0.000042  0.000071 -0.000160
                                 0.000398  0.000138 -0.000148 -0.000499 -0.006226 -0.023124 -0.029679 -0.056310 -0.000705  0.000118
                                 0.174000 -0.000477 -0.000066 -0.000008 -0.004542 -0.000217 -0.000170  0.000713 -0.000068

   5.3   0     0.0705   -3.3777 -0.000000  0.000000 -0.000000  0.000000 -0.000000  0.000000 -0.000000  0.000000 -0.000001  0.000002
                                -0.000005  0.000015 -0.000040  0.000103 -0.000251  0.000585 -0.001291  0.002943 -0.006538  0.019443
                                -0.068353  0.704594 -0.863817  0.425599 -8.875861  8.740911 -0.298322  0.305094 -0.286099  1.792889
                                -1.233031  0.000000 -0.000000  0.000000 -0.000002  0.000009 -0.000030  0.000090 -0.000232  0.000544
                                -0.001243  0.002676 -0.007837  0.027558 -0.077236  0.073284 -0.035189  0.193269 -0.127166  0.118739
                                -0.087481  0.214953 -0.516952  0.000000 -0.000000 -0.000001  0.000000  0.000002 -0.000000 -0.000009
                                 0.000001  0.000026 -0.000002 -0.000066  0.000005  0.000185 -0.000013 -0.000524  0.000051  0.003435
                                -0.000279 -0.009970  0.000530  0.015239 -0.001457 -0.018354  0.001173  0.011757 -0.001070 -0.013684
                                 0.002742  0.000194  0.004717 -0.015309  0.002407  0.141368  0.007999 -0.000306  0.000122  0.001178
                                 0.000856 -0.002875 -0.000502 -0.000970 -0.009853 -0.031243 -0.050977 -0.037401 -0.000432  0.000259
                                -0.248738 -0.001055 -0.002776 -0.000048 -0.009980  0.000170 -0.000231 -0.000037 -0.000102

                                   1 3d2-    1 3d2-    1 3d2-    1 3d2-    1 3d2-    1 3d2-    1 3d2-    1 3d2-    1 3d2-    1 3d2- 
                                   1 3d2-    1 3d2-    1 3d2-    1 3d2-    1 3d2-    1 3d2-    1 3d2-    1 3d2-    1 3d2-    1 3d2- 
                                   1 3d2-    1 3d2-    1 4f2-    1 4f2-    1 4f2-    1 4f2-    1 4f2-    1 4f2-    1 4f2-    1 4f2- 
                                   1 4f2-    1 4f2-    1 4f2-    1 4f2-    1 4f2-    1 4f2-    1 4f2-    1 4f2-    1 4f2-    1 5g2- 
                                   1 5g4-    1 5g2-    1 5g4-    1 5g2-    1 5g4-    2 3d2-    2 3d2-    2 3d2-    2 3d2-    2 4f2- 
                                   2 4f2- 

   1.4   +    -0.5023  -11.2844  0.000000 -0.000000  0.000001 -0.000003  0.000012 -0.000040  0.000117 -0.000322  0.000793 -0.002192
                                 0.004445 -0.019484  0.033715 -0.060954  0.009199  0.267696 -0.012623  0.415721  0.349867  0.167828
                                 0.023770 -0.000602  0.000000 -0.000000  0.000001 -0.000002  0.000007 -0.000016  0.000056 -0.000129
                                 0.001043 -0.004204  0.005993 -0.008875  0.002712 -0.011084 -0.007392  0.000166 -0.000502 -0.000746
                                 0.001622 -0.000487  0.002887  0.001072  0.003721  0.000838  0.003569  0.000046  0.001965 -0.000682
                                -0.001223

   2.4   0     0.0806   -2.6024 -0.000000  0.000000 -0.000001  0.000005 -0.000018  0.000062 -0.000183  0.000471 -0.001092  0.002403
                                -0.005236  0.013724 -0.056571  0.165858 -0.168379  0.147018 -0.453547  0.396021 -0.186735  0.210823
                                -0.477854  1.252794 -0.000000  0.000002 -0.000008  0.000027 -0.000079  0.000209 -0.000542  0.001631
                                -0.010278  0.026424 -0.043346  0.047559 -0.041510  0.030113 -0.042613  0.106112 -0.206478  0.000059
                                -0.000063 -0.000057 -0.000324  0.000110  0.000165  0.000385 -0.000545  0.000004  0.005559 -0.000116
                                 0.000636

   3.4   0     0.1477   -2.5575 -0.000000  0.000000 -0.000000  0.000001 -0.000004  0.000014 -0.000041  0.000105 -0.000242  0.000528
                                -0.001154  0.002925 -0.012639  0.037507 -0.038722  0.037408 -0.105266  0.097205 -0.039358  0.052981
                                -0.112203  0.196014  0.000002 -0.000014  0.000066 -0.000236  0.000694 -0.001836  0.004768 -0.014357
                                 0.090447 -0.232040  0.380247 -0.415587  0.362367 -0.258234  0.368263 -0.998890  1.619851  0.000012
                                -0.000009 -0.000097  0.000010  0.000520 -0.000041  0.000802  0.001492  0.000025 -0.001145 -0.000994
                                 0.002294

 HOMO      6.1    -0.353338 =      -9.6148eV
 LUMO      3.2    -0.022380 =      -0.6090eV
 LUMO-HOMO         0.330958 =       9.0058eV


 **********************************************************************************************************************************
 DATASETS  * FILE   NREC   LENGTH (MB)   RECORD NAMES
              1      19       22.57       500      610      700      900      950      970     1000      129      960     1100   
                                          VAR    BASINP    GEOM    SYMINP    ZMAT    AOBASIS   BASIS     P2S    ABASIS      S 
                                         1400     1410     1420     1200     1210     1080     1600     1650     1700   
                                           T        V       ECP      H0       H01     AOSYM     SMH    MOLCAS    OPER   

              2       4        4.55       700     1000      520     2100   
                                         GEOM     BASIS   MCVARS     RHF  

 PROGRAMS   *        TOTAL       RHF       INT
 CPU TIMES  *       266.57     34.83    231.38
 REAL TIME  *       281.81 SEC
 DISK USED  *        11.45 GB      
 SF USED    *         0.25 MB      
 GA USED    *         0.00 MB       (max)       0.00 MB       (current)
 **********************************************************************************************************************************
 SETTING SCF(4)         =      -119.60981593  AU                              


 PROGRAM * CCSD (Restricted open-shell coupled cluster)     Authors: C. Hampel, H.-J. Werner, 1991, M. Deegan, P.J. Knowles, 1992


 Convergence thresholds:  THRVAR = 1.00D-08  THRDEN = 1.00D-06

 CCSD(T)     terms to be evaluated (factor= 1.000)


 Number of closed-shell orbitals:  11 (   6   2   3   0 )
 Number of active  orbitals:        1 (   0   0   0   1 )
 Number of external orbitals:     443 ( 180 107 106  50 )

 Memory could be reduced to 445.68 Mwords without degradation in triples

 Number of N-1 electron functions:              23
 Number of N-2 electron functions:             253
 Number of singly external CSFs:              3275
 Number of doubly external CSFs:           9817564
 Total number of CSFs:                     9820839

 Molecular orbitals read from record     2100.2  Type=RHF/CANONICAL (state 1.4)

 Integral transformation finished. Total CPU:  16.15 sec, npass=  1  Memory used:  43.25 MW

 Starting RMP2 calculation

 Wavefunction is spin-projected

 ITER.      SQ.NORM     CORR.ENERGY   TOTAL ENERGY   ENERGY CHANGE        DEN1      VAR(S)    VAR(P)  DIIS     TIME
   1      1.28661730    -0.97660320  -120.58641913    -0.97660320    -0.00394445  0.57D-05  0.24D-02  1  1    18.31
   2      1.29258356    -0.98090289  -120.59071882    -0.00429969    -0.00001749  0.22D-07  0.14D-04  2  2    20.07
   3      1.29299598    -0.98108643  -120.59090236    -0.00018354    -0.00000005  0.69D-10  0.44D-07  3  3    22.32
   4      1.29300540    -0.98108842  -120.59090435    -0.00000199    -0.00000000  0.15D-11  0.25D-09  4  4    24.83
   5      1.29300550    -0.98108844  -120.59090437    -0.00000002    -0.00000000  0.39D-13  0.13D-11  5  5    27.32

 Norm of t1 vector:      0.02753989      S-energy:    -0.00256681      T1 diagnostic:  0.00004896
 Norm of t2 vector:      0.54059879      P-energy:    -0.97852163
                                         Alpha-Beta:  -0.69394620
                                         Alpha-Alpha: -0.15427000
                                         Beta-Beta:   -0.13030543

 Spin contamination <S**2-Sz**2-Sz>     0.00000000
  Reference energy                   -119.609815929871
  RHF-RMP2 correlation energy          -0.981088437310
 !RHF-RMP2 energy                    -120.590904367181
 (NB above energy spin projected)

 Starting RCCSD calculation

 ITER.      SQ.NORM     CORR.ENERGY   TOTAL ENERGY   ENERGY CHANGE        DEN1      VAR(S)    VAR(P)  DIIS     TIME
   1      1.22102160    -0.87521027  -120.48502620    -0.87521027    -0.04817744  0.18D-01  0.11D-01  1  1    42.01
   2      1.25180771    -0.91073908  -120.52055501    -0.03552881    -0.00519215  0.83D-03  0.22D-02  2  2    56.45
   3      1.27052616    -0.91340157  -120.52321750    -0.00266249    -0.00138060  0.11D-02  0.31D-03  3  3    70.62
   4      1.28686600    -0.91690120  -120.52671713    -0.00349963    -0.00031516  0.24D-03  0.77D-04  4  4    85.95
   5      1.30050715    -0.91889907  -120.52871500    -0.00199787    -0.00007680  0.76D-04  0.14D-04  5  5   100.44
   6      1.30661862    -0.91927090  -120.52908682    -0.00037182    -0.00002908  0.31D-04  0.49D-05  6  6   114.75
   7      1.31090424    -0.91945102  -120.52926695    -0.00018013    -0.00001027  0.11D-04  0.18D-05  7  7   129.67
   8      1.31370698    -0.91954804  -120.52936397    -0.00009702    -0.00000287  0.22D-05  0.77D-06  8  8   144.12
   9      1.31469092    -0.91956470  -120.52938063    -0.00001666    -0.00000070  0.53D-06  0.22D-06  9  9   159.70
  10      1.31504343    -0.91956463  -120.52938056     0.00000007    -0.00000016  0.11D-06  0.54D-07 10 10   175.44
  11      1.31511861    -0.91956812  -120.52938405    -0.00000348    -0.00000005  0.34D-07  0.16D-07 11 11   192.43
  12      1.31515849    -0.91956793  -120.52938386     0.00000019    -0.00000002  0.14D-07  0.39D-08 12 12   206.82
  13      1.31518171    -0.91956678  -120.52938271     0.00000115    -0.00000001  0.53D-08  0.11D-08 13 13   220.68
  14      1.31518857    -0.91956674  -120.52938267     0.00000004    -0.00000000  0.19D-08  0.44D-09 14 14   239.01

 Norm of t1 vector:      0.23540679      S-energy:    -0.00282940      T1 diagnostic:  0.03402315
                                                                       D1 diagnostic:  0.13272271
 Norm of t2 vector:      0.50967854      P-energy:    -0.91673734
                                         Alpha-Beta:  -0.68320959
                                         Alpha-Alpha: -0.12652104
                                         Beta-Beta:   -0.10700671

 Singles amplitudes (print threshold =  0.500E-01):

         I         SYM. A    A   T(IA) [Alpha-Alpha]

         4         1         1     -0.05419066
         6         1         1      0.06529503
         8         2         1      0.07225411
 
         I         SYM. A    A   T(IA) [Beta-Beta]

         6         1         1      0.08640627

 Doubles amplitudes (print threshold =  0.500E-01):

         I         J         SYM. A    SYM. B    A         B      T(IJ, AB) [Alpha-Beta]

         8         8         2         2         1         1     -0.12999448
lecules/tz/IrO/ecps/CRENBL/tz.basis"/>
   <p> ecp,O,2,1,0 </p>
   <p> 3 </p>
   <p> 1,  12.30997,  6.000000 </p>
   <p> 3,  14.76962,  73.85984 </p>
   <p> 2,  13.71419, -47.87600 </p>
   <p> 1 </p>
   <p> 2,  13.65512,  85.86406 </p>
   <include file="/global/u1/b/bkincaid/molpro/Ir/molecules/tz/IrO/ecps/CRENBL/O-aug-cc-CVTZ.basis"/>
   <p> } </p>
   <p> ne = 23 </p>
   <p> A1=6 </p>
   <p> B1=2 </p>
   <p> B2=3 </p>
   <p> A2=1 </p>
   <p> do i=4,4 </p>
   <p>         if(i.eq.1) then </p>
   <p>                 z(i) = 1.500 </p>
   <p>         else if(i.eq.2) then </p>
   <p>                 z(i) = 1.600 </p>
   <p>         else if(i.eq.3) then </p>
   <p>                 z(i) = 1.700 </p>
   <p>         else if(i.eq.4) then </p>
   <p>                 z(i) = 1.800 </p>
   <p>         else if(i.eq.5) then </p>
   <p>                 z(i) = 1.900 </p>
   <p>         endif </p>
   <p> geometry={ </p>
   <p> 2 </p>
   <p> IrO </p>
   <p> Ir 0.0 0.0 0.0 </p>
   <p> O 0.0 0.0 z(i) </p>
   <p> } </p>
   <p> {rhf,maxdis=25,iptyp='DIIS',nitord=30,maxit=60; shift,-1.0,-0.5 </p>
   <p> wf,nelec=ne,spin=1,sym=4 </p>
   <p> occ,A1,B1,B2,A2 </p>
   <p> closed,A1,B1,B2,A2-1 </p>
   <p> print,orbitals=2 </p>
   <p>         } </p>
   <p> scf(i)=energy </p>
   <p> {rccsd(t),shifts=0.2,shiftp=0.2,thrdis=1.0;diis,1,1,15,1;maxit,100;core} </p>
   <p> ccsd(i)=energy </p>
   <p> enddo </p>
   <p> table,z,scf,ccsd </p>
   <p> save </p>
   <p> type,csv </p>
  </input>
  <!--
