/global/cscratch1/sd/bkincaid/cutoffs/W/250-610/runs/scf_330

     Program PWSCF v.6.4.1 starts on 17Jan2022 at 19:46:45 

     This program is part of the open-source Quantum ESPRESSO suite
     for quantum simulation of materials; please cite
         "P. Giannozzi et al., J. Phys.:Condens. Matter 21 395502 (2009);
         "P. Giannozzi et al., J. Phys.:Condens. Matter 29 465901 (2017);
          URL http://www.quantum-espresso.org", 
     in publications or presentations arising from this work. More details at
     http://www.quantum-espresso.org/quote

     Parallel version (MPI & OpenMP), running on      32 processor cores
     Number of MPI processes:                32
     Threads/MPI process:                     1

     MPI processes distributed on     1 nodes
     R & G space division:  proc/nbgrp/npool/nimage =      32
     Reading input from scf_330.in

     Current dimensions of program PWSCF are:
     Max number of different atomic species (ntypx) = 10
     Max number of k-points (npk) =  40000
     Max angular momentum in pseudopotentials (lmaxx) =  3

     IMPORTANT: XC functional enforced from input :
     Exchange-correlation      = PBE ( 1  4  3  4 0 0)
     Any further DFT definition will be discarded
     Please, verify this is what you really want


     gamma-point specific algorithms are used

     Subspace diagonalization in iterative solution of the eigenvalue problem:
     one sub-group per band group will be used
     scalapack distributed-memory algorithm (size of sub-group:  4*  4 procs)

     Message from routine setup:
     DEPRECATED: symmetry with ibrav=0, use correct ibrav instead
 
     Parallelization info
     --------------------
     sticks:   dense  smooth     PW     G-vecs:    dense   smooth      PW
     Min        1687    1687    421               295112   295112   36898
     Max        1690    1690    424               295122   295122   36908
     Sum       54029   54029  13517              9443803  9443803 1180863
 


     bravais-lattice index     =            0
     lattice parameter (alat)  =      22.6767  a.u.
     unit-cell volume          =   11661.1222 (a.u.)^3
     number of atoms/cell      =            1
     number of atomic types    =            1
     number of electrons       =        14.00 (up:   9.00, down:   5.00)
     number of Kohn-Sham states=           12
     kinetic-energy cutoff     =     330.0000  Ry
     charge density cutoff     =    1320.0000  Ry
     convergence threshold     =      1.0E-06
     mixing beta               =       0.7000
     number of iterations used =            8  plain     mixing
     Exchange-correlation      = PBE ( 1  4  3  4 0 0)

     celldm(1)=  22.676714  celldm(2)=   0.000000  celldm(3)=   0.000000
     celldm(4)=   0.000000  celldm(5)=   0.000000  celldm(6)=   0.000000

     crystal axes: (cart. coord. in units of alat)
               a(1) = (   1.000000   0.000000   0.000000 )  
               a(2) = (   0.000000   1.000000   0.000000 )  
               a(3) = (   0.000000   0.000000   1.000000 )  

     reciprocal axes: (cart. coord. in units 2 pi/alat)
               b(1) = (  1.000000  0.000000  0.000000 )  
               b(2) = (  0.000000  1.000000  0.000000 )  
               b(3) = (  0.000000  0.000000  1.000000 )  


     PseudoPot. # 1 for W  read from file:
     ./W.upf
     MD5 check sum: 4ed05a8c0c5f577ff01fd4795b4ecf91
     Pseudo is Norm-conserving, Zval = 14.0
     Generated by new atomic code, or converted to UPF format
     Using radial grid of 1187 points,  3 beta functions with: 
                l(1) =   0
                l(2) =   2
                l(3) =   3

     atomic species   valence    mass     pseudopotential
        W             14.00   183.85000     W ( 1.00)

     Starting magnetic structure 
     atomic species   magnetization
        W            0.500

     48 Sym. Ops., with inversion, found


                                    s                        frac. trans.

      isym =  1     identity                                     

 cryst.   s( 1) = (     1          0          0      )
                  (     0          1          0      )
                  (     0          0          1      )

 cart.    s( 1) = (  1.0000000  0.0000000  0.0000000 )
                  (  0.0000000  1.0000000  0.0000000 )
                  (  0.0000000  0.0000000  1.0000000 )


      isym =  2     180 deg rotation - cart. axis [0,0,1]        

 cryst.   s( 2) = (    -1          0          0      )
                  (     0         -1          0      )
                  (     0          0          1      )

 cart.    s( 2) = ( -1.0000000  0.0000000  0.0000000 )
                  (  0.0000000 -1.0000000  0.0000000 )
                  (  0.0000000  0.0000000  1.0000000 )


      isym =  3     180 deg rotation - cart. axis [0,1,0]        

 cryst.   s( 3) = (    -1          0          0      )
                  (     0          1          0      )
                  (     0          0         -1      )

 cart.    s( 3) = ( -1.0000000  0.0000000  0.0000000 )
                  (  0.0000000  1.0000000  0.0000000 )
                  (  0.0000000  0.0000000 -1.0000000 )


      isym =  4     180 deg rotation - cart. axis [1,0,0]        

 cryst.   s( 4) = (     1          0          0      )
                  (     0         -1          0      )
                  (     0          0         -1      )

 cart.    s( 4) = (  1.0000000  0.0000000  0.0000000 )
                  (  0.0000000 -1.0000000  0.0000000 )
                  (  0.0000000  0.0000000 -1.0000000 )


      isym =  5     180 deg rotation - cart. axis [1,1,0]        

 cryst.   s( 5) = (     0          1          0      )
                  (     1          0          0      )
                  (     0          0         -1      )

 cart.    s( 5) = (  0.0000000  1.0000000  0.0000000 )
                  (  1.0000000  0.0000000  0.0000000 )
                  (  0.0000000  0.0000000 -1.0000000 )


      isym =  6     180 deg rotation - cart. axis [1,-1,0]       

 cryst.   s( 6) = (     0         -1          0      )
                  (    -1          0          0      )
                  (     0          0         -1      )

 cart.    s( 6) = (  0.0000000 -1.0000000  0.0000000 )
                  ( -1.0000000  0.0000000  0.0000000 )
                  (  0.0000000  0.0000000 -1.0000000 )


      isym =  7      90 deg rotation - cart. axis [0,0,-1]       

 cryst.   s( 7) = (     0         -1          0      )
                  (     1          0          0      )
                  (     0          0          1      )

 cart.    s( 7) = (  0.0000000  1.0000000  0.0000000 )
                  ( -1.0000000  0.0000000  0.0000000 )
                  (  0.0000000  0.0000000  1.0000000 )


      isym =  8      90 deg rotation - cart. axis [0,0,1]        

 cryst.   s( 8) = (     0          1          0      )
                  (    -1          0          0      )
                  (     0          0          1      )

 cart.    s( 8) = (  0.0000000 -1.0000000  0.0000000 )
                  (  1.0000000  0.0000000  0.0000000 )
                  (  0.0000000  0.0000000  1.0000000 )


      isym =  9     180 deg rotation - cart. axis [1,0,1]        

 cryst.   s( 9) = (     0          0          1      )
                  (     0         -1          0      )
                  (     1          0          0      )

 cart.    s( 9) = (  0.0000000  0.0000000  1.0000000 )
                  (  0.0000000 -1.0000000  0.0000000 )
                  (  1.0000000  0.0000000  0.0000000 )


      isym = 10     180 deg rotation - cart. axis [-1,0,1]       

 cryst.   s(10) = (     0          0         -1      )
                  (     0         -1          0      )
                  (    -1          0          0      )

 cart.    s(10) = (  0.0000000  0.0000000 -1.0000000 )
                  (  0.0000000 -1.0000000  0.0000000 )
                  ( -1.0000000  0.0000000  0.0000000 )


      isym = 11      90 deg rotation - cart. axis [0,1,0]        

 cryst.   s(11) = (     0          0         -1      )
                  (     0          1          0      )
                  (     1          0          0      )

 cart.    s(11) = (  0.0000000  0.0000000  1.0000000 )
                  (  0.0000000  1.0000000  0.0000000 )
                  ( -1.0000000  0.0000000  0.0000000 )


      isym = 12      90 deg rotation - cart. axis [0,-1,0]       

 cryst.   s(12) = (     0          0          1      )
                  (     0          1          0      )
                  (    -1          0          0      )

 cart.    s(12) = (  0.0000000  0.0000000 -1.0000000 )
                  (  0.0000000  1.0000000  0.0000000 )
                  (  1.0000000  0.0000000  0.0000000 )


      isym = 13     180 deg rotation - cart. axis [0,1,1]        

 cryst.   s(13) = (    -1          0          0      )
                  (     0          0          1      )
                  (     0          1          0      )

 cart.    s(13) = ( -1.0000000  0.0000000  0.0000000 )
                  (  0.0000000  0.0000000  1.0000000 )
                  (  0.0000000  1.0000000  0.0000000 )


      isym = 14     180 deg rotation - cart. axis [0,1,-1]       

 cryst.   s(14) = (    -1          0          0      )
                  (     0          0         -1      )
                  (     0         -1          0      )

 cart.    s(14) = ( -1.0000000  0.0000000  0.0000000 )
                  (  0.0000000  0.0000000 -1.0000000 )
                  (  0.0000000 -1.0000000  0.0000000 )


      isym = 15      90 deg rotation - cart. axis [-1,0,0]       

 cryst.   s(15) = (     1          0          0      )
                  (     0          0         -1      )
                  (     0          1          0      )

 cart.    s(15) = (  1.0000000  0.0000000  0.0000000 )
                  (  0.0000000  0.0000000  1.0000000 )
                  (  0.0000000 -1.0000000  0.0000000 )


      isym = 16      90 deg rotation - cart. axis [1,0,0]        

 cryst.   s(16) = (     1          0          0      )
                  (     0          0          1      )
                  (     0         -1          0      )

 cart.    s(16) = (  1.0000000  0.0000000  0.0000000 )
                  (  0.0000000  0.0000000 -1.0000000 )
                  (  0.0000000  1.0000000  0.0000000 )


      isym = 17     120 deg rotation - cart. axis [-1,-1,-1]     

 cryst.   s(17) = (     0          0          1      )
                  (     1          0          0      )
                  (     0          1          0      )

 cart.    s(17) = (  0.0000000  1.0000000  0.0000000 )
                  (  0.0000000  0.0000000  1.0000000 )
                  (  1.0000000  0.0000000  0.0000000 )


      isym = 18     120 deg rotation - cart. axis [-1,1,1]       

 cryst.   s(18) = (     0          0         -1      )
                  (    -1          0          0      )
                  (     0          1          0      )

 cart.    s(18) = (  0.0000000 -1.0000000  0.0000000 )
                  (  0.0000000  0.0000000  1.0000000 )
                  ( -1.0000000  0.0000000  0.0000000 )


      isym = 19     120 deg rotation - cart. axis [1,1,-1]       

 cryst.   s(19) = (     0          0         -1      )
                  (     1          0          0      )
                  (     0         -1          0      )

 cart.    s(19) = (  0.0000000  1.0000000  0.0000000 )
                  (  0.0000000  0.0000000 -1.0000000 )
                  ( -1.0000000  0.0000000  0.0000000 )


      isym = 20     120 deg rotation - cart. axis [1,-1,1]       

 cryst.   s(20) = (     0          0          1      )
                  (    -1          0          0      )
                  (     0         -1          0      )

 cart.    s(20) = (  0.0000000 -1.0000000  0.0000000 )
                  (  0.0000000  0.0000000 -1.0000000 )
                  (  1.0000000  0.0000000  0.0000000 )


      isym = 21     120 deg rotation - cart. axis [1,1,1]        

 cryst.   s(21) = (     0          1          0      )
                  (     0          0          1      )
                  (     1          0          0      )

 cart.    s(21) = (  0.0000000  0.0000000  1.0000000 )
                  (  1.0000000  0.0000000  0.0000000 )
                  (  0.0000000  1.0000000  0.0000000 )


      isym = 22     120 deg rotation - cart. axis [-1,1,-1]      

 cryst.   s(22) = (     0         -1          0      )
                  (     0          0         -1      )
                  (     1          0          0      )

 cart.    s(22) = (  0.0000000  0.0000000  1.0000000 )
                  ( -1.0000000  0.0000000  0.0000000 )
                  (  0.0000000 -1.0000000  0.0000000 )


      isym = 23     120 deg rotation - cart. axis [1,-1,-1]      

 cryst.   s(23) = (     0         -1          0      )
                  (     0          0          1      )
                  (    -1          0          0      )

 cart.    s(23) = (  0.0000000  0.0000000 -1.0000000 )
                  ( -1.0000000  0.0000000  0.0000000 )
                  (  0.0000000  1.0000000  0.0000000 )


      isym = 24     120 deg rotation - cart. axis [-1,-1,1]      

 cryst.   s(24) = (     0          1          0      )
                  (     0          0         -1      )
                  (    -1          0          0      )

 cart.    s(24) = (  0.0000000  0.0000000 -1.0000000 )
                  (  1.0000000  0.0000000  0.0000000 )
                  (  0.0000000 -1.0000000  0.0000000 )


      isym = 25     inversion                                    

 cryst.   s(25) = (    -1          0          0      )
                  (     0         -1          0      )
                  (     0          0         -1      )

 cart.    s(25) = ( -1.0000000  0.0000000  0.0000000 )
                  (  0.0000000 -1.0000000  0.0000000 )
                  (  0.0000000  0.0000000 -1.0000000 )


      isym = 26     inv. 180 deg rotation - cart. axis [0,0,1]   

 cryst.   s(26) = (     1          0          0      )
                  (     0          1          0      )
                  (     0          0         -1      )

 cart.    s(26) = (  1.0000000  0.0000000  0.0000000 )
                  (  0.0000000  1.0000000  0.0000000 )
                  (  0.0000000  0.0000000 -1.0000000 )


      isym = 27     inv. 180 deg rotation - cart. axis [0,1,0]   

 cryst.   s(27) = (     1          0          0      )
                  (     0         -1          0      )
                  (     0          0          1      )

 cart.    s(27) = (  1.0000000  0.0000000  0.0000000 )
                  (  0.0000000 -1.0000000  0.0000000 )
                  (  0.0000000  0.0000000  1.0000000 )


      isym = 28     inv. 180 deg rotation - cart. axis [1,0,0]   

 cryst.   s(28) = (    -1          0          0      )
                  (     0          1          0      )
                  (     0          0          1      )

 cart.    s(28) = ( -1.0000000  0.0000000  0.0000000 )
                  (  0.0000000  1.0000000  0.0000000 )
                  (  0.0000000  0.0000000  1.0000000 )


      isym = 29     inv. 180 deg rotation - cart. axis [1,1,0]   

 cryst.   s(29) = (     0         -1          0      )
                  (    -1          0          0      )
                  (     0          0          1      )

 cart.    s(29) = (  0.0000000 -1.0000000  0.0000000 )
                  ( -1.0000000  0.0000000  0.0000000 )
                  (  0.0000000  0.0000000  1.0000000 )


      isym = 30     inv. 180 deg rotation - cart. axis [1,-1,0]  

 cryst.   s(30) = (     0          1          0      )
                  (     1          0          0      )
                  (     0          0          1      )

 cart.    s(30) = (  0.0000000  1.0000000  0.0000000 )
                  (  1.0000000  0.0000000  0.0000000 )
                  (  0.0000000  0.0000000  1.0000000 )


      isym = 31     inv.  90 deg rotation - cart. axis [0,0,-1]  

 cryst.   s(31) = (     0          1          0      )
                  (    -1          0          0      )
                  (     0          0         -1      )

 cart.    s(31) = (  0.0000000 -1.0000000  0.0000000 )
                  (  1.0000000  0.0000000  0.0000000 )
                  (  0.0000000  0.0000000 -1.0000000 )


      isym = 32     inv.  90 deg rotation - cart. axis [0,0,1]   

 cryst.   s(32) = (     0         -1          0      )
                  (     1          0          0      )
                  (     0          0         -1      )

 cart.    s(32) = (  0.0000000  1.0000000  0.0000000 )
                  ( -1.0000000  0.0000000  0.0000000 )
                  (  0.0000000  0.0000000 -1.0000000 )


      isym = 33     inv. 180 deg rotation - cart. axis [1,0,1]   

 cryst.   s(33) = (     0          0         -1      )
                  (     0          1          0      )
                  (    -1          0          0      )

 cart.    s(33) = (  0.0000000  0.0000000 -1.0000000 )
                  (  0.0000000  1.0000000  0.0000000 )
                  ( -1.0000000  0.0000000  0.0000000 )


      isym = 34     inv. 180 deg rotation - cart. axis [-1,0,1]  

 cryst.   s(34) = (     0          0          1      )
                  (     0          1          0      )
                  (     1          0          0      )

 cart.    s(34) = (  0.0000000  0.0000000  1.0000000 )
                  (  0.0000000  1.0000000  0.0000000 )
                  (  1.0000000  0.0000000  0.0000000 )


      isym = 35     inv.  90 deg rotation - cart. axis [0,1,0]   

 cryst.   s(35) = (     0          0          1      )
                  (     0         -1          0      )
                  (    -1          0          0      )

 cart.    s(35) = (  0.0000000  0.0000000 -1.0000000 )
                  (  0.0000000 -1.0000000  0.0000000 )
                  (  1.0000000  0.0000000  0.0000000 )


      isym = 36     inv.  90 deg rotation - cart. axis [0,-1,0]  

 cryst.   s(36) = (     0          0         -1      )
                  (     0         -1          0      )
                  (     1          0          0      )

 cart.    s(36) = (  0.0000000  0.0000000  1.0000000 )
                  (  0.0000000 -1.0000000  0.0000000 )
                  ( -1.0000000  0.0000000  0.0000000 )


      isym = 37     inv. 180 deg rotation - cart. axis [0,1,1]   

 cryst.   s(37) = (     1          0          0      )
                  (     0          0         -1      )
                  (     0         -1          0      )

 cart.    s(37) = (  1.0000000  0.0000000  0.0000000 )
                  (  0.0000000  0.0000000 -1.0000000 )
                  (  0.0000000 -1.0000000  0.0000000 )


      isym = 38     inv. 180 deg rotation - cart. axis [0,1,-1]  

 cryst.   s(38) = (     1          0          0      )
                  (     0          0          1      )
                  (     0          1          0      )

 cart.    s(38) = (  1.0000000  0.0000000  0.0000000 )
                  (  0.0000000  0.0000000  1.0000000 )
                  (  0.0000000  1.0000000  0.0000000 )


      isym = 39     inv.  90 deg rotation - cart. axis [-1,0,0]  

 cryst.   s(39) = (    -1          0          0      )
                  (     0          0          1      )
                  (     0         -1          0      )

 cart.    s(39) = ( -1.0000000  0.0000000  0.0000000 )
                  (  0.0000000  0.0000000 -1.0000000 )
                  (  0.0000000  1.0000000  0.0000000 )


      isym = 40     inv.  90 deg rotation - cart. axis [1,0,0]   

 cryst.   s(40) = (    -1          0          0      )
                  (     0          0         -1      )
                  (     0          1          0      )

 cart.    s(40) = ( -1.0000000  0.0000000  0.0000000 )
                  (  0.0000000  0.0000000  1.0000000 )
                  (  0.0000000 -1.0000000  0.0000000 )


      isym = 41     inv. 120 deg rotation - cart. axis [-1,-1,-1]

 cryst.   s(41) = (     0          0         -1      )
                  (    -1          0          0      )
                  (     0         -1          0      )

 cart.    s(41) = (  0.0000000 -1.0000000  0.0000000 )
                  (  0.0000000  0.0000000 -1.0000000 )
                  ( -1.0000000  0.0000000  0.0000000 )


      isym = 42     inv. 120 deg rotation - cart. axis [-1,1,1]  

 cryst.   s(42) = (     0          0          1      )
                  (     1          0          0      )
                  (     0         -1          0      )

 cart.    s(42) = (  0.0000000  1.0000000  0.0000000 )
                  (  0.0000000  0.0000000 -1.0000000 )
                  (  1.0000000  0.0000000  0.0000000 )


      isym = 43     inv. 120 deg rotation - cart. axis [1,1,-1]  

 cryst.   s(43) = (     0          0          1      )
                  (    -1          0          0      )
                  (     0          1          0      )

 cart.    s(43) = (  0.0000000 -1.0000000  0.0000000 )
                  (  0.0000000  0.0000000  1.0000000 )
                  (  1.0000000  0.0000000  0.0000000 )


      isym = 44     inv. 120 deg rotation - cart. axis [1,-1,1]  

 cryst.   s(44) = (     0          0         -1      )
                  (     1          0          0      )
                  (     0          1          0      )

 cart.    s(44) = (  0.0000000  1.0000000  0.0000000 )
                  (  0.0000000  0.0000000  1.0000000 )
                  ( -1.0000000  0.0000000  0.0000000 )


      isym = 45     inv. 120 deg rotation - cart. axis [1,1,1]   

 cryst.   s(45) = (     0         -1          0      )
                  (     0          0         -1      )
                  (    -1          0          0      )

 cart.    s(45) = (  0.0000000  0.0000000 -1.0000000 )
                  ( -1.0000000  0.0000000  0.0000000 )
                  (  0.0000000 -1.0000000  0.0000000 )


      isym = 46     inv. 120 deg rotation - cart. axis [-1,1,-1] 

 cryst.   s(46) = (     0          1          0      )
                  (     0          0          1      )
                  (    -1          0          0      )

 cart.    s(46) = (  0.0000000  0.0000000 -1.0000000 )
                  (  1.0000000  0.0000000  0.0000000 )
                  (  0.0000000  1.0000000  0.0000000 )


      isym = 47     inv. 120 deg rotation - cart. axis [1,-1,-1] 

 cryst.   s(47) = (     0          1          0      )
                  (     0          0         -1      )
                  (     1          0          0      )

 cart.    s(47) = (  0.0000000  0.0000000  1.0000000 )
                  (  1.0000000  0.0000000  0.0000000 )
                  (  0.0000000 -1.0000000  0.0000000 )


      isym = 48     inv. 120 deg rotation - cart. axis [-1,-1,1] 

 cryst.   s(48) = (     0         -1          0      )
                  (     0          0          1      )
                  (     1          0          0      )

 cart.    s(48) = (  0.0000000  0.0000000  1.0000000 )
                  ( -1.0000000  0.0000000  0.0000000 )
                  (  0.0000000  1.0000000  0.0000000 )


   Cartesian axes

     site n.     atom                  positions (alat units)
         1           W   tau(   1) = (   0.5000000   0.5000000   0.5000000  )

   Crystallographic axes

     site n.     atom                  positions (cryst. coord.)
         1           W   tau(   1) = (  0.5000000  0.5000000  0.5000000  )

     number of k points=     1
                       cart. coord. in units 2pi/alat
        k(    1) = (   0.0000000   0.0000000   0.0000000), wk =   1.0000000

                       cryst. coord.
        k(    1) = (   0.0000000   0.0000000   0.0000000), wk =   1.0000000

     Dense  grid:  4721902 G-vectors     FFT dimensions: ( 270, 270, 270)

     Dynamical RAM for                 wfc:       3.38 MB

     Dynamical RAM for     wfc (w. buffer):      10.13 MB

     Dynamical RAM for           str. fact:       2.25 MB

     Dynamical RAM for           local pot:       0.00 MB

     Dynamical RAM for          nlocal pot:       3.66 MB

     Dynamical RAM for                qrad:       4.20 MB

     Dynamical RAM for          rho,v,vnew:      43.54 MB

     Dynamical RAM for               rhoin:      14.51 MB

     Dynamical RAM for            rho*nmix:      72.05 MB

     Dynamical RAM for           G-vectors:       9.57 MB

     Dynamical RAM for          h,s,v(r/c):       0.00 MB

     Dynamical RAM for          <psi|beta>:       0.00 MB

     Dynamical RAM for                 psi:      13.51 MB

     Dynamical RAM for                hpsi:      13.51 MB

     Dynamical RAM for      wfcinit/wfcrot:       9.01 MB

     Estimated static dynamical RAM per process >     194.46 MB

     Estimated max dynamical RAM per process >     221.48 MB

     Estimated total dynamical RAM >       6.92 GB
     Generating pointlists ...
     new r_m :   0.4125 (alat units)  9.3541 (a.u.) for type    1

     Initial potential from superposition of free atoms

     starting charge   11.30112, renormalised to   14.00000

     negative rho (up, down):  4.847E-03 0.000E+00
     Starting wfcs are   16 randomized atomic wfcs

     total cpu time spent up to now is        7.4 secs

     Self-consistent Calculation

     iteration #  1     ecut=   330.00 Ry     beta= 0.70
     Davidson diagonalization with overlap
     ethr =  1.00E-02,  avg # of iterations = 17.0

     negative rho (up, down):  8.393E-07 1.668E-02

     total cpu time spent up to now is       19.8 secs

     total energy              =    -127.52609286 Ry
     Harris-Foulkes estimate   =    -137.37791254 Ry
     estimated scf accuracy    <      12.75646929 Ry

     total magnetization       =     4.00 Bohr mag/cell
     absolute magnetization    =     4.02 Bohr mag/cell

     iteration #  2     ecut=   330.00 Ry     beta= 0.70
     Davidson diagonalization with overlap
     ethr =  1.00E-02,  avg # of iterations =  7.5

     negative rho (up, down):  4.884E-07 1.626E-02

     total cpu time spent up to now is       28.7 secs

     total energy              =    -134.72906694 Ry
     Harris-Foulkes estimate   =    -138.96249445 Ry
     estimated scf accuracy    <       7.33046638 Ry

     total magnetization       =     4.00 Bohr mag/cell
     absolute magnetization    =     4.00 Bohr mag/cell

     iteration #  3     ecut=   330.00 Ry     beta= 0.70
     Davidson diagonalization with overlap
     ethr =  1.00E-02,  avg # of iterations =  2.5

     negative rho (up, down):  4.341E-07 1.628E-02

     total cpu time spent up to now is       34.5 secs

     total energy              =    -134.93731541 Ry
     Harris-Foulkes estimate   =    -135.15437962 Ry
     estimated scf accuracy    <       1.44570692 Ry

     total magnetization       =     4.00 Bohr mag/cell
     absolute magnetization    =     4.04 Bohr mag/cell

     iteration #  4     ecut=   330.00 Ry     beta= 0.70
     Davidson diagonalization with overlap
     ethr =  1.00E-02,  avg # of iterations =  1.0

     negative rho (up, down):  4.579E-07 1.607E-02

     total cpu time spent up to now is       39.5 secs

     total energy              =    -135.20292555 Ry
     Harris-Foulkes estimate   =    -134.96551958 Ry
     estimated scf accuracy    <       0.76245295 Ry

     total magnetization       =     4.00 Bohr mag/cell
     absolute magnetization    =     4.21 Bohr mag/cell

     iteration #  5     ecut=   330.00 Ry     beta= 0.70
     Davidson diagonalization with overlap
     ethr =  5.45E-03,  avg # of iterations =  1.0

     negative rho (up, down):  4.143E-07 1.598E-02

     total cpu time spent up to now is       44.6 secs

     total energy              =    -135.34225102 Ry
     Harris-Foulkes estimate   =    -135.27228038 Ry
     estimated scf accuracy    <       1.57617797 Ry

     total magnetization       =     4.00 Bohr mag/cell
     absolute magnetization    =     4.10 Bohr mag/cell

     iteration #  6     ecut=   330.00 Ry     beta= 0.70
     Davidson diagonalization with overlap
     ethr =  5.45E-03,  avg # of iterations =  1.0

     negative rho (up, down):  3.915E-07 1.600E-02

     total cpu time spent up to now is       49.8 secs

     total energy              =    -135.31955336 Ry
     Harris-Foulkes estimate   =    -135.39572386 Ry
     estimated scf accuracy    <       1.89171979 Ry

     total magnetization       =     4.00 Bohr mag/cell
     absolute magnetization    =     4.01 Bohr mag/cell

     iteration #  7     ecut=   330.00 Ry     beta= 0.70
     Davidson diagonalization with overlap
     ethr =  5.45E-03,  avg # of iterations =  1.0

     negative rho (up, down):  2.000E-02 2.604E-02

     total cpu time spent up to now is       55.0 secs

     total energy              =    -134.37400169 Ry
     Harris-Foulkes estimate   =    -135.32498891 Ry
     estimated scf accuracy    <       1.81586184 Ry

     total magnetization       =     4.00 Bohr mag/cell
     absolute magnetization    =     4.01 Bohr mag/cell

     iteration #  8     ecut=   330.00 Ry     beta= 0.70
     Davidson diagonalization with overlap
     ethr =  5.45E-03,  avg # of iterations =  2.0

     negative rho (up, down):  2.383E-02 2.437E-02

     total cpu time spent up to now is       60.5 secs

     total energy              =    -134.53187060 Ry
     Harris-Foulkes estimate   =    -134.52985789 Ry
     estimated scf accuracy    <       0.48215974 Ry

     total magnetization       =     4.00 Bohr mag/cell
     absolute magnetization    =     4.24 Bohr mag/cell

     iteration #  9     ecut=   330.00 Ry     beta= 0.70
     Davidson diagonalization with overlap
     ethr =  3.44E-03,  avg # of iterations =  1.0

     negative rho (up, down):  1.735E-02 2.001E-02

     total cpu time spent up to now is       65.7 secs

     total energy              =    -134.55303961 Ry
     Harris-Foulkes estimate   =    -134.53714260 Ry
     estimated scf accuracy    <       0.54587972 Ry

     total magnetization       =     4.00 Bohr mag/cell
     absolute magnetization    =     4.33 Bohr mag/cell

     iteration # 10     ecut=   330.00 Ry     beta= 0.70
     Davidson diagonalization with overlap
     ethr =  3.44E-03,  avg # of iterations =  1.0

     negative rho (up, down):  3.940E-05 2.276E-02

     total cpu time spent up to now is       70.9 secs

     total energy              =    -134.58992325 Ry
     Harris-Foulkes estimate   =    -134.55675912 Ry
     estimated scf accuracy    <       0.55788481 Ry

     total magnetization       =     4.00 Bohr mag/cell
     absolute magnetization    =     4.40 Bohr mag/cell

     iteration # 11     ecut=   330.00 Ry     beta= 0.70
     Davidson diagonalization with overlap
     ethr =  3.44E-03,  avg # of iterations =  1.0

     negative rho (up, down):  4.061E-04 2.166E-02

     total cpu time spent up to now is       76.1 secs

     total energy              =    -134.60446369 Ry
     Harris-Foulkes estimate   =    -134.60719444 Ry
     estimated scf accuracy    <       0.28931861 Ry

     total magnetization       =     4.00 Bohr mag/cell
     absolute magnetization    =     4.24 Bohr mag/cell

     iteration # 12     ecut=   330.00 Ry     beta= 0.70
     Davidson diagonalization with overlap
     ethr =  2.07E-03,  avg # of iterations =  1.0

     negative rho (up, down):  1.950E-08 2.335E-03

     total cpu time spent up to now is       81.3 secs

     total energy              =    -134.65798748 Ry
     Harris-Foulkes estimate   =    -134.60637316 Ry
     estimated scf accuracy    <       0.32806648 Ry

     total magnetization       =     4.00 Bohr mag/cell
     absolute magnetization    =     4.29 Bohr mag/cell

     iteration # 13     ecut=   330.00 Ry     beta= 0.70
     Davidson diagonalization with overlap
     ethr =  2.07E-03,  avg # of iterations =  1.5

     negative rho (up, down):  1.721E-05 1.706E-02

     total cpu time spent up to now is       86.7 secs

     total energy              =    -134.61954701 Ry
     Harris-Foulkes estimate   =    -134.68165312 Ry
     estimated scf accuracy    <       0.10447680 Ry

     total magnetization       =     4.00 Bohr mag/cell
     absolute magnetization    =     4.20 Bohr mag/cell

     iteration # 14     ecut=   330.00 Ry     beta= 0.70
     Davidson diagonalization with overlap
     ethr =  7.46E-04,  avg # of iterations =  3.0

     negative rho (up, down):  2.661E-06 3.609E-02

     total cpu time spent up to now is       92.8 secs

     total energy              =    -134.70499626 Ry
     Harris-Foulkes estimate   =    -134.71203413 Ry
     estimated scf accuracy    <       0.18833619 Ry

     total magnetization       =     4.00 Bohr mag/cell
     absolute magnetization    =     4.02 Bohr mag/cell

     iteration # 15     ecut=   330.00 Ry     beta= 0.70
     Davidson diagonalization with overlap
     ethr =  7.46E-04,  avg # of iterations =  2.0

     negative rho (up, down):  4.138E-08 3.012E-03

     total cpu time spent up to now is       98.2 secs

     total energy              =    -134.68540953 Ry
     Harris-Foulkes estimate   =    -134.71310347 Ry
     estimated scf accuracy    <       0.08921865 Ry

     total magnetization       =     4.00 Bohr mag/cell
     absolute magnetization    =     4.04 Bohr mag/cell

     iteration # 16     ecut=   330.00 Ry     beta= 0.70
     Davidson diagonalization with overlap
     ethr =  6.37E-04,  avg # of iterations =  1.0

     negative rho (up, down):  7.553E-08 1.369E-03

     total cpu time spent up to now is      103.3 secs

     total energy              =    -134.69057317 Ry
     Harris-Foulkes estimate   =    -134.69405677 Ry
     estimated scf accuracy    <       0.02463336 Ry

     total magnetization       =     4.00 Bohr mag/cell
     absolute magnetization    =     4.14 Bohr mag/cell

     iteration # 17     ecut=   330.00 Ry     beta= 0.70
     Davidson diagonalization with overlap
     ethr =  1.76E-04,  avg # of iterations =  1.0

     negative rho (up, down):  4.275E-09 2.564E-04

     total cpu time spent up to now is      108.5 secs

     total energy              =    -134.68826632 Ry
     Harris-Foulkes estimate   =    -134.69226485 Ry
     estimated scf accuracy    <       0.01163529 Ry

     total magnetization       =     4.00 Bohr mag/cell
     absolute magnetization    =     4.19 Bohr mag/cell

     iteration # 18     ecut=   330.00 Ry     beta= 0.70
     Davidson diagonalization with overlap
     ethr =  8.31E-05,  avg # of iterations =  3.5

     negative rho (up, down):  3.889E-04 5.763E-01

     total cpu time spent up to now is      115.2 secs

     total energy              =    -134.69566045 Ry
     Harris-Foulkes estimate   =    -134.69846170 Ry
     estimated scf accuracy    <       0.00594875 Ry

     total magnetization       =     4.00 Bohr mag/cell
     absolute magnetization    =     4.36 Bohr mag/cell

     iteration # 19     ecut=   330.00 Ry     beta= 0.70
     Davidson diagonalization with overlap
     ethr =  4.25E-05,  avg # of iterations =  7.5

     negative rho (up, down):  4.672E-05 5.254E-01

     total cpu time spent up to now is      121.7 secs

     total energy              =    -134.69729612 Ry
     Harris-Foulkes estimate   =    -134.69701875 Ry
     estimated scf accuracy    <       0.00037052 Ry

     total magnetization       =     4.00 Bohr mag/cell
     absolute magnetization    =     4.31 Bohr mag/cell

     iteration # 20     ecut=   330.00 Ry     beta= 0.70
     Davidson diagonalization with overlap
     ethr =  2.65E-06,  avg # of iterations =  4.5

     negative rho (up, down):  1.255E-05 4.397E-01

     total cpu time spent up to now is      128.8 secs

     total energy              =    -134.69756449 Ry
     Harris-Foulkes estimate   =    -134.69749142 Ry
     estimated scf accuracy    <       0.00005969 Ry

     total magnetization       =     4.00 Bohr mag/cell
     absolute magnetization    =     4.33 Bohr mag/cell

     iteration # 21     ecut=   330.00 Ry     beta= 0.70
     Davidson diagonalization with overlap
     ethr =  4.26E-07,  avg # of iterations =  2.5

     negative rho (up, down):  5.776E-14 2.220E-05

     total cpu time spent up to now is      134.4 secs

     total energy              =    -134.69764226 Ry
     Harris-Foulkes estimate   =    -134.69763969 Ry
     estimated scf accuracy    <       0.00004519 Ry

     total magnetization       =     4.00 Bohr mag/cell
     absolute magnetization    =     4.35 Bohr mag/cell

     iteration # 22     ecut=   330.00 Ry     beta= 0.70
     Davidson diagonalization with overlap
     ethr =  3.23E-07,  avg # of iterations =  2.0

     negative rho (up, down):  5.489E-14 2.215E-05

     total cpu time spent up to now is      139.9 secs

     total energy              =    -134.69765754 Ry
     Harris-Foulkes estimate   =    -134.69764866 Ry
     estimated scf accuracy    <       0.00000330 Ry

     total magnetization       =     4.00 Bohr mag/cell
     absolute magnetization    =     4.35 Bohr mag/cell

     iteration # 23     ecut=   330.00 Ry     beta= 0.70
     Davidson diagonalization with overlap
     ethr =  2.35E-08,  avg # of iterations =  4.0
 
     Magnetic moment per site:
     atom:    1    charge:   13.9994    magn:    4.0001    constr:    0.0000

     total cpu time spent up to now is      145.9 secs

     End of self-consistent calculation

 ------ SPIN UP ------------


          k = 0.0000 0.0000 0.0000 (590432 PWs)   bands (ev):

   -77.8198 -42.9092 -42.8797 -42.8782  -5.7634  -4.7961  -4.7950  -4.7760
    -4.7757  -3.9301  -1.2479  -1.2477

     occupation numbers 
     1.0000   1.0000   1.0000   1.0000   1.0000   1.0000   1.0000   1.0000
     1.0000   0.0000   0.0000   0.0000

 ------ SPIN DOWN ----------


          k = 0.0000 0.0000 0.0000 (590432 PWs)   bands (ev):

   -76.2722 -41.3630 -40.5193 -40.5171  -4.4854  -2.8923  -2.2488  -2.2487
    -1.7681  -1.7673  -0.8702  -0.2253

     occupation numbers 
     1.0000   1.0000   1.0000   1.0000   1.0000   0.0000   0.0000   0.0000
     0.0000   0.0000   0.0000   0.0000

     highest occupied, lowest unoccupied level (ev):    -4.4854   -3.9301

!    total energy              =    -134.69766702 Ry
     Harris-Foulkes estimate   =    -134.69766636 Ry
     estimated scf accuracy    <       0.00000099 Ry

     The total energy is the sum of the following terms:

     one-electron contribution =    -177.78070772 Ry
     hartree contribution      =      82.76789611 Ry
     xc contribution           =     -15.16144712 Ry
     ewald contribution        =     -24.52340829 Ry

     total magnetization       =     4.00 Bohr mag/cell
     absolute magnetization    =     4.36 Bohr mag/cell

     convergence has been achieved in  23 iterations

     Writing output data file pwscf.save/
 
     init_run     :      6.01s CPU      6.86s WALL (       1 calls)
     electrons    :    136.63s CPU    139.21s WALL (       1 calls)

     Called by init_run:
     wfcinit      :      1.45s CPU      1.85s WALL (       1 calls)
     wfcinit:atom :      0.02s CPU      0.03s WALL (       2 calls)
     wfcinit:wfcr :      1.39s CPU      1.77s WALL (       2 calls)
     potinit      :      1.64s CPU      1.74s WALL (       1 calls)
     hinit0       :      0.23s CPU      0.52s WALL (       1 calls)

     Called by electrons:
     c_bands      :     67.16s CPU     68.10s WALL (      23 calls)
     sum_band     :     21.77s CPU     21.83s WALL (      23 calls)
     v_of_rho     :     36.27s CPU     37.27s WALL (      24 calls)
     v_h          :      2.73s CPU      2.74s WALL (      24 calls)
     v_xc         :     33.54s CPU     34.53s WALL (      24 calls)
     mix_rho      :     11.67s CPU     11.82s WALL (      23 calls)

     Called by c_bands:
     init_us_2    :      0.68s CPU      0.69s WALL (      94 calls)
     regterg      :     65.98s CPU     66.88s WALL (      46 calls)

     Called by sum_band:

     Called by *egterg:
     h_psi        :     61.69s CPU     62.09s WALL (     187 calls)
     g_psi        :      0.19s CPU      0.19s WALL (     139 calls)
     rdiaghg      :      0.31s CPU      0.47s WALL (     185 calls)
     regterg:over :      1.27s CPU      1.27s WALL (     139 calls)
     regterg:upda :      2.15s CPU      2.17s WALL (     139 calls)
     regterg:last :      0.77s CPU      0.77s WALL (      53 calls)
     rdiaghg:chol :      0.14s CPU      0.21s WALL (     185 calls)
     rdiaghg:inve :      0.01s CPU      0.01s WALL (     185 calls)
     rdiaghg:para :      0.02s CPU      0.02s WALL (     370 calls)

     Called by h_psi:
     h_psi:pot    :     61.31s CPU     61.69s WALL (     187 calls)
     h_psi:calbec :      0.40s CPU      0.61s WALL (     187 calls)
     vloc_psi     :     60.41s CPU     60.59s WALL (     187 calls)
     add_vuspsi   :      0.49s CPU      0.50s WALL (     187 calls)

     General routines
     calbec       :      0.40s CPU      0.61s WALL (     187 calls)
     fft          :     30.61s CPU     31.13s WALL (     356 calls)
     ffts         :      3.01s CPU      3.02s WALL (      46 calls)
     fftw         :     60.28s CPU     60.46s WALL (    1878 calls)
 
     Parallel routines
     fft_scatt_xy :     22.91s CPU     22.96s WALL (    2280 calls)
     fft_scatt_yz :     28.58s CPU     28.87s WALL (    2280 calls)
 
     PWSCF        :   2m23.00s CPU   2m28.34s WALL

 
   This run was terminated on:  19:49:14  17Jan2022            

=------------------------------------------------------------------------------=
   JOB DONE.
=------------------------------------------------------------------------------=
