<?xml version="1.0"?>
<molpro xmlns="http://www.molpro.net/schema/molpro-output"
  xmlns:xsd="http://www.w3.org/1999/XMLSchema"
  xmlns:cml="http://www.xml-cml.org/schema"
  xmlns:stm="http://www.xml-cml.org/schema"
  xmlns:xhtml="http://www.w3.org/1999/xhtml">
 <!--

 Nodes     nprocs
 nid02018    15
 Number of processes for MPI-2 version of Molpro:   nprocs(total)=   16   nprocs(compute)=   15   nprocs(helper)=    1

 Using customized tuning parameters: mindgm=7; mindgv=16; mindgc=1; mindgr=1; noblas=0; minvec=7
 default implementation of scratch files=sf

 --><job>
  <!--

 Variables initialized (889), CPU time= 0.01 sec
 Commands  initialized (702), CPU time= 0.01 sec, 572 directives.
 Default parameters read. Elapsed time= 0.14 sec

 Checking input...
 Passed
1


                                         ***  PROGRAM SYSTEM MOLPRO  ***
                                       Copyright, TTI GmbH Stuttgart, 2015
                                    Version 2015.1 linked Dec 29 2018 15:55:43


 **********************************************************************************************************************************
 LABEL *   Ag
  64 bit mpp version                                                                     DATE: 23-Dec-21          TIME: 22:05:40
 **********************************************************************************************************************************

 SHA1:             19cd028119e0e09f93f0674bd8af7968d9b3eff6
 **********************************************************************************************************************************
  -->
  <!--

 THRESHOLDS:

 ZERO    =  1.00D-12  ONEINT  =  1.00D-12  TWOINT  =  1.00D-12  PREFAC  =  1.00D-14  LOCALI  =  1.00D-09  EORDER  =  1.00D-04
 ENERGY  =  0.00D+00  ETEST   =  0.00D+00  EDENS   =  0.00D+00  THRDEDEF=  1.00D-06  GRADIENT=  1.00D-02  STEP    =  1.00D-03
 ORBITAL =  1.00D-05  CIVEC   =  1.00D-05  COEFF   =  1.00D-04  PRINTCI =  5.00D-02  PUNCHCI =  9.90D+01  OPTGRAD =  3.00D-04
 OPTENERG=  1.00D-06  OPTSTEP =  3.00D-04  THRGRAD =  1.00D-10  COMPRESS=  1.00D-11  VARMIN  =  1.00D-07  VARMAX  =  1.00D-03
 THRDOUB =  0.00D+00  THRDIV  =  1.00D-05  THRRED  =  1.00D-07  THRPSP  =  1.00D+00  THRDC   =  1.00D-10  THRCS   =  1.00D-10
 THRNRM  =  1.00D-08  THREQ   =  0.00D+00  THRDE   =  1.00D+00  THRREF  =  1.00D-05  SPARFAC =  1.00D+00  THRDLP  =  1.00D-07
 THRDIA  =  1.00D-10  THRDLS  =  1.00D-07  THRGPS  =  0.00D+00  THRKEX  =  0.00D+00  THRDIS  =  2.00D-01  THRVAR  =  1.00D-10
 THRLOC  =  1.00D-06  THRGAP  =  1.00D-06  THRLOCT = -1.00D+00  THRGAPT = -1.00D+00  THRORB  =  1.00D-06  THRMLTP =  0.00D+00
 THRCPQCI=  1.00D-10  KEXTA   =  0.00D+00  THRCOARS=  0.00D+00  SYMTOL  =  1.00D-06  GRADTOL =  1.00D-06  THROVL  =  1.00D-08
 THRORTH =  1.00D-08  GRID    =  1.00D-06  GRIDMAX =  1.00D-03  DTMAX   =  0.00D+00  THROCCDE=  1.00D-01  THROCCDE=  1.00D-01



 ZUNIT=ANG


Geometry recognized as XYZ

 SETTING S_PAR(1)       =         1.93820000
 SETTING S_PAR(2)       =         1.38750000
 SETTING P_PAR(1)       =         3.60300000
 SETTING P_PAR(2)       =         1.43780000
 SETTING D_PAR(1)       =         4.40930000
 SETTING D_PAR(2)       =         1.18480000
 SETTING F_PAR          =         2.93400000
 SETTING G_PAR          =         2.26400000

 Variable memory set to  512000000 words,  buffer space   230000 words

  --><jobstep command="MINIMIZE" commandset="MINIMIZE">
   <!--


 PROGRAM * MINIMIZE (General minimization)     Authors: H.-J. Werner, P.J. Knowles, K.A. Peterson

 Minimize EVAL with respect to:        S_PAR(1)  S_PAR(2)  P_PAR(1)  P_PAR(2)  D_PAR(1)
                                       D_PAR(2)  F_PAR(1)  G_PAR(1)
 Method BFGS will be used
 Variables are optimized in the space of (x/x0)


 Minimization using procedure=OPT_BASIS

 Running procedure=OPT_BASIS
 SETTING BASIS          =    USERDEF
   --><jobstep command="RHF-SCF" commandset="SCFPRO">
    <!--


 Current variables in basis input:

 Set= 1  S_PAR(1)            =       1.93820000
 Set= 1  S_PAR(2)            =       1.38750000
 Set= 1  P_PAR(1)            =       3.60300000
 Set= 1  P_PAR(2)            =       1.43780000
 Set= 1  D_PAR(1)            =       4.40930000
 Set= 1  D_PAR(2)            =       1.18480000
 Set= 1  F_PAR(1)            =       2.93400000
 Set= 1  G_PAR(1)            =       2.26400000

 Recomputing integrals since basis changed


 Using spherical harmonics



 PROGRAM * SEWARD (Integral evaluation for generally contracted gaussian basis sets)     Author: Roland Lindh, 1990

 Geometry written to block  1 of record 700

 Orientation using atomic masses
 Molecule type: Atom
 Symmetry elements: X,Y,Z
 Rotational constants:       0.0000000      0.0000000      0.0000000 GHz  (calculated with average atomic masses)

 Point group  D2h


    --><cml:molecule>
     <cml:symmetry pointGroup="D2h"/>
     <cml:atomArray>
      <cml:atom id="a1" elementType="Ag" x3="0.0" y3="0.0" z3="0.0"/>
     </cml:atomArray>
     <cml:bondArray>
     </cml:bondArray>
    </cml:molecule><!--

 ATOMIC COORDINATES

 NR  ATOM    CHARGE       X              Y              Z

   1  AG     19.00    0.000000000    0.000000000    0.000000000


          AG  CORE POTENTIAL

          f POTENTIAL

 POWERS             1              3              2              2
 EXPONENTIALS   11.11700       11.30707       10.88747       6.050896
 COEFFICIENTS   19.00000       211.2229      -111.3857      -10.04923

          s - f POTENTIAL

 POWERS             2              2
 EXPONENTIALS   12.57068       7.075228
 COEFFICIENTS   281.0044       40.24656

          p - f POTENTIAL

 POWERS             2              2
 EXPONENTIALS   11.40284       6.504915
 COEFFICIENTS   210.9924       30.82987

          d - f POTENTIAL

 POWERS             2              2
 EXPONENTIALS   10.79268       4.485396
 COEFFICIENTS   101.0336       14.81364


 BASIS DATA

   Nr Sym  Nuc  Type         Exponents   Contraction coefficients

    1.1 Ag    1  1s         252.240986     0.000187   -0.000008   -0.000099   -0.001900    0.000000
    2.1 Ag                  120.263143    -0.001203    0.000101    0.000652    0.009674    0.000000
    3.1 Ag                   57.338912     0.006572   -0.000983   -0.003771   -0.032370    0.000000
    4.1 Ag                   27.337975    -0.049135    0.010502    0.030950    0.116305    0.000000
    5.1 Ag                   13.034166     0.324368   -0.079895   -0.221657   -0.510709    0.000000
                              6.214413    -0.830173    0.222996    0.613121    1.359180    0.000000
                              2.962900     0.040602   -0.020638    0.057692   -0.446341    0.000000
                              1.412648     0.867596   -0.290413   -1.459411   -3.589505    0.000000
                              0.673520     0.402042   -0.217113   -0.130031    4.806964    0.000000
                              0.321120     0.041210   -0.060146    1.562245   -0.846586    0.000000
                              0.153103    -0.001441    0.281317    0.425393   -2.019864    0.000000
                              0.072996     0.001527    0.481834   -0.568215    0.548278    0.000000
                              0.034803    -0.000235    0.420529   -0.494792    0.652319    1.000000
    6.1 Ag    1  1s           1.938200     1.000000
    7.1 Ag    1  1s           1.387500     1.000000
    8.1 Ag    1  3d0         52.271002    -0.000103
                             28.989500     0.000467
                             16.077578     0.002803
                              8.916626    -0.039328
                              4.945161     0.031263
                              2.742587     0.184471
                              1.521039     0.291465
                              0.843568     0.289956
                              0.467843     0.231088
                              0.259466     0.142433
                              0.143900     0.065674
                              0.079807     0.016134
                              0.044261     0.001687
    9.1 Ag    1  3d2+        52.271002    -0.000103
                             28.989500     0.000467
                             16.077578     0.002803
                              8.916626    -0.039328
                              4.945161     0.031263
                              2.742587     0.184471
                              1.521039     0.291465
                              0.843568     0.289956
                              0.467843     0.231088
                              0.259466     0.142433
                              0.143900     0.065674
                              0.079807     0.016134
                              0.044261     0.001687
   10.1 Ag    1  3d0         52.271002     0.000196
                             28.989500    -0.000963
                             16.077578    -0.002392
                              8.916626     0.050899
                              4.945161    -0.042644
                              2.742587    -0.313089
                              1.521039    -0.428387
                              0.843568    -0.080810
                              0.467843     0.315166
                              0.259466     0.392427
                              0.143900     0.236410
                              0.079807     0.074921
                              0.044261     0.008955
   11.1 Ag    1  3d2+        52.271002     0.000196
                             28.989500    -0.000963
                             16.077578    -0.002392
                              8.916626     0.050899
                              4.945161    -0.042644
                              2.742587    -0.313089
                              1.521039    -0.428387
                              0.843568    -0.080810
                              0.467843     0.315166
                              0.259466     0.392427
                              0.143900     0.236410
                              0.079807     0.074921
                              0.044261     0.008955
   12.1 Ag    1  3d0         52.271002     0.000287
                             28.989500    -0.001388
                             16.077578    -0.003056
                              8.916626     0.069653
                              4.945161    -0.032850
                              2.742587    -0.711418
                              1.521039    -0.262635
                              0.843568     0.863081
                              0.467843     0.459855
                              0.259466    -0.311796
                              0.143900    -0.460355
                              0.079807    -0.179197
                              0.044261    -0.024419
   13.1 Ag    1  3d2+        52.271002     0.000287
                             28.989500    -0.001388
                             16.077578    -0.003056
                              8.916626     0.069653
                              4.945161    -0.032850
                              2.742587    -0.711418
                              1.521039    -0.262635
                              0.843568     0.863081
                              0.467843     0.459855
                              0.259466    -0.311796
                              0.143900    -0.460355
                              0.079807    -0.179197
                              0.044261    -0.024419
   14.1 Ag    1  3d0         52.271002     0.000000
                             28.989500     0.000000
                             16.077578     0.000000
                              8.916626     0.000000
                              4.945161     0.000000
                              2.742587     0.000000
                              1.521039     0.000000
                              0.843568     0.000000
                              0.467843     0.000000
                              0.259466     0.000000
                              0.143900     0.000000
                              0.079807     0.000000
                              0.044261     1.000000
   15.1 Ag    1  3d2+        52.271002     0.000000
                             28.989500     0.000000
                             16.077578     0.000000
                              8.916626     0.000000
                              4.945161     0.000000
                              2.742587     0.000000
                              1.521039     0.000000
                              0.843568     0.000000
                              0.467843     0.000000
                              0.259466     0.000000
                              0.143900     0.000000
                              0.079807     0.000000
                              0.044261     1.000000
   16.1 Ag    1  3d0          4.409300     1.000000
   17.1 Ag    1  3d2+         4.409300     1.000000
   18.1 Ag    1  3d0          1.184800     1.000000
   19.1 Ag    1  3d2+         1.184800     1.000000
   20.1 Ag    1  5g0          2.190648     1.000000
   21.1 Ag    1  5g4+         2.190648     1.000000
   22.1 Ag    1  5g2+         2.190648     1.000000
   23.1 Ag    1  5g0          2.264000     1.000000
   24.1 Ag    1  5g4+         2.264000     1.000000
   25.1 Ag    1  5g2+         2.264000     1.000000
    1.2 B3u   1  2px         50.711510     0.000473   -0.000057   -0.000068   -0.003119    0.000000
    2.2 B3u                  26.995067    -0.007776    0.003143    0.004824    0.021691    0.000000
    3.2 B3u                  14.370182     0.079067   -0.040893   -0.064390   -0.130453    0.000000
    4.2 B3u                   7.649625    -0.276376    0.155441    0.243719    0.395950    0.000000
    5.2 B3u                   4.072096    -0.002600    0.005696    0.085308    0.275943    0.000000
                              2.167683     0.425926   -0.317361   -0.884021   -2.505867    0.000000
                              1.153915     0.460864   -0.378459   -0.394819    1.926260    0.000000
                              0.614259     0.236555    0.033325    1.072408    1.292839    0.000000
                              0.326986     0.047504    0.456558    0.628411   -1.827177    0.000000
                              0.174063     0.007012    0.469051   -0.479278   -0.371120    0.000000
                              0.092658    -0.000383    0.186370   -0.548380    0.698860    0.000000
                              0.049325     0.000641    0.030594   -0.143865    0.354861    0.000000
                              0.026257    -0.000147    0.000776   -0.006800    0.010663    1.000000
    6.2 B3u   1  2px          3.603000     1.000000
    7.2 B3u   1  2px          1.437800     1.000000
    8.2 B3u   1  4f1+         2.648998     1.000000
    9.2 B3u   1  4f3+         2.648998     1.000000
   10.2 B3u   1  4f1+         0.781778     1.000000
   11.2 B3u   1  4f3+         0.781778     1.000000
   12.2 B3u   1  4f1+         2.934000     1.000000
   13.2 B3u   1  4f3+         2.934000     1.000000
    1.3 B2u   1  2py         50.711510     0.000473   -0.000057   -0.000068   -0.003119    0.000000
    2.3 B2u                  26.995067    -0.007776    0.003143    0.004824    0.021691    0.000000
    3.3 B2u                  14.370182     0.079067   -0.040893   -0.064390   -0.130453    0.000000
    4.3 B2u                   7.649625    -0.276376    0.155441    0.243719    0.395950    0.000000
    5.3 B2u                   4.072096    -0.002600    0.005696    0.085308    0.275943    0.000000
                              2.167683     0.425926   -0.317361   -0.884021   -2.505867    0.000000
                              1.153915     0.460864   -0.378459   -0.394819    1.926260    0.000000
                              0.614259     0.236555    0.033325    1.072408    1.292839    0.000000
                              0.326986     0.047504    0.456558    0.628411   -1.827177    0.000000
                              0.174063     0.007012    0.469051   -0.479278   -0.371120    0.000000
                              0.092658    -0.000383    0.186370   -0.548380    0.698860    0.000000
                              0.049325     0.000641    0.030594   -0.143865    0.354861    0.000000
                              0.026257    -0.000147    0.000776   -0.006800    0.010663    1.000000
    6.3 B2u   1  2py          3.603000     1.000000
    7.3 B2u   1  2py          1.437800     1.000000
    8.3 B2u   1  4f1-         2.648998     1.000000
    9.3 B2u   1  4f3-         2.648998     1.000000
   10.3 B2u   1  4f1-         0.781778     1.000000
   11.3 B2u   1  4f3-         0.781778     1.000000
   12.3 B2u   1  4f1-         2.934000     1.000000
   13.3 B2u   1  4f3-         2.934000     1.000000
    1.4 B1g   1  3d2-        52.271002    -0.000103    0.000196    0.000287    0.000000
    2.4 B1g                  28.989500     0.000467   -0.000963   -0.001388    0.000000
    3.4 B1g                  16.077578     0.002803   -0.002392   -0.003056    0.000000
    4.4 B1g                   8.916626    -0.039328    0.050899    0.069653    0.000000
                              4.945161     0.031263   -0.042644   -0.032850    0.000000
                              2.742587     0.184471   -0.313089   -0.711418    0.000000
                              1.521039     0.291465   -0.428387   -0.262635    0.000000
                              0.843568     0.289956   -0.080810    0.863081    0.000000
                              0.467843     0.231088    0.315166    0.459855    0.000000
                              0.259466     0.142433    0.392427   -0.311796    0.000000
                              0.143900     0.065674    0.236410   -0.460355    0.000000
                              0.079807     0.016134    0.074921   -0.179197    0.000000
                              0.044261     0.001687    0.008955   -0.024419    1.000000
    5.4 B1g   1  3d2-         4.409300     1.000000
    6.4 B1g   1  3d2-         1.184800     1.000000
    7.4 B1g   1  5g2-         2.190648     1.000000
    8.4 B1g   1  5g4-         2.190648     1.000000
    9.4 B1g   1  5g2-         2.264000     1.000000
   10.4 B1g   1  5g4-         2.264000     1.000000
    1.5 B1u   1  2pz         50.711510     0.000473   -0.000057   -0.000068   -0.003119    0.000000
    2.5 B1u                  26.995067    -0.007776    0.003143    0.004824    0.021691    0.000000
    3.5 B1u                  14.370182     0.079067   -0.040893   -0.064390   -0.130453    0.000000
    4.5 B1u                   7.649625    -0.276376    0.155441    0.243719    0.395950    0.000000
    5.5 B1u                   4.072096    -0.002600    0.005696    0.085308    0.275943    0.000000
                              2.167683     0.425926   -0.317361   -0.884021   -2.505867    0.000000
                              1.153915     0.460864   -0.378459   -0.394819    1.926260    0.000000
                              0.614259     0.236555    0.033325    1.072408    1.292839    0.000000
                              0.326986     0.047504    0.456558    0.628411   -1.827177    0.000000
                              0.174063     0.007012    0.469051   -0.479278   -0.371120    0.000000
                              0.092658    -0.000383    0.186370   -0.548380    0.698860    0.000000
                              0.049325     0.000641    0.030594   -0.143865    0.354861    0.000000
                              0.026257    -0.000147    0.000776   -0.006800    0.010663    1.000000
    6.5 B1u   1  2pz          3.603000     1.000000
    7.5 B1u   1  2pz          1.437800     1.000000
    8.5 B1u   1  4f0          2.648998     1.000000
    9.5 B1u   1  4f2+         2.648998     1.000000
   10.5 B1u   1  4f0          0.781778     1.000000
   11.5 B1u   1  4f2+         0.781778     1.000000
   12.5 B1u   1  4f0          2.934000     1.000000
   13.5 B1u   1  4f2+         2.934000     1.000000
    1.6 B2g   1  3d1+        52.271002    -0.000103    0.000196    0.000287    0.000000
    2.6 B2g                  28.989500     0.000467   -0.000963   -0.001388    0.000000
    3.6 B2g                  16.077578     0.002803   -0.002392   -0.003056    0.000000
    4.6 B2g                   8.916626    -0.039328    0.050899    0.069653    0.000000
                              4.945161     0.031263   -0.042644   -0.032850    0.000000
                              2.742587     0.184471   -0.313089   -0.711418    0.000000
                              1.521039     0.291465   -0.428387   -0.262635    0.000000
                              0.843568     0.289956   -0.080810    0.863081    0.000000
                              0.467843     0.231088    0.315166    0.459855    0.000000
                              0.259466     0.142433    0.392427   -0.311796    0.000000
                              0.143900     0.065674    0.236410   -0.460355    0.000000
                              0.079807     0.016134    0.074921   -0.179197    0.000000
                              0.044261     0.001687    0.008955   -0.024419    1.000000
    5.6 B2g   1  3d1+         4.409300     1.000000
    6.6 B2g   1  3d1+         1.184800     1.000000
    7.6 B2g   1  5g1+         2.190648     1.000000
    8.6 B2g   1  5g3+         2.190648     1.000000
    9.6 B2g   1  5g1+         2.264000     1.000000
   10.6 B2g   1  5g3+         2.264000     1.000000
    1.7 B3g   1  3d1-        52.271002    -0.000103    0.000196    0.000287    0.000000
    2.7 B3g                  28.989500     0.000467   -0.000963   -0.001388    0.000000
    3.7 B3g                  16.077578     0.002803   -0.002392   -0.003056    0.000000
    4.7 B3g                   8.916626    -0.039328    0.050899    0.069653    0.000000
                              4.945161     0.031263   -0.042644   -0.032850    0.000000
                              2.742587     0.184471   -0.313089   -0.711418    0.000000
                              1.521039     0.291465   -0.428387   -0.262635    0.000000
                              0.843568     0.289956   -0.080810    0.863081    0.000000
                              0.467843     0.231088    0.315166    0.459855    0.000000
                              0.259466     0.142433    0.392427   -0.311796    0.000000
                              0.143900     0.065674    0.236410   -0.460355    0.000000
                              0.079807     0.016134    0.074921   -0.179197    0.000000
                              0.044261     0.001687    0.008955   -0.024419    1.000000
    5.7 B3g   1  3d1-         4.409300     1.000000
    6.7 B3g   1  3d1-         1.184800     1.000000
    7.7 B3g   1  5g1-         2.190648     1.000000
    8.7 B3g   1  5g3-         2.190648     1.000000
    9.7 B3g   1  5g1-         2.264000     1.000000
   10.7 B3g   1  5g3-         2.264000     1.000000
    1.8 Au    1  4f2-         2.648998     1.000000
    2.8 Au    1  4f2-         0.781778     1.000000
    3.8 Au    1  4f2-         2.934000     1.000000

 NUCLEAR CHARGE:                   19
 NUMBER OF PRIMITIVE AOS:         210
 NUMBER OF SYMMETRY AOS:          174
 NUMBER OF CONTRACTIONS:           97   (  25Ag  +  13B3u +  13B2u +  10B1g +  13B1u +  10B2g +  10B3g +   3Au  )
 NUMBER OF CORE ORBITALS:           4   (   1Ag  +   1B3u +   1B2u +   0B1g +   1B1u +   0B2g +   0B3g +   0Au  )
 NUMBER OF VALENCE ORBITALS:        6   (   3Ag  +   0B3u +   0B2u +   1B1g +   0B1u +   1B2g +   1B3g +   0Au  )


 NUCLEAR REPULSION ENERGY    0.00000000

 EXTRA SYMMETRY OF AOS IN SYMMETRY 1:   1 1 1 1 1 1 1 2 3 2   3 2 3 2 3 2 3 2 3 4   5 6 4 5 6
 EXTRA SYMMETRY OF AOS IN SYMMETRY 2:   1 1 1 1 1 1 1 2 3 2   3 2 3
 EXTRA SYMMETRY OF AOS IN SYMMETRY 3:   1 1 1 1 1 1 1 2 3 2   3 2 3
 EXTRA SYMMETRY OF AOS IN SYMMETRY 4:   1 1 1 1 1 1 2 3 2 3
 EXTRA SYMMETRY OF AOS IN SYMMETRY 5:   1 1 1 1 1 1 1 2 3 2   3 2 3
 EXTRA SYMMETRY OF AOS IN SYMMETRY 6:   1 1 1 1 1 1 2 3 2 3
 EXTRA SYMMETRY OF AOS IN SYMMETRY 7:   1 1 1 1 1 1 2 3 2 3

 Eigenvalues of metric

         1 0.439E-03 0.745E-03 0.745E-03 0.745E-03 0.515E-02 0.515E-02 0.888E-02 0.181E+00
         2 0.246E-02 0.400E-02 0.400E-02 0.170E+00 0.279E+00 0.718E+00 0.718E+00 0.100E+01
         3 0.246E-02 0.400E-02 0.400E-02 0.170E+00 0.279E+00 0.718E+00 0.718E+00 0.100E+01
         4 0.745E-03 0.745E-03 0.515E-02 0.181E+00 0.463E+00 0.130E+01 0.159E+01 0.200E+01
         5 0.246E-02 0.400E-02 0.400E-02 0.170E+00 0.279E+00 0.718E+00 0.718E+00 0.100E+01
         6 0.745E-03 0.745E-03 0.515E-02 0.181E+00 0.463E+00 0.130E+01 0.159E+01 0.200E+01
         7 0.745E-03 0.745E-03 0.515E-02 0.181E+00 0.463E+00 0.130E+01 0.159E+01 0.200E+01
         8 0.400E-02 0.718E+00 0.228E+01


 Contracted 2-electron integrals neglected if value below      1.0D-12
 AO integral compression algorithm  1   Integral accuracy      1.0D-12

     15.729 MB (compressed) written to integral file ( 76.5%)

     Node minimum: 0.262 MB, node maximum: 2.621 MB


 NUMBER OF SORTED TWO-ELECTRON INTEGRALS:     105042.     BUFFER LENGTH:  32768
 NUMBER OF SEGMENTS:   1  SEGMENT LENGTH:     105042      RECORD LENGTH: 524288

 Memory used in sort:       0.66 MW

 SORT1 READ     2746375. AND WROTE       78909. INTEGRALS IN      1 RECORDS. CPU TIME:     0.07 SEC, REAL TIME:     0.09 SEC
 SORT2 READ     1138997. AND WROTE     1497820. INTEGRALS IN     90 RECORDS. CPU TIME:     0.00 SEC, REAL TIME:     0.08 SEC

 Node minimum:       90690.  Node maximum:      108959. integrals

 OPERATOR DM      FOR CENTER  0  COORDINATES:    0.000000    0.000000    0.000000


 **********************************************************************************************************************************
 DATASETS  * FILE   NREC   LENGTH (MB)   RECORD NAMES
              1      19       19.97       500      610      700      900      950      970     1000      129      960     1100
                                          VAR    BASINP    GEOM    SYMINP    ZMAT    AOBASIS   BASIS     P2S    ABASIS      S
                                         1400     1410     1420     1200     1210     1080     1600     1650     1700
                                           T        V       ECP      H0       H01     AOSYM     SMH    MOLCAS    OPER

 PROGRAMS   *        TOTAL       INT
 CPU TIMES  *        60.56     60.16
 REAL TIME  *        61.23 SEC
 DISK USED  *        73.11 MB
 GA USED    *         0.00 MB       (max)       0.00 MB       (current)
 **********************************************************************************************************************************


 PROGRAM * RHF-SCF (OPEN SHELL)       Authors: W. Meyer, H.-J. Werner


 NUMBER OF ELECTRONS:      10+    9-    SPACE SYMMETRY=1    SPIN SYMMETRY: Doublet
 CONVERGENCE THRESHOLDS:    1.00E-05 (Density)    1.00E-07 (Energy)
 MAX. NUMBER OF ITERATIONS:       60
 INTERPOLATION TYPE:            DIIS
 INTERPOLATION STEPS:              2 (START)      1 (STEP)
 LEVEL SHIFTS:                 -0.60 (CLOSED) -0.30 (OPEN)


 Singly occupied orbitals:      4.1

 Extra symmetries of mos in symmetry 1:   1   3   2   1

   Atom=AG basis=cc-pVTZ-PP        lmin=0  lmax=2

 Orbital guess generated from atomic densities. Full valence occupancy:    4   1   1   1   1   1   1   0


 Molecular orbital dump at record        4202.2

 ITERATION    DDIFF          GRAD             ENERGY        2-EL.EN.            DIPOLE MOMENTS         DIIS   ORB.
    1      0.000D+00      0.000D+00      -146.03546947    226.531245    0.00000    0.00000    0.00000    0    start
    2      0.000D+00      0.152D-01      -146.05006254    230.320685    0.00000    0.00000    0.00000    1    diag,B
    3      0.845D-02      0.643D-02      -146.05230768    229.622592    0.00000    0.00000    0.00000    2    diag,B
    4      0.355D-02      0.674D-03      -146.05267005    229.731683    0.00000    0.00000    0.00000    3    diag,B
    5      0.474D-02      0.307D-03      -146.05286727    229.838509    0.00000    0.00000    0.00000    4    diag,B
    6      0.541D-02      0.141D-03      -146.05291077    229.892523    0.00000    0.00000    0.00000    5    diag,B
    7      0.366D-02      0.278D-04      -146.05291177    229.898084    0.00000    0.00000    0.00000    6    fixocc
    8      0.428D-03      0.102D-04      -146.05291185    229.898533    0.00000    0.00000    0.00000    7    diag,B
    9      0.621D-04      0.113D-05      -146.05291185    229.898566    0.00000    0.00000    0.00000    8    diag,B
   10      0.102D-04      0.209D-06      -146.05291185    229.898581    0.00000    0.00000    0.00000    9    orth
   11      0.393D-05      0.285D-07      -146.05291185    229.898582    0.00000    0.00000    0.00000    0    orth

 Final alpha occupancy:   4   1   1   1   1   1   1   0
 Final beta  occupancy:   3   1   1   1   1   1   1   0

 !RHF STATE 1.1 Energy               -146.052911853097
    --><property name="Energy" method="RHF" principal="true" stateSymmetry="1" stateNumber="1"
      value="-146.052911853097"/><!--
 Nuclear energy                         0.00000000
 One-electron energy                 -261.00220266
 Two-electron energy                  114.94929081
 Virial quotient                       -2.57955770
 !RHF STATE 1.1 Dipole moment           0.00000000     0.00000000     0.00000000
 Dipole moment /Debye                   0.00000000     0.00000000     0.00000000
    --><property name="Dipole moment" method="RHF" principal="true" stateSymmetry="1"
      stateNumber="1" value="0.0 0.0 0.0"/><!--

 ELECTRON ORBITALS
 =================


   Orb  Occ    Energy  Couls-En    Coefficients

                                   1 1s      1 1s      1 1s      1 1s      1 1s      1 1s      1 1s      1 3d0     1 3d2+    1 3d0
                                   1 3d2+    1 3d0     1 3d2+    1 3d0     1 3d2+    1 3d0     1 3d2+    1 3d0     1 3d2+    1 5g0
                                   1 5g4+    1 5g2+    1 5g0     1 5g4+    1 5g2+

   1.1   2    -4.3971  -22.3149  1.001057  0.000594 -0.000094  0.000245 -0.000650  0.002744 -0.003417 -0.000000 -0.000000  0.000000
                                 0.000000 -0.000000 -0.000000 -0.000000 -0.000000 -0.000000  0.000000  0.000000  0.000000  0.000000
                                -0.000000  0.000000 -0.000000  0.000000 -0.000000

   2.1   2    -0.5112  -12.7819  0.000000  0.000000 -0.000000  0.000000 -0.000000  0.000000 -0.000000  0.000864  1.000068 -0.000000
                                -0.000030  0.000000  0.000016  0.000000  0.000010 -0.000000 -0.000007 -0.000000 -0.000072 -0.000000
                                 0.000000 -0.000000  0.000000 -0.000000  0.000000

   3.1   2    -0.5112  -12.7819  0.000000  0.000000 -0.000000  0.000000 -0.000000  0.000000 -0.000000  1.000068 -0.000864 -0.000030
                                 0.000000  0.000016 -0.000000  0.000010 -0.000000 -0.000007  0.000000 -0.000072  0.000000 -0.000000
                                -0.000000 -0.000000  0.000000  0.000000  0.000000

   4.1   +    -0.2371   -6.4664  0.000204  1.000185 -0.000043  0.000059 -0.000202  0.000484 -0.000598 -0.000000 -0.000000  0.000000
                                -0.000000 -0.000000  0.000000 -0.000000  0.000000  0.000000 -0.000000  0.000000 -0.000000  0.000000
                                -0.000000 -0.000000 -0.000000  0.000000  0.000000

   5.1   0     0.1361   -3.6798 -0.983638 -4.099308  0.352858 -0.188102  4.443557 -0.438418  0.251384  0.000000  0.000000  0.000000
                                 0.000000 -0.000000 -0.000000 -0.000000 -0.000000  0.000000 -0.000000  0.000000  0.000000  0.000000
                                -0.000000 -0.000000 -0.000000  0.000000  0.000000

   6.1   0     0.1412   -2.9893  0.000000  0.000000 -0.000000  0.000000 -0.000000  0.000000  0.000000  0.000017 -0.027673  0.000072
                                -0.119522 -0.000046  0.076917 -0.000646  1.069290  0.000000 -0.000549  0.000086 -0.142402  0.000000
                                 0.000000  0.000000 -0.000000 -0.000000 -0.000000

                                   1 2px     1 2px     1 2px     1 2px     1 2px     1 2px     1 2px     1 4f1+    1 4f3+    1 4f1+
                                   1 4f3+    1 4f1+    1 4f3+

   1.2   2    -2.8268  -18.8651  1.000116 -0.000008 -0.000007  0.000018 -0.000011  0.000048 -0.000150 -0.000000  0.000000 -0.000000
                                -0.000000  0.000000 -0.000000

   2.2   0     0.0336   -3.4392 -0.068960  0.118446 -0.032945  0.001513  0.934338 -0.006005  0.011698 -0.000000 -0.000000  0.000000
                                -0.000000  0.000000  0.000000

   3.2   0     0.2107   -4.7101  0.463376  1.062572 -0.670380  0.298292 -0.965097  0.168731 -0.522834 -0.000000 -0.000000 -0.000000
                                 0.000000  0.000000  0.000000

                                   1 2py     1 2py     1 2py     1 2py     1 2py     1 2py     1 2py     1 4f1-    1 4f3-    1 4f1-
                                   1 4f3-    1 4f1-    1 4f3-

   1.3   2    -2.8268  -18.8651  1.000116 -0.000008 -0.000007  0.000018 -0.000011  0.000048 -0.000150 -0.000000 -0.000000 -0.000000
                                 0.000000  0.000000  0.000000

   2.3   0     0.0336   -3.4392 -0.068960  0.118446 -0.032945  0.001513  0.934338 -0.006005  0.011698 -0.000000 -0.000000  0.000000
                                 0.000000  0.000000  0.000000

   3.3   0     0.2107   -4.7101  0.463376  1.062572 -0.670380  0.298292 -0.965097  0.168731 -0.522834 -0.000000  0.000000 -0.000000
                                -0.000000  0.000000 -0.000000

                                   1 3d2-    1 3d2-    1 3d2-    1 3d2-    1 3d2-    1 3d2-    1 5g2-    1 5g4-    1 5g2-    1 5g4-


   1.4   2    -0.5112  -12.7819  1.000068 -0.000030  0.000016  0.000010 -0.000007 -0.000072 -0.000000  0.000000  0.000000 -0.000000

   2.4   0     0.1412   -2.9893 -0.027673 -0.119522  0.076917  1.069290 -0.000549 -0.142402  0.000000 -0.000000 -0.000000  0.000000

   3.4   0     0.6811   -5.1644 -1.165393  1.417989 -0.846566 -0.652369 -0.005376  1.378290 -0.000000  0.000000  0.000000 -0.000000

                                   1 2pz     1 2pz     1 2pz     1 2pz     1 2pz     1 2pz     1 2pz     1 4f0     1 4f2+    1 4f0
                                   1 4f2+    1 4f0     1 4f2+

   1.5   2    -2.8268  -18.8651  1.000116 -0.000008 -0.000007  0.000018 -0.000011  0.000048 -0.000150  0.000000 -0.000000  0.000000
                                 0.000000 -0.000000  0.000000

   2.5   0     0.0336   -3.4392 -0.068960  0.118446 -0.032945  0.001513  0.934338 -0.006005  0.011698  0.000000  0.000000 -0.000000
                                -0.000000 -0.000000 -0.000000

   3.5   0     0.2107   -4.7101  0.463376  1.062572 -0.670380  0.298292 -0.965097  0.168731 -0.522834 -0.000000  0.000000  0.000000
                                -0.000000  0.000000 -0.000000

                                   1 3d1+    1 3d1+    1 3d1+    1 3d1+    1 3d1+    1 3d1+    1 5g1+    1 5g3+    1 5g1+    1 5g3+


   1.6   2    -0.5112  -12.7819  1.000068 -0.000030  0.000016  0.000010 -0.000007 -0.000072 -0.000000 -0.000000  0.000000  0.000000

   2.6   0     0.1412   -2.9893 -0.027673 -0.119522  0.076917  1.069290 -0.000549 -0.142402  0.000000  0.000000 -0.000000 -0.000000

   3.6   0     0.6811   -5.1644 -1.165393  1.417989 -0.846566 -0.652369 -0.005376  1.378290 -0.000000 -0.000000  0.000000  0.000000

                                   1 3d1-    1 3d1-    1 3d1-    1 3d1-    1 3d1-    1 3d1-    1 5g1-    1 5g3-    1 5g1-    1 5g3-


   1.7   2    -0.5112  -12.7819  1.000068 -0.000030  0.000016  0.000010 -0.000007 -0.000072 -0.000000 -0.000000  0.000000  0.000000

   2.7   0     0.1412   -2.9893 -0.027673 -0.119522  0.076917  1.069290 -0.000549 -0.142402  0.000000 -0.000000 -0.000000  0.000000

   3.7   0     0.6811   -5.1644 -1.165393  1.417989 -0.846566 -0.652369 -0.005376  1.378290 -0.000000  0.000000  0.000000 -0.000000

                                   1 4f2-    1 4f2-    1 4f2-

   1.8   0     1.9435   -7.3579 -0.617673  0.964273  0.760459

   2.8   0     5.6368   -2.6887  2.633299 -0.731593 -1.495701

 HOMO      4.1    -0.237146 =      -6.4531eV
 LUMO      2.2     0.033626 =       0.9150eV
 LUMO-HOMO         0.270772 =       7.3681eV


 **********************************************************************************************************************************
 DATASETS  * FILE   NREC   LENGTH (MB)   RECORD NAMES
              1      19       19.97       500      610      700      900      950      970     1000      129      960     1100
                                          VAR    BASINP    GEOM    SYMINP    ZMAT    AOBASIS   BASIS     P2S    ABASIS      S
                                         1400     1410     1420     1200     1210     1080     1600     1650     1700
                                           T        V       ECP      H0       H01     AOSYM     SMH    MOLCAS    OPER

              2       5        3.07       200      700     1000      520     4202
                                        OPTIONS   GEOM     BASIS   MCVARS     RHF

 PROGRAMS   *        TOTAL       RHF       INT
 CPU TIMES  *       391.72    331.14     60.16
 REAL TIME  *       392.53 SEC
 DISK USED  *       422.97 MB
 SF USED    *         0.01 MB
 GA USED    *         0.00 MB       (max)       0.00 MB       (current)
 **********************************************************************************************************************************
    -->
    <time start="22:05:41" end="22:12:13" cpu="391.72" system="0.42" real="392.53"/>
    <storage units="megabyte" memory="4097.84" sf="0.01" df="349.86" eaf="73.11" ga="0.0"/>
   </jobstep><!--
   --><jobstep command="POP" commandset="POP">
    <!--


 PROGRAM * POP (Mulliken population analysis)


 Density matrix read from record         4202.2  Type=RHF/CHARGE (state 1.1)

 Population analysis by basis function type

 Unique atom        s        p        d        f        g    Total    Charge
   1  AG      3.00000  6.00000 10.00000  0.00000  0.00000 19.00000  + 0.00000


 **********************************************************************************************************************************
 DATASETS  * FILE   NREC   LENGTH (MB)   RECORD NAMES
              1      19       19.97       500      610      700      900      950      970     1000      129      960     1100
                                          VAR    BASINP    GEOM    SYMINP    ZMAT    AOBASIS   BASIS     P2S    ABASIS      S
                                         1400     1410     1420     1200     1210     1080     1600     1650     1700
                                           T        V       ECP      H0       H01     AOSYM     SMH    MOLCAS    OPER

              2       5        3.07       200      700     1000      520     4202
                                        OPTIONS   GEOM     BASIS   MCVARS     RHF

 PROGRAMS   *        TOTAL       POP       RHF       INT
 CPU TIMES  *       391.74      0.00    331.14     60.16
 REAL TIME  *       392.55 SEC
 DISK USED  *       422.97 MB
 SF USED    *         0.01 MB
 GA USED    *         0.00 MB       (max)       0.00 MB       (current)
 **********************************************************************************************************************************
    -->
    <time start="22:12:13" end="22:12:13" cpu="0.02" system="0.0" real="0.02"/>
    <storage units="megabyte" memory="4097.84" sf="0.01" df="349.86" eaf="73.11" ga="0.0"/>
   </jobstep><!--
   --><jobstep command="MULTI" commandset="MULTI">
    <!--


 Current variables in basis input:

 Set= 1  S_PAR(1)            =       1.93820000
 Set= 1  S_PAR(2)            =       1.38750000
 Set= 1  P_PAR(1)            =       3.60300000
 Set= 1  P_PAR(2)            =       1.43780000
 Set= 1  D_PAR(1)            =       4.40930000
 Set= 1  D_PAR(2)            =       1.18480000
 Set= 1  F_PAR(1)            =       2.93400000
 Set= 1  G_PAR(1)            =       2.26400000

 PROGRAM * MULTI (Direct Multiconfiguration SCF)       Authors: P.J. Knowles, H.-J. Werner (1984)     S.T. Elbert (1988)


 Number of closed-shell orbitals:   9 (   3   1   1   1   1   1   1   0 )
 Number of active  orbitals:        1 (   1   0   0   0   0   0   0   0 )
 Number of external orbitals:      87 (  21  12  12   9  12   9   9   3 )

 State symmetry 1

 Orbital occupancy restrictions for symmetry 1
  1      1       2

 Number of electrons:     1    Spin symmetry=Doublet   Space symmetry=1
 Number of states:        1
 Number of CSFs:          1

 Maximum number of shells:             1
 Maximum number of spin couplings:     1

 Storage for configuration lists       2, coupling coefficients      1, address lists      7

 Molecular orbitals read from record     4202.2  Type=RHF/CANONICAL (state 1.1)
 *** IN SYMMETRY 1 ORBITAL  2 SYMMETRY CONTAMINATION OF 0.863D-03 HAS BEEN REMOVED
 *** IN SYMMETRY 1 ORBITAL  3 SYMMETRY CONTAMINATION OF 0.863D-03 HAS BEEN REMOVED

 EXTRA SYMMETRY OF MOS IN SYMMETRY 1:   1 3 2 1 1 3 2 2 3 1   3 2 1 6 5 4 2 3 1 6   5 4 2 3 1
 EXTRA SYMMETRY OF MOS IN SYMMETRY 2:   1 1 1 1 3 2 1 3 2 1   3 2 1
 EXTRA SYMMETRY OF MOS IN SYMMETRY 3:   1 1 1 1 3 2 1 3 2 1   3 2 1
 EXTRA SYMMETRY OF MOS IN SYMMETRY 4:   1 1 1 1 3 2 1 3 2 1
 EXTRA SYMMETRY OF MOS IN SYMMETRY 5:   1 1 1 1 3 2 1 3 2 1   2 3 1
 EXTRA SYMMETRY OF MOS IN SYMMETRY 6:   1 1 1 1 2 3 1 2 3 1
 EXTRA SYMMETRY OF MOS IN SYMMETRY 7:   1 1 1 1 2 3 1 2 3 1

 Wavefunction dump at record             5202.2

 Convergence thresholds  0.10E-01 (gradient)  0.10E-05 (energy)  0.10E-02 (step length)

 Number of orbital rotations:      150   (     3 Core/Active    126 Core/Virtual   0 Active/Active     21 Active/Virtual)
 Total number of variables:        151


 ITER. MIC  NCI  NEG     ENERGY(VAR)     ENERGY(PROJ)   ENERGY CHANGE     GRAD(0)  GRAD(ORB)   GRAD(CI)     STEP       TIME

   1   22    4    0    -146.05291185    -146.05291185   -0.00000000    0.00000028 0.00000000 0.00000000  0.44D-06     50.02

 ** WVFN ****  CONVERGENCE REACHED, FINAL GRADIENT:  0.41D-12


 First order charge density matrix for state 1.1 saved on record  5202.2 (density set 1)

 Results for state 1.1
 =====================

 !MCSCF STATE 1.1 Energy             -146.052911853156
    --><property name="Energy" method="MCSCF" principal="true" stateSymmetry="1" stateNumber="1"
      value="-146.052911853156"/><!--
 Nuclear energy                         0.00000000
 Kinetic energy                        56.61936238
 One electron energy                 -261.00220320
 Two electron energy                  114.94929134
 Virial ratio                           3.57955769

 !MCSCF STATE 1.1 Dipole moment         0.00000000     0.00000000     0.00000000
 Dipole moment /Debye                   0.00000000     0.00000000     0.00000000
    --><property name="Dipole moment" method="MCSCF" principal="true" stateSymmetry="1"
      stateNumber="1" value="0.0 0.0 0.0"/><!--


 NATURAL ORBITALS
 ================

   Orb     Occ        Energy       Coefficients

                                   1 1s      1 1s      1 1s      1 1s      1 1s      1 1s      1 1s      1 3d0     1 3d2+    1 3d0
                                   1 3d2+    1 3d0     1 3d2+    1 3d0     1 3d2+    1 3d0     1 3d2+    1 3d0     1 3d2+    1 5g0
                                   1 5g4+    1 5g2+    1 5g0     1 5g4+    1 5g2+

   1.1  2.00000    -4.397065     1.001057  0.000594 -0.000094  0.000245 -0.000650  0.002744 -0.003417  0.000000  0.000000  0.000000
                                 0.000000  0.000000  0.000000  0.000000  0.000000  0.000000  0.000000  0.000000  0.000000  0.000000
                                 0.000000  0.000000  0.000000  0.000000  0.000000

   2.1  2.00000    -0.511158     0.000000  0.000000  0.000000  0.000000  0.000000  0.000000  0.000000  0.000000  1.000068  0.000000
                                -0.000030  0.000000  0.000016  0.000000  0.000011  0.000000 -0.000007  0.000000 -0.000072  0.000000
                                 0.000000  0.000000  0.000000  0.000000  0.000000

   3.1  2.00000    -0.511158     0.000000  0.000000  0.000000  0.000000  0.000000  0.000000  0.000000  1.000068  0.000000 -0.000030
                                 0.000000  0.000016  0.000000  0.000011  0.000000 -0.000007  0.000000 -0.000072  0.000000  0.000000
                                 0.000000  0.000000  0.000000  0.000000  0.000000

   4.1  1.00000    -0.105773     0.000205  1.000187 -0.000044  0.000060 -0.000205  0.000484 -0.000599  0.000000  0.000000  0.000000
                                 0.000000  0.000000  0.000000  0.000000  0.000000  0.000000  0.000000  0.000000  0.000000  0.000000
                                 0.000000  0.000000  0.000000  0.000000  0.000000

                                   1 2px     1 2px     1 2px     1 2px     1 2px     1 2px     1 2px     1 4f1+    1 4f3+    1 4f1+
                                   1 4f3+    1 4f1+    1 4f3+

   1.2  2.00000    -2.826794     1.000116 -0.000008 -0.000007  0.000018 -0.000011  0.000048 -0.000150  0.000000  0.000000  0.000000
                                 0.000000  0.000000  0.000000

                                   1 2py     1 2py     1 2py     1 2py     1 2py     1 2py     1 2py     1 4f1-    1 4f3-    1 4f1-
                                   1 4f3-    1 4f1-    1 4f3-

   1.3  2.00000    -2.826794     1.000116 -0.000008 -0.000007  0.000018 -0.000011  0.000048 -0.000150  0.000000  0.000000  0.000000
                                 0.000000  0.000000  0.000000

                                   1 3d2-    1 3d2-    1 3d2-    1 3d2-    1 3d2-    1 3d2-    1 5g2-    1 5g4-    1 5g2-    1 5g4-


   1.4  2.00000    -0.511158     1.000068 -0.000030  0.000016  0.000011 -0.000007 -0.000072  0.000000  0.000000  0.000000  0.000000

                                   1 2pz     1 2pz     1 2pz     1 2pz     1 2pz     1 2pz     1 2pz     1 4f0     1 4f2+    1 4f0
                                   1 4f2+    1 4f0     1 4f2+

   1.5  2.00000    -2.826794     1.000116 -0.000008 -0.000007  0.000018 -0.000011  0.000048 -0.000150  0.000000  0.000000  0.000000
                                 0.000000  0.000000  0.000000

                                   1 3d1+    1 3d1+    1 3d1+    1 3d1+    1 3d1+    1 3d1+    1 5g1+    1 5g3+    1 5g1+    1 5g3+


   1.6  2.00000    -0.511158     1.000068 -0.000030  0.000016  0.000011 -0.000007 -0.000072  0.000000  0.000000  0.000000  0.000000

                                   1 3d1-    1 3d1-    1 3d1-    1 3d1-    1 3d1-    1 3d1-    1 5g1-    1 5g3-    1 5g1-    1 5g3-


   1.7  2.00000    -0.511158     1.000068 -0.000030  0.000016  0.000011 -0.000007 -0.000072  0.000000  0.000000  0.000000  0.000000


 EXTRA SYMMETRY OF MOS IN SYMMETRY 1:   1 3 2 1 3 2 1 2 3 1   3 2 1 6 5 4 2 3 1 6   5 4 2 3 1
 EXTRA SYMMETRY OF MOS IN SYMMETRY 2:   1 1 1 1 2 3 1 2 3 1   2 3 1
 EXTRA SYMMETRY OF MOS IN SYMMETRY 3:   1 1 1 1 2 3 1 2 3 1   3 2 1
 EXTRA SYMMETRY OF MOS IN SYMMETRY 5:   1 1 1 1 3 2 1 2 3 1   2 3 1

 Natural orbital dump at molpro section  5202.2    (Orbital set 2)


 CI vector
 =========

 /             1.0000000


 **********************************************************************************************************************************
 DATASETS  * FILE   NREC   LENGTH (MB)   RECORD NAMES
              1      20       20.82       500      610      700      900      950      970     1000      129      960     1100
                                          VAR    BASINP    GEOM    SYMINP    ZMAT    AOBASIS   BASIS     P2S    ABASIS      S
                                         1400     1410     1420     1200     1210     1080     1600     1650     1700     1380
                                           T        V       ECP      H0       H01     AOSYM     SMH    MOLCAS    OPER     JKOP

              2       6        5.61       200      700     1000      520     4202     5202
                                        OPTIONS   GEOM     BASIS   MCVARS     RHF     MCSCF

 PROGRAMS   *        TOTAL     MULTI       POP       RHF       INT
 CPU TIMES  *       441.85     50.10      0.00    331.14     60.16
 REAL TIME  *       442.72 SEC
 DISK USED  *       422.97 MB
 SF USED    *         6.51 MB
 GA USED    *         0.00 MB       (max)       0.00 MB       (current)
 **********************************************************************************************************************************
    -->
    <time start="22:12:13" end="22:13:03" cpu="50.11" system="0.04" real="50.17"/>
    <storage units="megabyte" memory="4097.84" sf="6.51" df="349.86" eaf="73.11" ga="0.0"/>
   </jobstep><!--
   --><jobstep command="RHF-SCF" commandset="SCFPRO">
    <!--


 Current variables in basis input:

 Set= 1  S_PAR(1)            =       1.93820000
 Set= 1  S_PAR(2)            =       1.38750000
 Set= 1  P_PAR(1)            =       3.60300000
 Set= 1  P_PAR(2)            =       1.43780000
 Set= 1  D_PAR(1)            =       4.40930000
 Set= 1  D_PAR(2)            =       1.18480000
 Set= 1  F_PAR(1)            =       2.93400000
 Set= 1  G_PAR(1)            =       2.26400000

 PROGRAM * RHF-SCF (OPEN SHELL)       Authors: W. Meyer, H.-J. Werner


 NUMBER OF ELECTRONS:      10+    9-    SPACE SYMMETRY=1    SPIN SYMMETRY: Doublet
 CONVERGENCE THRESHOLDS:    1.00E-05 (Density)    1.00E-07 (Energy)
 MAX. NUMBER OF ITERATIONS:        0
 INTERPOLATION TYPE:            DIIS
 INTERPOLATION STEPS:              2 (START)      1 (STEP)
 LEVEL SHIFTS:                 -0.60 (CLOSED) -0.30 (OPEN)


 Singly occupied orbitals:      4.1

 Extra symmetries of mos in symmetry 1:   1   3   2   1
 Molecular orbitals read from record     5202.2  Type=MCSCF/NATURAL (state 1.1)

 Molecular orbital dump at record        2101.2

 ITERATION    DDIFF          GRAD             ENERGY        2-EL.EN.            DIPOLE MOMENTS         DIIS   ORB.
    1      0.000D+00      0.000D+00      -146.05291185    229.898583    0.00000    0.00000    0.00000    0    start

 Final alpha occupancy:   4   1   1   1   1   1   1   0
 Final beta  occupancy:   3   1   1   1   1   1   1   0

 !RHF STATE 1.1 Energy               -146.052911853097
    --><property name="Energy" method="RHF" principal="true" stateSymmetry="1" stateNumber="1"
      value="-146.052911853097"/><!--
 Nuclear energy                         0.00000000
 One-electron energy                 -261.00220320
 Two-electron energy                  114.94929134
 Virial quotient                       -2.57955769
 !RHF STATE 1.1 Dipole moment           0.00000000     0.00000000     0.00000000
 Dipole moment /Debye                   0.00000000     0.00000000     0.00000000
    --><property name="Dipole moment" method="RHF" principal="true" stateSymmetry="1"
      stateNumber="1" value="0.0 0.0 0.0"/><!--

 ELECTRON ORBITALS
 =================


   Orb  Occ    Energy  Couls-En    Coefficients

                                   1 1s      1 1s      1 1s      1 1s      1 1s      1 1s      1 1s      1 3d0     1 3d2+    1 3d0
                                   1 3d2+    1 3d0     1 3d2+    1 3d0     1 3d2+    1 3d0     1 3d2+    1 3d0     1 3d2+    1 5g0
                                   1 5g4+    1 5g2+    1 5g0     1 5g4+    1 5g2+

   1.1   2    -4.3971  -22.3149  1.001057  0.000594 -0.000094  0.000245 -0.000650  0.002744 -0.003417  0.000000  0.000000  0.000000
                                 0.000000  0.000000  0.000000  0.000000  0.000000  0.000000  0.000000  0.000000  0.000000  0.000000
                                 0.000000  0.000000  0.000000  0.000000  0.000000

   2.1   2    -0.5112  -12.7819  0.000000  0.000000  0.000000  0.000000  0.000000  0.000000  0.000000  0.000000  1.000068  0.000000
                                -0.000030  0.000000  0.000016  0.000000  0.000011  0.000000 -0.000007  0.000000 -0.000072  0.000000
                                 0.000000  0.000000  0.000000  0.000000  0.000000

   3.1   2    -0.5112  -12.7819  0.000000  0.000000  0.000000  0.000000  0.000000  0.000000  0.000000  1.000068  0.000000 -0.000030
                                 0.000000  0.000016  0.000000  0.000011  0.000000 -0.000007  0.000000 -0.000072  0.000000  0.000000
                                 0.000000  0.000000  0.000000  0.000000  0.000000

   4.1   +    -0.1058   -6.3350  0.000205  1.000187 -0.000044  0.000060 -0.000205  0.000484 -0.000599  0.000000  0.000000  0.000000
                                 0.000000  0.000000  0.000000  0.000000  0.000000  0.000000  0.000000  0.000000  0.000000  0.000000
                                 0.000000  0.000000  0.000000  0.000000  0.000000

                                   1 2px     1 2px     1 2px     1 2px     1 2px     1 2px     1 2px     1 4f1+    1 4f3+    1 4f1+
                                   1 4f3+    1 4f1+    1 4f3+

   1.2   2    -2.8268  -18.8651  1.000116 -0.000008 -0.000007  0.000018 -0.000011  0.000048 -0.000150  0.000000  0.000000  0.000000
                                 0.000000  0.000000  0.000000

                                   1 2py     1 2py     1 2py     1 2py     1 2py     1 2py     1 2py     1 4f1-    1 4f3-    1 4f1-
                                   1 4f3-    1 4f1-    1 4f3-

   1.3   2    -2.8268  -18.8651  1.000116 -0.000008 -0.000007  0.000018 -0.000011  0.000048 -0.000150  0.000000  0.000000  0.000000
                                 0.000000  0.000000  0.000000

                                   1 3d2-    1 3d2-    1 3d2-    1 3d2-    1 3d2-    1 3d2-    1 5g2-    1 5g4-    1 5g2-    1 5g4-


   1.4   2    -0.5112  -12.7819  1.000068 -0.000030  0.000016  0.000011 -0.000007 -0.000072  0.000000  0.000000  0.000000  0.000000

                                   1 2pz     1 2pz     1 2pz     1 2pz     1 2pz     1 2pz     1 2pz     1 4f0     1 4f2+    1 4f0
                                   1 4f2+    1 4f0     1 4f2+

   1.5   2    -2.8268  -18.8651  1.000116 -0.000008 -0.000007  0.000018 -0.000011  0.000048 -0.000150  0.000000  0.000000  0.000000
                                 0.000000  0.000000  0.000000

                                   1 3d1+    1 3d1+    1 3d1+    1 3d1+    1 3d1+    1 3d1+    1 5g1+    1 5g3+    1 5g1+    1 5g3+


   1.6   2    -0.5112  -12.7819  1.000068 -0.000030  0.000016  0.000011 -0.000007 -0.000072  0.000000  0.000000  0.000000  0.000000

                                   1 3d1-    1 3d1-    1 3d1-    1 3d1-    1 3d1-    1 3d1-    1 5g1-    1 5g3-    1 5g1-    1 5g3-


   1.7   2    -0.5112  -12.7819  1.000068 -0.000030  0.000016  0.000011 -0.000007 -0.000072  0.000000  0.000000  0.000000  0.000000

 HOMO      4.1    -0.105773 =      -2.8782eV
 LUMO      2.2     0.045255 =       1.2314eV
 LUMO-HOMO         0.151028 =       4.1097eV


 **********************************************************************************************************************************
 DATASETS  * FILE   NREC   LENGTH (MB)   RECORD NAMES
              1      20       20.82       500      610      700      900      950      970     1000      129      960     1100
                                          VAR    BASINP    GEOM    SYMINP    ZMAT    AOBASIS   BASIS     P2S    ABASIS      S
                                         1400     1410     1420     1200     1210     1080     1600     1650     1700     1380
                                           T        V       ECP      H0       H01     AOSYM     SMH    MOLCAS    OPER     JKOP

              2       7        8.15       200      700     1000      520     4202     5202     2101
                                        OPTIONS   GEOM     BASIS   MCVARS     RHF     MCSCF     RHF

 PROGRAMS   *        TOTAL       RHF     MULTI       POP       RHF       INT
 CPU TIMES  *       441.91      0.05     50.10      0.00    331.14     60.16
 REAL TIME  *       442.80 SEC
 DISK USED  *       422.97 MB
 SF USED    *         6.51 MB
 GA USED    *         0.00 MB       (max)       0.00 MB       (current)
 **********************************************************************************************************************************
    -->
    <time start="22:13:03" end="22:13:03" cpu="0.06" system="0.0" real="0.08"/>
    <storage units="megabyte" memory="4097.84" sf="6.51" df="349.86" eaf="73.11" ga="0.0"/>
   </jobstep><!--
   --><jobstep command="DATA" commandset="DATA">
    <!--


 RECORD   4202.2 RENAMED TO   4302.2


 **********************************************************************************************************************************
 DATASETS  * FILE   NREC   LENGTH (MB)   RECORD NAMES
              1      20       20.82       500      610      700      900      950      970     1000      129      960     1100
                                          VAR    BASINP    GEOM    SYMINP    ZMAT    AOBASIS   BASIS     P2S    ABASIS      S
                                         1400     1410     1420     1200     1210     1080     1600     1650     1700     1380
                                           T        V       ECP      H0       H01     AOSYM     SMH    MOLCAS    OPER     JKOP

              2       7        8.15       200      700     1000      520     4302     5202     2101
                                        OPTIONS   GEOM     BASIS   MCVARS     RHF     MCSCF     RHF

 PROGRAMS   *        TOTAL      DATA       RHF     MULTI       POP       RHF       INT
 CPU TIMES  *       441.91      0.00      0.05     50.10      0.00    331.14     60.16
 REAL TIME  *       442.80 SEC
 DISK USED  *       422.97 MB
 SF USED    *         6.51 MB
 GA USED    *         0.00 MB       (max)       0.00 MB       (current)
 **********************************************************************************************************************************
    -->
    <time start="22:13:03" end="22:13:03" cpu="0.0" system="0.0" real="0.0"/>
    <storage units="megabyte" memory="4097.84" sf="6.51" df="349.86" eaf="73.11" ga="0.0"/>
   </jobstep><!--
   --><jobstep command="DATA" commandset="DATA">
    <!--


 RECORD   5202.2 RENAMED TO   5302.2


 **********************************************************************************************************************************
 DATASETS  * FILE   NREC   LENGTH (MB)   RECORD NAMES
              1      20       20.82       500      610      700      900      950      970     1000      129      960     1100
                                          VAR    BASINP    GEOM    SYMINP    ZMAT    AOBASIS   BASIS     P2S    ABASIS      S
                                         1400     1410     1420     1200     1210     1080     1600     1650     1700     1380
                                           T        V       ECP      H0       H01     AOSYM     SMH    MOLCAS    OPER     JKOP

              2       7        8.15       200      700     1000      520     4302     5302     2101
                                        OPTIONS   GEOM     BASIS   MCVARS     RHF     MCSCF     RHF

 PROGRAMS   *        TOTAL      DATA      DATA       RHF     MULTI       POP       RHF       INT
 CPU TIMES  *       441.92      0.00      0.00      0.05     50.10      0.00    331.14     60.16
 REAL TIME  *       442.80 SEC
 DISK USED  *       422.97 MB
 SF USED    *         6.51 MB
 GA USED    *         0.00 MB       (max)       0.00 MB       (current)
 **********************************************************************************************************************************
    -->
    <time start="22:13:03" end="22:13:03" cpu="0.01" system="0.0" real="0.0"/>
    <storage units="megabyte" memory="4097.84" sf="6.51" df="349.86" eaf="73.11" ga="0.0"/>
   </jobstep><!--
   --><jobstep command="CI" commandset="CIPRO">
    <!--


 Current variables in basis input:

 Set= 1  S_PAR(1)            =       1.93820000
 Set= 1  S_PAR(2)            =       1.38750000
 Set= 1  P_PAR(1)            =       3.60300000
 Set= 1  P_PAR(2)            =       1.43780000
 Set= 1  D_PAR(1)            =       4.40930000
 Set= 1  D_PAR(2)            =       1.18480000
 Set= 1  F_PAR(1)            =       2.93400000
 Set= 1  G_PAR(1)            =       2.26400000

 PROGRAM * CI (Multireference internally contracted CI)     Authors: H.-J. Werner, P.J. Knowles, 1987


 Convergence thresholds:  THRVAR = 1.00D-08  THRDEN = 1.00D-06

 Number of optimized states:  1  Roots:   1
 Number of reference states:  1  Roots:   1

 Reference symmetry:                   1   Doublet
 Number of electrons:                 19
 Maximum number of shells:             3
 Maximum number of spin couplings:     5

 Reference space:        1 conf        1 CSFs
 N elec internal:       10 conf       10 CSFs
 N-1 el internal:       55 conf      100 CSFs
 N-2 el internal:       54 conf      216 CSFs

 Number of electrons in valence space:                     19
 Maximum number of open shell orbitals in reference space:  1
 Maximum number of open shell orbitals in internal spaces:  5


 Number of closed-shell orbitals:   9 (   3   1   1   1   1   1   1   0 )
 Number of active  orbitals:        1 (   1   0   0   0   0   0   0   0 )
 Number of external orbitals:      87 (  21  12  12   9  12   9   9   3 )

 Molecular orbitals read from record     2101.2  Type=RHF/CANONICAL (state 1.1)

 Coulomb and exchange operators available. No transformation done.

 Number of p-space configurations:   1

 Reference wavefunction optimized for reference space (refopt=1)

 State     Reference Energy
   1        -146.05291185

 Number of blocks in overlap matrix:    99   Smallest eigenvalue:  0.10D+01
 Number of N-2 electron functions:      99
 Number of N-1 electron functions:     100

 Number of internal configurations:                    4
 Number of singly external configurations:          1236
 Number of doubly external configurations:         48546
 Total number of contracted configurations:        49786
 Total number of uncontracted configurations:     105397

 Diagonal Coupling coefficients finished.               Storage:   12278 words, CPU-Time:      0.00 seconds.
 Energy denominators for pairs finished in 1 passes.    Storage:   34322 words, CPU-time:      0.01 seconds.

  ITER. STATE  ROOT     SQ.NORM     CORR.ENERGY   TOTAL ENERGY   ENERGY CHANGE       DEN1      VAR(S)    VAR(P)      TIME
    1     1     1     1.00000000     0.00000000  -146.05291185    -0.00000000    -0.81827285  0.17D-02  0.14D+00     0.53
    2     1     1     1.08845304    -0.64370956  -146.69662142    -0.64370956    -0.01842370  0.73D-03  0.25D-02     1.12
    3     1     1     1.08222343    -0.66101610  -146.71392796    -0.01730654    -0.00021289  0.19D-04  0.27D-04     1.70
    4     1     1     1.08264970    -0.66121498  -146.71412683    -0.00019888    -0.00001034  0.26D-05  0.94D-06     2.37
    5     1     1     1.08276426    -0.66122499  -146.71413685    -0.00001001    -0.00000034  0.60D-07  0.46D-07     3.07
    6     1     1     1.08279761    -0.66122535  -146.71413721    -0.00000036    -0.00000001  0.14D-08  0.24D-08     3.78


 =====================================
 Analysis of CPU times by interactions
 =====================================

       I      S      P

 I   0.3%
 S   0.3%   0.8%
 P  52.9%   6.6%   1.3%

 Initialization:   9.0%
 Other:           28.8%

 Total CPU:        3.8 seconds
 =====================================



 Reference coefficients greater than 0.0500000
 =============================================
 222/222222           0.9610064



 RESULTS FOR STATE 1.1
 =====================

 Coefficient of reference function:   C(0) = 0.96100644 (fixed)   0.96100644 (relaxed)

 Energy contributions of configuration classes

 CLASS          SQ.NORM        ECORR1        ECORR2
 +++++++++++++++++++++++++++++++++++++++++++++++++++
 Internals    0.00000026    0.00000000   -0.00000016
 Singles      0.00172771   -0.00379534   -0.00455981
 Pairs        0.08106993   -0.65743002   -0.65666538
 Total        1.08279789   -0.66122535   -0.66122535
 +++++++++++++++++++++++++++++++++++++++++++++++++++


 Reference energy                    -146.05291185
 Nuclear energy                         0.00000000
 Kinetic energy                        57.09149490
 One electron energy                 -260.50255206
 Two electron energy                  113.78841485
 Virial quotient                       -2.56980724
 Correlation energy                    -0.66122535
 !CI(SD) STATE 1.1 Energy            -146.714137205028
    --><property name="Energy" method="CI(SD)" principal="true" stateSymmetry="1"
      stateNumber="1" value="-146.714137205028"/><!--

 Properties without orbital relaxation:

 !CI(SD) STATE 1.1 Dipole moment        0.00000000     0.00000000     0.00000000
 Dipole moment /Debye                   0.00000000     0.00000000     0.00000000
    --><property name="Dipole moment" method="CI(SD)" principal="true" stateSymmetry="1"
      stateNumber="1" value="0.0 0.0 0.0"/><!--

 Cluster corrected energies          -146.76888527 (Davidson, fixed reference)
 Cluster corrected energies          -146.76888527 (Davidson, relaxed reference)

 Cluster corrected energies          -146.76611163 (Pople, fixed reference)
 Cluster corrected energies          -146.76611163 (Pople, relaxed reference)



 **********************************************************************************************************************************
 DATASETS  * FILE   NREC   LENGTH (MB)   RECORD NAMES
              1      20       20.82       500      610      700      900      950      970     1000      129      960     1100
                                          VAR    BASINP    GEOM    SYMINP    ZMAT    AOBASIS   BASIS     P2S    ABASIS      S
                                         1400     1410     1420     1200     1210     1080     1600     1650     1700     1380
                                           T        V       ECP      H0       H01     AOSYM     SMH    MOLCAS    OPER     JKOP

              2       7        8.15       200      700     1000      520     4302     5302     2101
                                        OPTIONS   GEOM     BASIS   MCVARS     RHF     MCSCF     RHF

 PROGRAMS   *        TOTAL        CI      DATA      DATA       RHF     MULTI       POP       RHF       INT
 CPU TIMES  *       463.93      4.33      0.00      0.00      0.05     50.10      0.00    331.14     60.16
 REAL TIME  *       468.08 SEC
 DISK USED  *       422.97 MB
 SF USED    *         6.51 MB
 GA USED    *         0.00 MB       (max)       0.00 MB       (current)
 **********************************************************************************************************************************
    -->
    <time start="22:13:03" end="22:13:28" cpu="22.01" system="0.07" real="25.28"/>
    <storage units="megabyte" memory="4097.84" sf="6.51" df="349.86" eaf="73.11" ga="0.0"/>
   </jobstep><!--
 SETTING EVAL           =      -146.71413721  AU

 BFGS update of inverse hessian


 Calculating numerical derivatives: forward displacement for variable 1 of  8


 Running procedure=OPT_BASIS
 SETTING BASIS          =    USERDEF
   --><jobstep command="RHF-SCF" commandset="SCFPRO">
    <!--


 Current variables in basis input:

 Set= 1  S_PAR(1)            =       1.94013820
 Set= 1  S_PAR(2)            =       1.38750000
 Set= 1  P_PAR(1)            =       3.60300000
 Set= 1  P_PAR(2)            =       1.43780000
 Set= 1  D_PAR(1)            =       4.40930000
 Set= 1  D_PAR(2)            =       1.18480000
 Set= 1  F_PAR(1)            =       2.93400000
 Set= 1  G_PAR(1)            =       2.26400000

 Recomputing integrals since basis changed


 Using spherical harmonics



 PROGRAM * SEWARD (Integral evaluation for generally contracted gaussian basis sets)     Author: Roland Lindh, 1990

 Geometry written to block  1 of record 700

 Orientation using atomic masses
 Molecule type: Atom
 Symmetry elements: X,Y,Z
 Rotational constants:       0.0000000      0.0000000      0.0000000 GHz  (calculated with average atomic masses)

 Point group  D2h



 ATOMIC COORDINATES

 NR  ATOM    CHARGE       X              Y              Z

   1  AG     19.00    0.000000000    0.000000000    0.000000000


          AG  CORE POTENTIAL

          f POTENTIAL

 POWERS             1              3              2              2
 EXPONENTIALS   11.11700       11.30707       10.88747       6.050896
 COEFFICIENTS   19.00000       211.2229      -111.3857      -10.04923

          s - f POTENTIAL

 POWERS             2              2
 EXPONENTIALS   12.57068       7.075228
 COEFFICIENTS   281.0044       40.24656

          p - f POTENTIAL

 POWERS             2              2
 EXPONENTIALS   11.40284       6.504915
 COEFFICIENTS   210.9924       30.82987

          d - f POTENTIAL

 POWERS             2              2
 EXPONENTIALS   10.79268       4.485396
 COEFFICIENTS   101.0336       14.81364


 BASIS DATA

   Nr Sym  Nuc  Type         Exponents   Contraction coefficients

    1.1 Ag    1  1s         252.240986     0.000187   -0.000008   -0.000099   -0.001900    0.000000
    2.1 Ag                  120.263143    -0.001203    0.000101    0.000652    0.009674    0.000000
    3.1 Ag                   57.338912     0.006572   -0.000983   -0.003771   -0.032370    0.000000
    4.1 Ag                   27.337975    -0.049135    0.010502    0.030950    0.116305    0.000000
    5.1 Ag                   13.034166     0.324368   -0.079895   -0.221657   -0.510709    0.000000
                              6.214413    -0.830173    0.222996    0.613121    1.359180    0.000000
                              2.962900     0.040602   -0.020638    0.057692   -0.446341    0.000000
                              1.412648     0.867596   -0.290413   -1.459411   -3.589505    0.000000
                              0.673520     0.402042   -0.217113   -0.130031    4.806964    0.000000
                              0.321120     0.041210   -0.060146    1.562245   -0.846586    0.000000
                              0.153103    -0.001441    0.281317    0.425393   -2.019864    0.000000
                              0.072996     0.001527    0.481834   -0.568215    0.548278    0.000000
                              0.034803    -0.000235    0.420529   -0.494792    0.652319    1.000000
    6.1 Ag    1  1s           1.940138     1.000000
    7.1 Ag    1  1s           1.387500     1.000000
    8.1 Ag    1  3d0         52.271002    -0.000103
                             28.989500     0.000467
                             16.077578     0.002803
                              8.916626    -0.039328
                              4.945161     0.031263
                              2.742587     0.184471
                              1.521039     0.291465
                              0.843568     0.289956
                              0.467843     0.231088
                              0.259466     0.142433
                              0.143900     0.065674
                              0.079807     0.016134
                              0.044261     0.001687
    9.1 Ag    1  3d2+        52.271002    -0.000103
                             28.989500     0.000467
                             16.077578     0.002803
                              8.916626    -0.039328
                              4.945161     0.031263
                              2.742587     0.184471
                              1.521039     0.291465
                              0.843568     0.289956
                              0.467843     0.231088
                              0.259466     0.142433
                              0.143900     0.065674
                              0.079807     0.016134
                              0.044261     0.001687
   10.1 Ag    1  3d0         52.271002     0.000196
                             28.989500    -0.000963
                             16.077578    -0.002392
                              8.916626     0.050899
                              4.945161    -0.042644
                              2.742587    -0.313089
                              1.521039    -0.428387
                              0.843568    -0.080810
                              0.467843     0.315166
                              0.259466     0.392427
                              0.143900     0.236410
                              0.079807     0.074921
                              0.044261     0.008955
   11.1 Ag    1  3d2+        52.271002     0.000196
                             28.989500    -0.000963
                             16.077578    -0.002392
                              8.916626     0.050899
                              4.945161    -0.042644
                              2.742587    -0.313089
                              1.521039    -0.428387
                              0.843568    -0.080810
                              0.467843     0.315166
                              0.259466     0.392427
                              0.143900     0.236410
                              0.079807     0.074921
                              0.044261     0.008955
   12.1 Ag    1  3d0         52.271002     0.000287
                             28.989500    -0.001388
                             16.077578    -0.003056
                              8.916626     0.069653
                              4.945161    -0.032850
                              2.742587    -0.711418
                              1.521039    -0.262635
                              0.843568     0.863081
                              0.467843     0.459855
                              0.259466    -0.311796
