
 Primary working directories    : /global/cscratch1/sd/haihan
 Secondary working directories  : /global/cscratch1/sd/haihan
 Wavefunction directory         : /global/homes/h/haihan/wfu/
 Main file repository           : /global/cscratch1/sd/haihan/

 SHA1      : 19cd028119e0e09f93f0674bd8af7968d9b3eff6
 NAME      : 2015.1.36
 ARCHNAME  : linux/x86_64
 FC        : /opt/cray/pe/craype/2.5.14/bin/ftn
 BLASLIB   : -L/opt/intel/compilers_and_libraries_2018.1.163/linux/mkl/lib/intel64 -Wl,-_start-group -lmkl_intel_ilp64 -lmkl_intel_thread -lmkl_core -Wl,-_end-group -liomp5
 id        : lbl

 Nodes     nprocs
 nid00783    15
 Number of processes for MPI-2 version of Molpro:   nprocs(total)=   16   nprocs(compute)=   15   nprocs(helper)=    1

 Using customized tuning parameters: mindgm=7; mindgv=16; mindgc=1; mindgr=1; noblas=0; minvec=7
 default implementation of scratch files=sf  

 ***,Ag
 memory,512,m
 
 gthresh,twoint=1.e-12
 gprint,basis,orbitals
 
 angstrom
 geometry={
 1                                                                               ! Number of atoms
 Ag 0.0 0.0 0.0
 }
 
 basis={
 Including file /global/u2/h/haihan/Research/HZECP/Ag_basis/check_contractions_TZ/ecp.molpro
 Including file /global/u2/h/haihan/Research/HZECP/Ag_basis/check_contractions_TZ/basis.molpro
 }
 
 {rhf
  start,atden
  print,orbitals=2
  wf,19,1,1
  occ,4,1,1,1,1,1,1,0
  open,4.1
  sym,1,1,3,2,1
  orbital,4202.2
 }
 pop
 {multi
  start,4202.2
  occ,4,1,1,1,1,1,1,0
  closed,3,1,1,1,1,1,1,0
  wf,19,1,1;state,1
  restrict,1,1,4.1
  natorb,ci,print
  orbital,5202.2
 }
 {rhf,nitord=1,maxit=0
  start,5202.2
  wf,19,1,1
  occ,4,1,1,1,1,1,1,0
  open,4.1
 }
 {ci;maxit,100;core,1,1,1,0,1,0,0,0
  natorb,ci,print=15
 
 }

 Variables initialized (889), CPU time= 0.01 sec
 Commands  initialized (702), CPU time= 0.01 sec, 572 directives.
 Default parameters read. Elapsed time= 0.11 sec

 Checking input...
 Passed
1


                                         ***  PROGRAM SYSTEM MOLPRO  ***
                                       Copyright, TTI GmbH Stuttgart, 2015
                                    Version 2015.1 linked Dec 29 2018 15:55:43


 **********************************************************************************************************************************
 LABEL *   Ag                                                                            
  64 bit mpp version                                                                     DATE: 19-Dec-21          TIME: 14:30:21  
 **********************************************************************************************************************************

 SHA1:             19cd028119e0e09f93f0674bd8af7968d9b3eff6
 **********************************************************************************************************************************

 THRESHOLDS:

 ZERO    =  1.00D-12  ONEINT  =  1.00D-12  TWOINT  =  1.00D-12  PREFAC  =  1.00D-14  LOCALI  =  1.00D-09  EORDER  =  1.00D-04
 ENERGY  =  0.00D+00  ETEST   =  0.00D+00  EDENS   =  0.00D+00  THRDEDEF=  1.00D-06  GRADIENT=  1.00D-02  STEP    =  1.00D-03
 ORBITAL =  1.00D-05  CIVEC   =  1.00D-05  COEFF   =  1.00D-04  PRINTCI =  5.00D-02  PUNCHCI =  9.90D+01  OPTGRAD =  3.00D-04
 OPTENERG=  1.00D-06  OPTSTEP =  3.00D-04  THRGRAD =  1.00D-10  COMPRESS=  1.00D-11  VARMIN  =  1.00D-07  VARMAX  =  1.00D-03
 THRDOUB =  0.00D+00  THRDIV  =  1.00D-05  THRRED  =  1.00D-07  THRPSP  =  1.00D+00  THRDC   =  1.00D-10  THRCS   =  1.00D-10
 THRNRM  =  1.00D-08  THREQ   =  0.00D+00  THRDE   =  1.00D+00  THRREF  =  1.00D-05  SPARFAC =  1.00D+00  THRDLP  =  1.00D-07
 THRDIA  =  1.00D-10  THRDLS  =  1.00D-07  THRGPS  =  0.00D+00  THRKEX  =  0.00D+00  THRDIS  =  2.00D-01  THRVAR  =  1.00D-10
 THRLOC  =  1.00D-06  THRGAP  =  1.00D-06  THRLOCT = -1.00D+00  THRGAPT = -1.00D+00  THRORB  =  1.00D-06  THRMLTP =  0.00D+00
 THRCPQCI=  1.00D-10  KEXTA   =  0.00D+00  THRCOARS=  0.00D+00  SYMTOL  =  1.00D-06  GRADTOL =  1.00D-06  THROVL  =  1.00D-08
 THRORTH =  1.00D-08  GRID    =  1.00D-06  GRIDMAX =  1.00D-03  DTMAX   =  0.00D+00  THROCCDE=  1.00D-01  THROCCDE=  1.00D-01



 ZUNIT=ANG
 

Geometry recognized as XYZ


 Variable memory set to  512000000 words,  buffer space   230000 words

 SETTING BASIS          =    USERDEF


 Recomputing integrals since basis changed


 Using spherical harmonics



 PROGRAM * SEWARD (Integral evaluation for generally contracted gaussian basis sets)     Author: Roland Lindh, 1990

 Geometry written to block  1 of record 700

 Orientation using atomic masses  
 Molecule type: Atom
 Symmetry elements: X,Y,Z
 Rotational constants:       0.0000000      0.0000000      0.0000000 GHz  (calculated with average atomic masses)

 Point group  D2h 



 ATOMIC COORDINATES

 NR  ATOM    CHARGE       X              Y              Z

   1  AG     19.00    0.000000000    0.000000000    0.000000000


          AG  CORE POTENTIAL

          f POTENTIAL

 POWERS             1              3              2              2
 EXPONENTIALS   11.11700       11.30707       10.88747       6.050896    
 COEFFICIENTS   19.00000       211.2229      -111.3857      -10.04923    

          s - f POTENTIAL

 POWERS             2              2
 EXPONENTIALS   12.57068       7.075228    
 COEFFICIENTS   281.0044       40.24656    

          p - f POTENTIAL

 POWERS             2              2
 EXPONENTIALS   11.40284       6.504915    
 COEFFICIENTS   210.9924       30.82987    

          d - f POTENTIAL

 POWERS             2              2
 EXPONENTIALS   10.79268       4.485396    
 COEFFICIENTS   101.0336       14.81364    


 BASIS DATA

   Nr Sym  Nuc  Type         Exponents   Contraction coefficients

    1.1 Ag    1  1s         252.240986     0.000187   -0.000008   -0.000099   -0.001900
    2.1 Ag                  120.263143    -0.001203    0.000101    0.000652    0.009674
    3.1 Ag                   57.338912     0.006572   -0.000983   -0.003771   -0.032370
    4.1 Ag                   27.337975    -0.049135    0.010502    0.030950    0.116305
                             13.034166     0.324368   -0.079895   -0.221657   -0.510709
                              6.214413    -0.830173    0.222996    0.613121    1.359180
                              2.962900     0.040602   -0.020638    0.057692   -0.446341
                              1.412648     0.867596   -0.290413   -1.459411   -3.589505
                              0.673520     0.402042   -0.217113   -0.130031    4.806964
                              0.321120     0.041210   -0.060146    1.562245   -0.846586
                              0.153103    -0.001441    0.281317    0.425393   -2.019864
                              0.072996     0.001527    0.481834   -0.568215    0.548278
                              0.034803    -0.000235    0.420529   -0.494792    0.652319
    5.1 Ag    1  3d0         52.271002    -0.000103
                             28.989500     0.000467
                             16.077578     0.002803
                              8.916626    -0.039328
                              4.945161     0.031263
                              2.742587     0.184471
                              1.521039     0.291465
                              0.843568     0.289956
                              0.467843     0.231088
                              0.259466     0.142433
                              0.143900     0.065674
                              0.079807     0.016134
                              0.044261     0.001687
    6.1 Ag    1  3d2+        52.271002    -0.000103
                             28.989500     0.000467
                             16.077578     0.002803
                              8.916626    -0.039328
                              4.945161     0.031263
                              2.742587     0.184471
                              1.521039     0.291465
                              0.843568     0.289956
                              0.467843     0.231088
                              0.259466     0.142433
                              0.143900     0.065674
                              0.079807     0.016134
                              0.044261     0.001687
    7.1 Ag    1  3d0         52.271002     0.000196
                             28.989500    -0.000963
                             16.077578    -0.002392
                              8.916626     0.050899
                              4.945161    -0.042644
                              2.742587    -0.313089
                              1.521039    -0.428387
                              0.843568    -0.080810
                              0.467843     0.315166
                              0.259466     0.392427
                              0.143900     0.236410
                              0.079807     0.074921
                              0.044261     0.008955
    8.1 Ag    1  3d2+        52.271002     0.000196
                             28.989500    -0.000963
                             16.077578    -0.002392
                              8.916626     0.050899
                              4.945161    -0.042644
                              2.742587    -0.313089
                              1.521039    -0.428387
                              0.843568    -0.080810
                              0.467843     0.315166
                              0.259466     0.392427
                              0.143900     0.236410
                              0.079807     0.074921
                              0.044261     0.008955
    9.1 Ag    1  3d0         52.271002     0.000287
                             28.989500    -0.001388
                             16.077578    -0.003056
                              8.916626     0.069653
                              4.945161    -0.032850
                              2.742587    -0.711418
                              1.521039    -0.262635
                              0.843568     0.863081
                              0.467843     0.459855
                              0.259466    -0.311796
                              0.143900    -0.460355
                              0.079807    -0.179197
                              0.044261    -0.024419
   10.1 Ag    1  3d2+        52.271002     0.000287
                             28.989500    -0.001388
                             16.077578    -0.003056
                              8.916626     0.069653
                              4.945161    -0.032850
                              2.742587    -0.711418
                              1.521039    -0.262635
                              0.843568     0.863081
                              0.467843     0.459855
                              0.259466    -0.311796
                              0.143900    -0.460355
                              0.079807    -0.179197
                              0.044261    -0.024419
    1.2 B3u   1  2px         50.711510     0.000473   -0.000057   -0.000068   -0.003119
    2.2 B3u                  26.995067    -0.007776    0.003143    0.004824    0.021691
    3.2 B3u                  14.370182     0.079067   -0.040893   -0.064390   -0.130453
    4.2 B3u                   7.649625    -0.276376    0.155441    0.243719    0.395950
                              4.072096    -0.002600    0.005696    0.085308    0.275943
                              2.167683     0.425926   -0.317361   -0.884021   -2.505867
                              1.153915     0.460864   -0.378459   -0.394819    1.926260
                              0.614259     0.236555    0.033325    1.072408    1.292839
                              0.326986     0.047504    0.456558    0.628411   -1.827177
                              0.174063     0.007012    0.469051   -0.479278   -0.371120
                              0.092658    -0.000383    0.186370   -0.548380    0.698860
                              0.049325     0.000641    0.030594   -0.143865    0.354861
                              0.026257    -0.000147    0.000776   -0.006800    0.010663
    1.3 B2u   1  2py         50.711510     0.000473   -0.000057   -0.000068   -0.003119
    2.3 B2u                  26.995067    -0.007776    0.003143    0.004824    0.021691
    3.3 B2u                  14.370182     0.079067   -0.040893   -0.064390   -0.130453
    4.3 B2u                   7.649625    -0.276376    0.155441    0.243719    0.395950
                              4.072096    -0.002600    0.005696    0.085308    0.275943
                              2.167683     0.425926   -0.317361   -0.884021   -2.505867
                              1.153915     0.460864   -0.378459   -0.394819    1.926260
                              0.614259     0.236555    0.033325    1.072408    1.292839
                              0.326986     0.047504    0.456558    0.628411   -1.827177
                              0.174063     0.007012    0.469051   -0.479278   -0.371120
                              0.092658    -0.000383    0.186370   -0.548380    0.698860
                              0.049325     0.000641    0.030594   -0.143865    0.354861
                              0.026257    -0.000147    0.000776   -0.006800    0.010663
    1.4 B1g   1  3d2-        52.271002    -0.000103    0.000196    0.000287
    2.4 B1g                  28.989500     0.000467   -0.000963   -0.001388
    3.4 B1g                  16.077578     0.002803   -0.002392   -0.003056
                              8.916626    -0.039328    0.050899    0.069653
                              4.945161     0.031263   -0.042644   -0.032850
                              2.742587     0.184471   -0.313089   -0.711418
                              1.521039     0.291465   -0.428387   -0.262635
                              0.843568     0.289956   -0.080810    0.863081
                              0.467843     0.231088    0.315166    0.459855
                              0.259466     0.142433    0.392427   -0.311796
                              0.143900     0.065674    0.236410   -0.460355
                              0.079807     0.016134    0.074921   -0.179197
                              0.044261     0.001687    0.008955   -0.024419
    1.5 B1u   1  2pz         50.711510     0.000473   -0.000057   -0.000068   -0.003119
    2.5 B1u                  26.995067    -0.007776    0.003143    0.004824    0.021691
    3.5 B1u                  14.370182     0.079067   -0.040893   -0.064390   -0.130453
    4.5 B1u                   7.649625    -0.276376    0.155441    0.243719    0.395950
                              4.072096    -0.002600    0.005696    0.085308    0.275943
                              2.167683     0.425926   -0.317361   -0.884021   -2.505867
                              1.153915     0.460864   -0.378459   -0.394819    1.926260
                              0.614259     0.236555    0.033325    1.072408    1.292839
                              0.326986     0.047504    0.456558    0.628411   -1.827177
                              0.174063     0.007012    0.469051   -0.479278   -0.371120
                              0.092658    -0.000383    0.186370   -0.548380    0.698860
                              0.049325     0.000641    0.030594   -0.143865    0.354861
                              0.026257    -0.000147    0.000776   -0.006800    0.010663
    1.6 B2g   1  3d1+        52.271002    -0.000103    0.000196    0.000287
    2.6 B2g                  28.989500     0.000467   -0.000963   -0.001388
    3.6 B2g                  16.077578     0.002803   -0.002392   -0.003056
                              8.916626    -0.039328    0.050899    0.069653
                              4.945161     0.031263   -0.042644   -0.032850
                              2.742587     0.184471   -0.313089   -0.711418
                              1.521039     0.291465   -0.428387   -0.262635
                              0.843568     0.289956   -0.080810    0.863081
                              0.467843     0.231088    0.315166    0.459855
                              0.259466     0.142433    0.392427   -0.311796
                              0.143900     0.065674    0.236410   -0.460355
                              0.079807     0.016134    0.074921   -0.179197
                              0.044261     0.001687    0.008955   -0.024419
    1.7 B3g   1  3d1-        52.271002    -0.000103    0.000196    0.000287
    2.7 B3g                  28.989500     0.000467   -0.000963   -0.001388
    3.7 B3g                  16.077578     0.002803   -0.002392   -0.003056
                              8.916626    -0.039328    0.050899    0.069653
                              4.945161     0.031263   -0.042644   -0.032850
                              2.742587     0.184471   -0.313089   -0.711418
                              1.521039     0.291465   -0.428387   -0.262635
                              0.843568     0.289956   -0.080810    0.863081
                              0.467843     0.231088    0.315166    0.459855
                              0.259466     0.142433    0.392427   -0.311796
                              0.143900     0.065674    0.236410   -0.460355
                              0.079807     0.016134    0.074921   -0.179197
                              0.044261     0.001687    0.008955   -0.024419

 NUCLEAR CHARGE:                   19
 NUMBER OF PRIMITIVE AOS:         130
 NUMBER OF SYMMETRY AOS:          117
 NUMBER OF CONTRACTIONS:           31   (  10Ag  +   4B3u +   4B2u +   3B1g +   4B1u +   3B2g +   3B3g +   0Au  )
 NUMBER OF CORE ORBITALS:           4   (   1Ag  +   1B3u +   1B2u +   0B1g +   1B1u +   0B2g +   0B3g +   0Au  )
 NUMBER OF VALENCE ORBITALS:        6   (   3Ag  +   0B3u +   0B2u +   1B1g +   0B1u +   1B2g +   1B3g +   0Au  )


 NUCLEAR REPULSION ENERGY    0.00000000

 EXTRA SYMMETRY OF AOS IN SYMMETRY 1:   1 1 1 1 2 3 2 3 2 3

 Eigenvalues of metric

         1 0.977E+00 0.987E+00 0.987E+00 0.100E+01 0.100E+01 0.100E+01 0.100E+01 0.101E+01
         2 0.100E+01 0.100E+01 0.100E+01 0.100E+01
         3 0.100E+01 0.100E+01 0.100E+01 0.100E+01
         4 0.987E+00 0.100E+01 0.101E+01
         5 0.100E+01 0.100E+01 0.100E+01 0.100E+01
         6 0.987E+00 0.100E+01 0.101E+01
         7 0.987E+00 0.100E+01 0.101E+01


 Contracted 2-electron integrals neglected if value below      1.0D-12
 AO integral compression algorithm  1   Integral accuracy      1.0D-12

     3.932 MB (compressed) written to integral file (100.0%)

     Node minimum: 0.262 MB, node maximum: 0.262 MB


 NUMBER OF SORTED TWO-ELECTRON INTEGRALS:        660.     BUFFER LENGTH:  32768
 NUMBER OF SEGMENTS:   1  SEGMENT LENGTH:        660      RECORD LENGTH: 524288

 Memory used in sort:       0.56 MW

 SORT1 READ       49837. AND WROTE         603. INTEGRALS IN      1 RECORDS. CPU TIME:     0.01 SEC, REAL TIME:     0.02 SEC
 SORT2 READ       16891. AND WROTE       18958. INTEGRALS IN     15 RECORDS. CPU TIME:     0.00 SEC, REAL TIME:     0.02 SEC

 Node minimum:          81.  Node maximum:        2112. integrals

 OPERATOR DM      FOR CENTER  0  COORDINATES:    0.000000    0.000000    0.000000


 **********************************************************************************************************************************
 DATASETS  * FILE   NREC   LENGTH (MB)   RECORD NAMES
              1      19       19.89       500      610      700      900      950      970     1000      129      960     1100   
                                          VAR    BASINP    GEOM    SYMINP    ZMAT    AOBASIS   BASIS     P2S    ABASIS      S 
                                         1400     1410     1420     1200     1210     1080     1600     1650     1700   
                                           T        V       ECP      H0       H01     AOSYM     SMH    MOLCAS    OPER   

 PROGRAMS   *        TOTAL       INT
 CPU TIMES  *         0.88      0.53
 REAL TIME  *         1.69 SEC
 DISK USED  *        63.33 MB      
 GA USED    *         0.00 MB       (max)       0.00 MB       (current)
 **********************************************************************************************************************************


 PROGRAM * RHF-SCF (OPEN SHELL)       Authors: W. Meyer, H.-J. Werner


 NUMBER OF ELECTRONS:      10+    9-    SPACE SYMMETRY=1    SPIN SYMMETRY: Doublet 
 CONVERGENCE THRESHOLDS:    1.00E-05 (Density)    1.00E-07 (Energy)
 MAX. NUMBER OF ITERATIONS:       60
 INTERPOLATION TYPE:            DIIS
 INTERPOLATION STEPS:              2 (START)      1 (STEP)
 LEVEL SHIFTS:                 -0.60 (CLOSED) -0.30 (OPEN) 


 Singly occupied orbitals:      4.1
 
 Extra symmetries of mos in symmetry 1:   1   3   2   1

   Atom=AG basis=cc-pVTZ-PP        lmin=0  lmax=2

 Orbital guess generated from atomic densities. Full valence occupancy:    4   1   1   1   1   1   1   0


 Molecular orbital dump at record        4202.2

 ITERATION    DDIFF          GRAD             ENERGY        2-EL.EN.            DIPOLE MOMENTS         DIIS   ORB.
    1      0.000D+00      0.000D+00      -146.04050957    227.208343    0.00000    0.00000    0.00000    0    start
    2      0.000D+00      0.241D-01      -146.05128322    230.444742    0.00000    0.00000    0.00000    1    diag,B
    3      0.109D-01      0.100D-01      -146.05278821    229.813691    0.00000    0.00000    0.00000    2    diag,B
    4      0.234D-02      0.934D-03      -146.05289144    229.869724    0.00000    0.00000    0.00000    3    diag,B
    5      0.962D-03      0.243D-03      -146.05291091    229.895407    0.00000    0.00000    0.00000    4    diag,B
    6      0.566D-03      0.541D-04      -146.05291156    229.898133    0.00000    0.00000    0.00000    5    diag,B
    7      0.123D-03      0.393D-05      -146.05291156    229.898505    0.00000    0.00000    0.00000    6    fixocc
    8      0.285D-05      0.533D-06      -146.05291156    229.898475    0.00000    0.00000    0.00000    0    orth

 Final alpha occupancy:   4   1   1   1   1   1   1
 Final beta  occupancy:   3   1   1   1   1   1   1

 !RHF STATE 1.1 Energy               -146.052911556782
 Nuclear energy                         0.00000000
 One-electron energy                 -261.00214882
 Two-electron energy                  114.94923727
 Virial quotient                       -2.57957092
 !RHF STATE 1.1 Dipole moment           0.00000000     0.00000000     0.00000000
 Dipole moment /Debye                   0.00000000     0.00000000     0.00000000

 ELECTRON ORBITALS
 =================


   Orb  Occ    Energy  Couls-En    Coefficients

                                   1 1s      1 1s      1 1s      1 1s      1 3d0     1 3d2+    1 3d0     1 3d2+    1 3d0     1 3d2+ 


   1.1   2    -4.3971  -22.3149  1.000000  0.000000  0.000000  0.000000 -0.000000 -0.000000  0.000000  0.000000 -0.000000  0.000000

   2.1   2    -0.5112  -12.7819 -0.000000 -0.000000  0.000000 -0.000000 -0.002702  0.999996 -0.000000  0.000000 -0.000000  0.000000

   3.1   2    -0.5112  -12.7819  0.000000  0.000000 -0.000000  0.000000  0.999996  0.002702  0.000000  0.000000  0.000000  0.000000

   4.1   +    -0.2371   -6.4664 -0.000000  1.000000 -0.000001  0.000001 -0.000000 -0.000000 -0.000000 -0.000000  0.000000  0.000000

   5.1   0     0.4267   -5.8276 -0.000001  0.022944  0.935176 -0.354926  0.000000 -0.000000  0.000000 -0.000000 -0.000000  0.000000

   6.1   0     0.7031   -5.9015 -0.000000  0.000000 -0.000000 -0.000000  0.000004  0.011840  0.000306  0.894102 -0.000153 -0.448019

                                   1 2px     1 2px     1 2px     1 2px  

   1.2   2    -2.8268  -18.8651  1.000000  0.000000 -0.000000 -0.000000

   2.2   0     0.1292   -5.4867 -0.000000  0.850466 -0.495412  0.176847

   3.2   0     0.9603   -6.0089 -0.000000  0.516047  0.720579 -0.463100

                                   1 2py     1 2py     1 2py     1 2py  

   1.3   2    -2.8268  -18.8651  1.000000  0.000000 -0.000000 -0.000000

   2.3   0     0.1292   -5.4867 -0.000000  0.850466 -0.495412  0.176847

   3.3   0     0.9603   -6.0089 -0.000000  0.516047  0.720579 -0.463100

                                   1 3d2-    1 3d2-    1 3d2- 

   1.4   2    -0.5112  -12.7819  1.000000  0.000000  0.000000

   2.4   0     0.7031   -5.9015  0.011840  0.894102 -0.448019

   3.4   0     3.5433   -5.2067 -0.004167  0.447947  0.894070

                                   1 2pz     1 2pz     1 2pz     1 2pz  

   1.5   2    -2.8268  -18.8651  1.000000  0.000000 -0.000000 -0.000000

   2.5   0     0.1292   -5.4867 -0.000000  0.850466 -0.495412  0.176847

   3.5   0     0.9603   -6.0089 -0.000000  0.516047  0.720579 -0.463100

                                   1 3d1+    1 3d1+    1 3d1+ 

   1.6   2    -0.5112  -12.7819  1.000000  0.000000  0.000000

   2.6   0     0.7031   -5.9015  0.011840  0.894102 -0.448019

   3.6   0     3.5433   -5.2067 -0.004167  0.447947  0.894070

                                   1 3d1-    1 3d1-    1 3d1- 

   1.7   2    -0.5112  -12.7819  1.000000  0.000000  0.000000

   2.7   0     0.7031   -5.9015  0.011840  0.894102 -0.448019

   3.7   0     3.5433   -5.2067 -0.004167  0.447947  0.894070

 HOMO      4.1    -0.237147 =      -6.4531eV
 LUMO      2.2     0.129210 =       3.5160eV
 LUMO-HOMO         0.366357 =       9.9691eV


 **********************************************************************************************************************************
 DATASETS  * FILE   NREC   LENGTH (MB)   RECORD NAMES
              1      19       19.89       500      610      700      900      950      970     1000      129      960     1100   
                                          VAR    BASINP    GEOM    SYMINP    ZMAT    AOBASIS   BASIS     P2S    ABASIS      S 
                                         1400     1410     1420     1200     1210     1080     1600     1650     1700   
                                           T        V       ECP      H0       H01     AOSYM     SMH    MOLCAS    OPER   

              2       4        2.76       700     1000      520     4202   
                                         GEOM     BASIS   MCVARS     RHF  

 PROGRAMS   *        TOTAL       RHF       INT
 CPU TIMES  *         1.15      0.27      0.53
 REAL TIME  *         2.06 SEC
 DISK USED  *       404.13 MB      
 SF USED    *         0.00 MB      
 GA USED    *         0.00 MB       (max)       0.00 MB       (current)
 **********************************************************************************************************************************


 PROGRAM * POP (Mulliken population analysis)

 
 Density matrix read from record         4202.2  Type=RHF/CHARGE (state 1.1)
 
 Population analysis by basis function type

 Unique atom        s        p        d        f        g    Total    Charge
   1  AG      3.00000  6.00000 10.00000  0.00000  0.00000 19.00000  + 0.00000


 **********************************************************************************************************************************
 DATASETS  * FILE   NREC   LENGTH (MB)   RECORD NAMES
              1      19       19.89       500      610      700      900      950      970     1000      129      960     1100   
                                          VAR    BASINP    GEOM    SYMINP    ZMAT    AOBASIS   BASIS     P2S    ABASIS      S 
                                         1400     1410     1420     1200     1210     1080     1600     1650     1700   
                                           T        V       ECP      H0       H01     AOSYM     SMH    MOLCAS    OPER   

              2       4        2.76       700     1000      520     4202   
                                         GEOM     BASIS   MCVARS     RHF  

 PROGRAMS   *        TOTAL       POP       RHF       INT
 CPU TIMES  *         1.15      0.00      0.27      0.53
 REAL TIME  *         2.07 SEC
 DISK USED  *       404.13 MB      
 SF USED    *         0.00 MB      
 GA USED    *         0.00 MB       (max)       0.00 MB       (current)
 **********************************************************************************************************************************


 PROGRAM * MULTI (Direct Multiconfiguration SCF)       Authors: P.J. Knowles, H.-J. Werner (1984)     S.T. Elbert (1988)


 Number of closed-shell orbitals:   9 (   3   1   1   1   1   1   1   0 )
 Number of active  orbitals:        1 (   1   0   0   0   0   0   0   0 )
 Number of external orbitals:      21 (   6   3   3   2   3   2   2   0 )

 State symmetry 1

 Orbital occupancy restrictions for symmetry 1
  1      1       2                               

 Number of electrons:     1    Spin symmetry=Doublet   Space symmetry=1
 Number of states:        1
 Number of CSFs:          1
 
 Maximum number of shells:             1
 Maximum number of spin couplings:     1

 Storage for configuration lists       2, coupling coefficients      1, address lists      7

 Molecular orbitals read from record     4202.2  Type=RHF/CANONICAL (state 1.1)
 *** IN SYMMETRY 1 ORBITAL  2 SYMMETRY CONTAMINATION OF 0.269D-02 HAS BEEN REMOVED
 *** IN SYMMETRY 1 ORBITAL  3 SYMMETRY CONTAMINATION OF 0.269D-02 HAS BEEN REMOVED

 EXTRA SYMMETRY OF MOS IN SYMMETRY 1:   1 3 2 1 1 3 2 1 3 2

 Wavefunction dump at record             5202.2

 Convergence thresholds  0.10E-01 (gradient)  0.10E-05 (energy)  0.10E-02 (step length)

 Number of orbital rotations:       42   (     3 Core/Active     33 Core/Virtual   0 Active/Active      6 Active/Virtual)
 Total number of variables:         43


 ITER. MIC  NCI  NEG     ENERGY(VAR)     ENERGY(PROJ)   ENERGY CHANGE     GRAD(0)  GRAD(ORB)   GRAD(CI)     STEP       TIME

   1   23    4    0    -146.05291156    -146.05291156   -0.00000000    0.00000246 0.00000000 0.00000000  0.18D-05      0.04

 ** WVFN ****  CONVERGENCE REACHED, FINAL GRADIENT:  0.76D-12


 First order charge density matrix for state 1.1 saved on record  5202.2 (density set 1)

 Results for state 1.1
 =====================

 !MCSCF STATE 1.1 Energy             -146.052911556784
 Nuclear energy                         0.00000000
 Kinetic energy                        56.61907134
 One electron energy                 -261.00214877
 Two electron energy                  114.94923721
 Virial ratio                           3.57957095

 !MCSCF STATE 1.1 Dipole moment         0.00000000     0.00000000     0.00000000
 Dipole moment /Debye                   0.00000000     0.00000000     0.00000000


 NATURAL ORBITALS
 ================

   Orb     Occ        Energy       Coefficients

                                   1 1s      1 1s      1 1s      1 1s      1 3d0     1 3d2+    1 3d0     1 3d2+    1 3d0     1 3d2+ 


   1.1  2.00000    -4.397068     1.000000  0.000000  0.000000  0.000000  0.000000  0.000000  0.000000  0.000000  0.000000  0.000000

   2.1  2.00000    -0.511160     0.000000  0.000000  0.000000  0.000000  0.000000  1.000000  0.000000  0.000000  0.000000 -0.000000

   3.1  2.00000    -0.511160     0.000000  0.000000  0.000000  0.000000  1.000000  0.000000  0.000000  0.000000 -0.000000  0.000000

   4.1  1.00000    -0.105774    -0.000000  1.000000  0.000000  0.000000  0.000000  0.000000  0.000000  0.000000  0.000000  0.000000

                                   1 2px     1 2px     1 2px     1 2px  

   1.2  2.00000    -2.826798     1.000000 -0.000000 -0.000000 -0.000000

                                   1 2py     1 2py     1 2py     1 2py  

   1.3  2.00000    -2.826798     1.000000 -0.000000 -0.000000 -0.000000

                                   1 3d2-    1 3d2-    1 3d2- 

   1.4  2.00000    -0.511160     1.000000  0.000000 -0.000000

                                   1 2pz     1 2pz     1 2pz     1 2pz  

   1.5  2.00000    -2.826798     1.000000 -0.000000 -0.000000 -0.000000

                                   1 3d1+    1 3d1+    1 3d1+ 

   1.6  2.00000    -0.511160     1.000000  0.000000 -0.000000

                                   1 3d1-    1 3d1-    1 3d1- 

   1.7  2.00000    -0.511160     1.000000  0.000000 -0.000000
 

 EXTRA SYMMETRY OF MOS IN SYMMETRY 1:   1 3 2 1 1 3 2 1 2 3

 Natural orbital dump at molpro section  5202.2    (Orbital set 2)


 CI vector
 =========

 /             1.0000000


 **********************************************************************************************************************************
 DATASETS  * FILE   NREC   LENGTH (MB)   RECORD NAMES
              1      20       19.99       500      610      700      900      950      970     1000      129      960     1100   
                                          VAR    BASINP    GEOM    SYMINP    ZMAT    AOBASIS   BASIS     P2S    ABASIS      S 
                                         1400     1410     1420     1200     1210     1080     1600     1650     1700     1380   
                                           T        V       ECP      H0       H01     AOSYM     SMH    MOLCAS    OPER     JKOP   

              2       5        5.25       700     1000      520     4202     5202   
                                         GEOM     BASIS   MCVARS     RHF     MCSCF   

 PROGRAMS   *        TOTAL     MULTI       POP       RHF       INT
 CPU TIMES  *         1.21      0.06      0.00      0.27      0.53
 REAL TIME  *         2.21 SEC
 DISK USED  *       404.13 MB      
 SF USED    *         3.37 MB      
 GA USED    *         0.00 MB       (max)       0.00 MB       (current)
 **********************************************************************************************************************************


 PROGRAM * RHF-SCF (OPEN SHELL)       Authors: W. Meyer, H.-J. Werner


 NUMBER OF ELECTRONS:      10+    9-    SPACE SYMMETRY=1    SPIN SYMMETRY: Doublet 
 CONVERGENCE THRESHOLDS:    1.00E-05 (Density)    1.00E-07 (Energy)
 MAX. NUMBER OF ITERATIONS:        0
 INTERPOLATION TYPE:            DIIS
 INTERPOLATION STEPS:              2 (START)      1 (STEP)
 LEVEL SHIFTS:                 -0.60 (CLOSED) -0.30 (OPEN) 


 Singly occupied orbitals:      4.1
 Molecular orbitals read from record     5202.2  Type=MCSCF/NATURAL (state 1.1)

 Molecular orbital dump at record        2101.2

 ITERATION    DDIFF          GRAD             ENERGY        2-EL.EN.            DIPOLE MOMENTS         DIIS   ORB.
    1      0.000D+00      0.000D+00      -146.05291156    229.898474    0.00000    0.00000    0.00000    0    start

 Final alpha occupancy:   4   1   1   1   1   1   1
 Final beta  occupancy:   3   1   1   1   1   1   1

 !RHF STATE 1.1 Energy               -146.052911556784
 Nuclear energy                         0.00000000
 One-electron energy                 -261.00214877
 Two-electron energy                  114.94923721
 Virial quotient                       -2.57957095
 !RHF STATE 1.1 Dipole moment           0.00000000     0.00000000     0.00000000
 Dipole moment /Debye                   0.00000000     0.00000000     0.00000000

 ELECTRON ORBITALS
 =================


   Orb  Occ    Energy  Couls-En    Coefficients

                                   1 1s      1 1s      1 1s      1 1s      1 3d0     1 3d2+    1 3d0     1 3d2+    1 3d0     1 3d2+ 


   1.1   2    -4.3971  -22.3149  1.000000  0.000000  0.000000  0.000000  0.000000  0.000000  0.000000  0.000000  0.000000  0.000000

   2.1   2    -0.5112  -12.7819  0.000000  0.000000  0.000000  0.000000  0.000000  1.000000  0.000000  0.000000  0.000000 -0.000000

   3.1   2    -0.5112  -12.7819  0.000000  0.000000  0.000000  0.000000  1.000000  0.000000  0.000000  0.000000 -0.000000  0.000000

   4.1   +    -0.1058   -6.3350 -0.000000  1.000000  0.000000  0.000000  0.000000  0.000000  0.000000  0.000000  0.000000  0.000000

                                   1 2px     1 2px     1 2px     1 2px  

   1.2   2    -2.8268  -18.8651  1.000000 -0.000000 -0.000000 -0.000000

                                   1 2py     1 2py     1 2py     1 2py  

   1.3   2    -2.8268  -18.8651  1.000000 -0.000000 -0.000000 -0.000000

                                   1 3d2-    1 3d2-    1 3d2- 

   1.4   2    -0.5112  -12.7819  1.000000  0.000000 -0.000000

                                   1 2pz     1 2pz     1 2pz     1 2pz  

   1.5   2    -2.8268  -18.8651  1.000000 -0.000000 -0.000000 -0.000000

                                   1 3d1+    1 3d1+    1 3d1+ 

   1.6   2    -0.5112  -12.7819  1.000000  0.000000 -0.000000

                                   1 3d1-    1 3d1-    1 3d1- 

   1.7   2    -0.5112  -12.7819  1.000000  0.000000 -0.000000

 HOMO      4.1    -0.105774 =      -2.8783eV
 LUMO      2.2     0.158524 =       4.3137eV
 LUMO-HOMO         0.264298 =       7.1919eV


 **********************************************************************************************************************************
 DATASETS  * FILE   NREC   LENGTH (MB)   RECORD NAMES
              1      20       19.99       500      610      700      900      950      970     1000      129      960     1100   
                                          VAR    BASINP    GEOM    SYMINP    ZMAT    AOBASIS   BASIS     P2S    ABASIS      S 
                                         1400     1410     1420     1200     1210     1080     1600     1650     1700     1380   
                                           T        V       ECP      H0       H01     AOSYM     SMH    MOLCAS    OPER     JKOP   

              2       6        7.75       700     1000      520     4202     5202     2101   
                                         GEOM     BASIS   MCVARS     RHF     MCSCF     RHF  

 PROGRAMS   *        TOTAL       RHF     MULTI       POP       RHF       INT
 CPU TIMES  *         1.23      0.02      0.06      0.00      0.27      0.53
 REAL TIME  *         2.27 SEC
 DISK USED  *       404.13 MB      
 SF USED    *         3.37 MB      
 GA USED    *         0.00 MB       (max)       0.00 MB       (current)
 **********************************************************************************************************************************


 PROGRAM * CI (Multireference internally contracted CI)     Authors: H.-J. Werner, P.J. Knowles, 1987


 Convergence thresholds:  THRVAR = 1.00D-08  THRDEN = 1.00D-06

 Number of optimized states:  1  Roots:   1
 Number of reference states:  1  Roots:   1

 Reference symmetry:                   1   Doublet 
 Number of electrons:                 19
 Maximum number of shells:             3
 Maximum number of spin couplings:     5

 Reference space:        1 conf        1 CSFs
 N elec internal:        6 conf        6 CSFs
 N-1 el internal:       21 conf       36 CSFs
 N-2 el internal:       20 conf       70 CSFs

 Number of electrons in valence space:                     11
 Maximum number of open shell orbitals in reference space:  1
 Maximum number of open shell orbitals in internal spaces:  5


 Number of core orbitals:           4 (   1   1   1   0   1   0   0 )
 Number of closed-shell orbitals:   5 (   2   0   0   1   0   1   1 )
 Number of active  orbitals:        1 (   1   0   0   0   0   0   0 )
 Number of external orbitals:      21 (   6   3   3   2   3   2   2 )

 Molecular orbitals read from record     2101.2  Type=RHF/CANONICAL (state 1.1)

 Coulomb and exchange operators available. No transformation done.

 Number of p-space configurations:   1

 Reference wavefunction optimized for reference space (refopt=1)

 State     Reference Energy 
   1        -146.05291156

 Number of blocks in overlap matrix:    35   Smallest eigenvalue:  0.10D+01
 Number of N-2 electron functions:      35
 Number of N-1 electron functions:      36

 Number of internal configurations:                    3
 Number of singly external configurations:           120
 Number of doubly external configurations:          1065
 Total number of contracted configurations:         1188
 Total number of uncontracted configurations:       2100

 Diagonal Coupling coefficients finished.               Storage:    3167 words, CPU-Time:      0.01 seconds.
 Energy denominators for pairs finished in 1 passes.    Storage:    2787 words, CPU-time:      0.00 seconds.

  ITER. STATE  ROOT     SQ.NORM     CORR.ENERGY   TOTAL ENERGY   ENERGY CHANGE       DEN1      VAR(S)    VAR(P)      TIME
    1     1     1     1.00000000     0.00000000  -146.05291156    -0.00000000    -0.12563679  0.13D-02  0.42D-01     0.05
    2     1     1     1.03059642    -0.10518151  -146.15809307    -0.10518151    -0.00368862  0.17D-02  0.79D-03     0.06
    3     1     1     1.03664000    -0.10874013  -146.16165169    -0.00355862    -0.00021038  0.63D-04  0.65D-04     0.06
    4     1     1     1.03858093    -0.10895326  -146.16186481    -0.00021313    -0.00001023  0.28D-05  0.28D-05     0.07
    5     1     1     1.03879679    -0.10896507  -146.16187663    -0.00001181    -0.00000042  0.71D-07  0.12D-06     0.08
    6     1     1     1.03878731    -0.10896554  -146.16187709    -0.00000047    -0.00000001  0.22D-08  0.48D-08     0.09


 =====================================
 Analysis of CPU times by interactions
 =====================================

       I      S      P

 I  11.1%
 S  11.1%  11.1%
 P   0.0%   0.0%   0.0%

 Initialization:  55.6%
 Other:           11.1%

 Total CPU:        0.1 seconds
 =====================================



 Reference coefficients greater than 0.0500000
 =============================================
 22/222           0.9811529



 RESULTS FOR STATE 1.1
 =====================

 Coefficient of reference function:   C(0) = 0.98115288 (fixed)   0.98115288 (relaxed)

 Energy contributions of configuration classes

 CLASS          SQ.NORM        ECORR1        ECORR2
 +++++++++++++++++++++++++++++++++++++++++++++++++++
 Internals    0.00000000   -0.00000000   -0.00000000
 Singles      0.00293828   -0.00158262   -0.00183164
 Pairs        0.03584903   -0.10738292   -0.10713389
 Total        1.03878731   -0.10896554   -0.10896554
 +++++++++++++++++++++++++++++++++++++++++++++++++++


 Reference energy                    -146.05291156
 Nuclear energy                         0.00000000
 Kinetic energy                        56.44202373
 One electron energy                 -260.47730451
 Two electron energy                  114.31542741
 Virial quotient                       -2.58959313
 Correlation energy                    -0.10896554
 !CI(SD) STATE 1.1 Energy            -146.161877093493

 Properties without orbital relaxation:

 !CI(SD) STATE 1.1 Dipole moment        0.00000000     0.00000000     0.00000000
 Dipole moment /Debye                   0.00000000     0.00000000     0.00000000

 Cluster corrected energies          -146.16610357 (Davidson, fixed reference)
 Cluster corrected energies          -146.16610357 (Davidson, relaxed reference)

 Cluster corrected energies          -146.16533797 (Pople, fixed reference)
 Cluster corrected energies          -146.16533797 (Pople, relaxed reference)


 Natural orbitals
 ================

   Orb     Occ           Coefficients

                         1 1s      1 1s      1 1s      1 1s      1 3d0     1 3d2+    1 3d0     1 3d2+    1 3d0     1 3d2+ 


   1.1    2.0000000    1.000000  0.000000  0.000000  0.000000  0.000000  0.000000  0.000000  0.000000  0.000000  0.000000

   2.1    1.9879613    0.000000 -0.000000 -0.000000  0.000000 -0.000000  1.000077 -0.000000  0.008128  0.000000 -0.007084

   3.1    1.9879612   -0.000000  0.000002  0.000001 -0.000000  1.000077  0.000000  0.008128  0.000000 -0.007084 -0.000000

   4.1    0.9898242   -0.000000  1.000247  0.017870 -0.003574 -0.000002  0.000000  0.000000 -0.000000 -0.000000 -0.000000

   5.1    0.0075541   -0.000000 -0.000000  0.000003 -0.000001  0.000581 -0.000000  0.999992 -0.000000  0.005142 -0.000000

   6.1    0.0075541    0.000000 -0.000000 -0.000000  0.000000  0.000000  0.000581  0.000000  0.999992  0.000000  0.005141

   7.1    0.0030113   -0.000001  0.003553  0.999488  0.034096 -0.000001  0.000000 -0.000003  0.000000  0.000001  0.000000

   8.1    0.0004160    0.000000 -0.000000 -0.000000  0.000000  0.000000 -0.001948  0.000000 -0.005162 -0.000000  1.000002

   9.1    0.0004160    0.000000  0.000000 -0.000001 -0.000002 -0.001948 -0.000000 -0.005162 -0.000000  1.000002  0.000000

  10.1    0.0001474    0.000000 -0.004374 -0.034202  0.999443  0.000000 -0.000000  0.000001 -0.000000  0.000002 -0.000000

                         1 2px     1 2px     1 2px     1 2px  

   1.2    2.0000000    1.000000 -0.000000 -0.000000 -0.000000

   2.2    0.0084095   -0.000000  0.999998  0.002032 -0.000801

   3.2    0.0006618   -0.000001 -0.002032  0.999997 -0.001018

   4.2    0.0000486   -0.000001  0.000799  0.001019  0.999999

                         1 2py     1 2py     1 2py     1 2py  

   1.3    2.0000000    1.000000 -0.000000 -0.000000 -0.000000

   2.3    0.0084095   -0.000000  0.999998  0.002032 -0.000801

   3.3    0.0006618   -0.000001 -0.002032  0.999997 -0.001018

   4.3    0.0000486   -0.000001  0.000799  0.001019  0.999999

                         1 3d2-    1 3d2-    1 3d2- 

   1.4    1.9879613    1.000077  0.008128 -0.007084

   2.4    0.0075541    0.000581  0.999992  0.005141

   3.4    0.0004160   -0.001948 -0.005162  1.000002

                         1 2pz     1 2pz     1 2pz     1 2pz  

   1.5    2.0000000    1.000000 -0.000000 -0.000000 -0.000000

   2.5    0.0084098   -0.000000  0.999998  0.002022 -0.000801

   3.5    0.0006619   -0.000001 -0.002023  0.999997 -0.001018

   4.5    0.0000486   -0.000001  0.000799  0.001020  0.999999

                         1 3d1+    1 3d1+    1 3d1+ 

   1.6    1.9879613    1.000077  0.008128 -0.007084

   2.6    0.0075541    0.000581  0.999992  0.005141

   3.6    0.0004160   -0.001948 -0.005162  1.000002

                         1 3d1-    1 3d1-    1 3d1- 

   1.7    1.9879613    1.000077  0.008128 -0.007084

   2.7    0.0075541    0.000581  0.999992  0.005141

   3.7    0.0004160   -0.001948 -0.005162  1.000002

 Electronic charge:   19.000000


 **********************************************************************************************************************************
 DATASETS  * FILE   NREC   LENGTH (MB)   RECORD NAMES
              1      20       19.99       500      610      700      900      950      970     1000      129      960     1100   
                                          VAR    BASINP    GEOM    SYMINP    ZMAT    AOBASIS   BASIS     P2S    ABASIS      S 
                                         1400     1410     1420     1200     1210     1080     1600     1650     1700     1380   
                                           T        V       ECP      H0       H01     AOSYM     SMH    MOLCAS    OPER     JKOP   

              2       6        7.75       700     1000      520     4202     5202     2101   
                                         GEOM     BASIS   MCVARS     RHF     MCSCF     RHF  

 PROGRAMS   *        TOTAL        CI       RHF     MULTI       POP       RHF       INT
 CPU TIMES  *         1.37      0.13      0.02      0.06      0.00      0.27      0.53
 REAL TIME  *         2.47 SEC
 DISK USED  *       404.13 MB      
 SF USED    *         3.37 MB      
 GA USED    *         0.00 MB       (max)       0.00 MB       (current)
 **********************************************************************************************************************************

 CI/USERDEF energy=   -146.161877093493

        CI              RHF-SCF         MULTI           RHF-SCF 
   -146.16187709   -146.05291156   -146.05291156   -146.05291156
 **********************************************************************************************************************************
 Molpro calculation terminated
 Variable memory released
