<?xml version="1.0"?>
<molpro xmlns="http://www.molpro.net/schema/molpro-output"
  xmlns:xsd="http://www.w3.org/1999/XMLSchema"
  xmlns:cml="http://www.xml-cml.org/schema"
  xmlns:stm="http://www.xml-cml.org/schema"
  xmlns:xhtml="http://www.w3.org/1999/xhtml">
 <!--

 Nodes     nprocs
 nid00750    23
 Number of processes for MPI-2 version of Molpro:   nprocs(total)=   24   nprocs(compute)=   23   nprocs(helper)=    1

 Using customized tuning parameters: mindgm=7; mindgv=16; mindgc=1; mindgr=1; noblas=0; minvec=7
 default implementation of scratch files=sf

 --><job>
  <!--

 Variables initialized (889), CPU time= 0.02 sec
 Commands  initialized (702), CPU time= 0.02 sec, 572 directives.
 Default parameters read. Elapsed time= 0.14 sec

 Checking input...
 Passed
1


                                         ***  PROGRAM SYSTEM MOLPRO  ***
                                       Copyright, TTI GmbH Stuttgart, 2015
                                    Version 2015.1 linked Dec 29 2018 15:55:43


 **********************************************************************************************************************************
 LABEL *   Calculation for PdO groundstate
  64 bit mpp version                                                                     DATE: 30-Mar-21          TIME: 03:15:11
 **********************************************************************************************************************************

 SHA1:             19cd028119e0e09f93f0674bd8af7968d9b3eff6
 **********************************************************************************************************************************
  -->
  <!--

 THRESHOLDS:

 ZERO    =  1.00D-12  ONEINT  =  1.00D-12  TWOINT  =  1.00D-12  PREFAC  =  1.00D-14  LOCALI  =  1.00D-09  EORDER  =  1.00D-04
 ENERGY  =  0.00D+00  ETEST   =  0.00D+00  EDENS   =  0.00D+00  THRDEDEF=  1.00D-06  GRADIENT=  1.00D-02  STEP    =  1.00D-03
 ORBITAL =  1.00D-05  CIVEC   =  1.00D-05  COEFF   =  1.00D-04  PRINTCI =  5.00D-02  PUNCHCI =  9.90D+01  OPTGRAD =  3.00D-04
 OPTENERG=  1.00D-06  OPTSTEP =  3.00D-04  THRGRAD =  1.00D-10  COMPRESS=  1.00D-11  VARMIN  =  1.00D-07  VARMAX  =  1.00D-03
 THRDOUB =  0.00D+00  THRDIV  =  1.00D-05  THRRED  =  1.00D-07  THRPSP  =  1.00D+00  THRDC   =  1.00D-10  THRCS   =  1.00D-10
 THRNRM  =  1.00D-08  THREQ   =  0.00D+00  THRDE   =  1.00D+00  THRREF  =  1.00D-05  SPARFAC =  1.00D+00  THRDLP  =  1.00D-07
 THRDIA  =  1.00D-10  THRDLS  =  1.00D-07  THRGPS  =  0.00D+00  THRKEX  =  0.00D+00  THRDIS  =  2.00D-01  THRVAR  =  1.00D-10
 THRLOC  =  1.00D-06  THRGAP  =  1.00D-06  THRLOCT = -1.00D+00  THRGAPT = -1.00D+00  THRORB  =  1.00D-06  THRMLTP =  0.00D+00
 THRCPQCI=  1.00D-10  KEXTA   =  0.00D+00  THRCOARS=  0.00D+00  SYMTOL  =  1.00D-06  GRADTOL =  1.00D-06  THROVL  =  1.00D-08
 THRORTH =  1.00D-08  GRID    =  1.00D-06  GRIDMAX =  1.00D-03  DTMAX   =  0.00D+00  THROCCDE=  1.00D-01  THROCCDE=  1.00D-01



 THRESHOLDS:

 ZERO    =  1.00D-12  ONEINT  =  1.00D-12  TWOINT  =  1.00D-12  PREFAC  =  1.00D-14  LOCALI  =  1.00D-09  EORDER  =  1.00D-04
 ENERGY  =  0.00D+00  ETEST   =  0.00D+00  EDENS   =  0.00D+00  THRDEDEF=  1.00D-06  GRADIENT=  1.00D-02  STEP    =  1.00D-03
 ORBITAL =  1.00D-05  CIVEC   =  1.00D-05  COEFF   =  1.00D-04  PRINTCI =  5.00D-02  PUNCHCI =  9.90D+01  OPTGRAD =  3.00D-04
 OPTENERG=  1.00D-06  OPTSTEP =  3.00D-04  THRGRAD =  1.00D-10  COMPRESS=  1.00D-11  VARMIN  =  1.00D-07  VARMAX  =  1.00D-03
 THRDOUB =  0.00D+00  THRDIV  =  1.00D-05  THRRED  =  1.00D-07  THRPSP  =  1.00D+00  THRDC   =  1.00D-10  THRCS   =  1.00D-10
 THRNRM  =  1.00D-08  THREQ   =  0.00D+00  THRDE   =  1.00D+00  THRREF  =  1.00D-05  SPARFAC =  1.00D+00  THRDLP  =  1.00D-07
 THRDIA  =  1.00D-10  THRDLS  =  1.00D-07  THRGPS  =  0.00D+00  THRKEX  =  0.00D+00  THRDIS  =  2.00D-01  THRVAR  =  1.00D-10
 THRLOC  =  1.00D-06  THRGAP  =  1.00D-06  THRLOCT = -1.00D+00  THRGAPT = -1.00D+00  THRORB  =  1.00D-06  THRMLTP =  0.00D+00
 THRCPQCI=  1.00D-10  KEXTA   =  0.00D+00  THRCOARS=  0.00D+00  SYMTOL  =  1.00D-06  GRADTOL =  1.00D-06  THROVL  =  1.00D-12
 THRORTH =  1.00D-08  GRID    =  1.00D-06  GRIDMAX =  1.00D-03  DTMAX   =  0.00D+00  THROCCDE=  1.00D-01  THROCCDE=  1.00D-01


 SETTING DKROLL         =         1.00000000
 SETTING DKHO           =        10.00000000
 SETTING DKHP           =         4.00000000

 Variable memory set to  512000000 words,  buffer space   230000 words

 SETTING BASIS          =    USERDEF
 SETTING OE             =       -75.09181489
 SETTING PDE            =     -5044.36637900
 SETTING NE             =        54.00000000

Geometry recognized as XYZ

 SETTING A1             =        14.00000000
 SETTING B1             =         6.00000000
 SETTING B2             =         6.00000000
 SETTING A2             =         2.00000000
  --><jobstep command="RKS-SCF" commandset="SCFPRO">
   <!--


 Recomputing integrals since basis changed


 Using spherical harmonics



 PROGRAM * SEWARD (Integral evaluation for generally contracted gaussian basis sets)     Author: Roland Lindh, 1990

 Geometry written to block  1 of record 700


 Point group  C2v


   --><cml:molecule>
    <cml:symmetry pointGroup="C2v"/>
    <cml:atomArray>
     <cml:atom id="a1" elementType="Pd" x3="0.0" y3="0.0" z3="0.0"/>
     <cml:atom id="a2" elementType="O" x3="0.0" y3="0.0" z3="1.885"/>
    </cml:atomArray>
    <cml:bondArray>
     <cml:bond atomRefs2="a1 a2"/>
    </cml:bondArray>
   </cml:molecule><!--

 ATOMIC COORDINATES

 NR  ATOM    CHARGE       X              Y              Z

   1  PD     46.00    0.000000000    0.000000000    0.000000000
   2  O       8.00    0.000000000    0.000000000    3.562133745

 Bond lengths in Bohr (Angstrom)

 1-2  3.562133745
     ( 1.885000000)

 NUCLEAR CHARGE:                   54
 NUMBER OF PRIMITIVE AOS:         355
 NUMBER OF SYMMETRY AOS:          299
 NUMBER OF CONTRACTIONS:          182   (  73A1  +  43B1  +  43B2  +  23A2  )
 NUMBER OF CORE ORBITALS:          19   (  10A1  +   4B1  +   4B2  +   1A2  )
 NUMBER OF VALENCE ORBITALS:       10   (   5A1  +   2B1  +   2B2  +   1A2  )


 NUCLEAR REPULSION ENERGY  103.30886664

 One-electron integrals computed with SEWARD

 10nd-order Douglas-Kroll-Hess method activated. McWeeny DKH parametrization is used.

 Computing Douglas-Kroll / X2C integrals

 AO integral compression algorithm  1   Integral accuracy      1.0D-12

     159.908 MB (compressed) written to integral file ( 48.4%)

     Node minimum: 2.359 MB, node maximum: 10.748 MB


 NUMBER OF SORTED TWO-ELECTRON INTEGRALS:    1570662.     BUFFER LENGTH:  32768
 NUMBER OF SEGMENTS:   1  SEGMENT LENGTH:    1570662      RECORD LENGTH: 524288

 Memory used in sort:       2.13 MW

 SORT1 READ    41520926. AND WROTE     1058910. INTEGRALS IN      4 RECORDS. CPU TIME:     0.73 SEC, REAL TIME:     0.76 SEC
 SORT2 READ    23478216. AND WROTE    35715180. INTEGRALS IN    644 RECORDS. CPU TIME:     0.14 SEC, REAL TIME:     0.24 SEC

 Node minimum:     1548720.  Node maximum:     1570662. integrals

 OPERATOR DM      FOR CENTER  0  COORDINATES:    0.000000    0.000000    0.000000

 EXTRA SYMMETRY OF AOS IN SYMMETRY 1:   1 1 1 1 1 1 1 1 1 1   1 1 1 1 1 1 1 1 1 1   1 1 2 1 2 1 2 1 2 1   2 1 2 1 2 1 2 1 2 1
                                        2 1 2 1 2 1 3 2 1 3   2 1 3 2 1 1 1 1 1 1   1 1 1 1 2 1 2 1 2 1   2 1 2
 EXTRA SYMMETRY OF AOS IN SYMMETRY 2:   1 1 1 1 1 1 1 1 1 1   1 1 1 1 1 1 1 1 1 2   1 2 1 2 1 2 1 2 1 2   1 2 1 1 1 1 1 1 1 1
                                        2 1 2
 EXTRA SYMMETRY OF AOS IN SYMMETRY 3:   1 1 1 1 1 1 1 1 1 1   1 1 1 1 1 1 1 1 1 2   1 2 1 2 1 2 1 2 1 2   1 2 1 1 1 1 1 1 1 1
                                        2 1 2
 EXTRA SYMMETRY OF AOS IN SYMMETRY 4:   1 1 1 1 1 1 1 1 1 1   1 1 1 2 1 2 1 2 1 1   1 1 1

 Eigenvalues of metric

         1 0.111E-03 0.304E-03 0.453E-03 0.742E-03 0.154E-02 0.158E-02 0.343E-02 0.458E-02
         2 0.644E-03 0.156E-02 0.206E-02 0.129E-01 0.271E-01 0.407E-01 0.491E-01 0.511E-01
         3 0.644E-03 0.156E-02 0.206E-02 0.129E-01 0.271E-01 0.407E-01 0.491E-01 0.511E-01
         4 0.158E-02 0.224E-01 0.871E-01 0.103E+00 0.131E+00 0.148E+00 0.210E+00 0.323E+00


 **********************************************************************************************************************************
 DATASETS  * FILE   NREC   LENGTH (MB)   RECORD NAMES
              1      22       20.91       500      610      700      900      950      970     1000      129      960     1700
                                          VAR    BASINP    GEOM    SYMINP    ZMAT    AOBASIS   BASIS     P2S    ABASIS    OPER
                                         1101     1401     1411     1412     1650     1100     1400     1410     1200     1210
                                          SR      EKINR    POTR     PVPR    MOLCAS      S      EKIN      POT      H0       H01
                                         1080     1600
                                         AOSYM     SMH

 PROGRAMS   *        TOTAL       INT
 CPU TIMES  *         8.79      8.40
 REAL TIME  *        10.08 SEC
 DISK USED  *       427.66 MB
 GA USED    *         0.00 MB       (max)       0.00 MB       (current)
 **********************************************************************************************************************************

 Density functional group PBE0=PBEX+PBEC
 Functional: PBEX(Automatically generated (new) PBEX)                          Gradient terms: 1
 Functional: PBEC(Automatically generated (new) PBEC)                          Gradient terms: 1
 Use grid at  1800.2


 Exact exchange will be calculated, factor:  0.2500

 Functional: PBEX                      Factor:  0.7500
 Functional: PBEC                      Factor:  1.0000

 Generated new metagrid on record  1800.2 with target accuracy 1.0D-06 and 4976 points in CPU time    0.0
 Computed new grid on record 1800.1 in CPU time    0.0
  152282 words reserved for DFT integration

 PROGRAM * RKS-SCF (Restricted open shell Kohn-Sham)     Authors: W. Meyer, H.-J. Werner, P.J. Knowles, 1993

 NUMBER OF ELECTRONS:      28+   26-    SPACE SYMMETRY=2    SPIN SYMMETRY: Triplet
 CONVERGENCE THRESHOLDS:    1.00E-05 (Density)    1.08E-06 (Energy)
 MAX. NUMBER OF ITERATIONS:       60
 INTERPOLATION TYPE:            DIIS
 INTERPOLATION STEPS:              2 (START)      1 (STEP)
 LEVEL SHIFTS:                 -0.60 (CLOSED) -0.30 (OPEN)

 Number of closed-shell orbitals:   26 (  13   5   6   2 )
 Number of open-shell orbitals:      2 (   1   1   0   0 )


 Use fine grid record 1800.2 for energy threshold  1.0D-06
 Orbital guess generated from atomic densities. Full valence occupancy:   15   6   6   2

 Molecular orbital dump at record        2100.2

 ITERATION    DDIFF          GRAD             ENERGY        2-EL.EN.            DIPOLE MOMENTS         DIIS   ORB.
    1      0.000D+00      0.000D+00     -5099.19363873   3775.039901    0.00000    0.00000  -10.02809    0    start
    2      0.000D+00      0.755D-01     -5089.89249180   4838.679154    0.00000    0.00000   20.19537    1    diag,B
    3      0.564D+00      0.194D+00     -5111.42711556   4620.087467    0.00000    0.00000    7.50402    2    diag,B
    4      0.544D-01      0.113D+00     -5114.74920125   4550.066482    0.00000    0.00000    6.36618    3    diag,B
    5      0.156D-01      0.850D-01     -5118.16104690   4476.208841    0.00000    0.00000    1.95473    4    diag,B
    6      0.222D-01      0.533D-01     -5119.20664701   4423.864639    0.00000    0.00000    1.42318    5    diag,B
    7      0.114D-01      0.338D-01     -5120.12903341   4349.583339    0.00000    0.00000   -0.65767    6    fixocc
    8      0.153D-01      0.773D-02     -5120.20513910   4325.973266    0.00000    0.00000   -1.38262    7    diag,B
    9      0.621D-02      0.152D-02     -5120.21340953   4320.346139    0.00000    0.00000   -1.65380    8    diag,B
   10      0.311D-02      0.113D-02     -5120.21715138   4319.531995    0.00000    0.00000   -1.63137    9    orth
   11      0.152D-02      0.653D-03     -5120.21931935   4319.287961    0.00000    0.00000   -1.65845    9    diag,B
   12      0.123D-02      0.402D-03     -5120.22069329   4319.076665    0.00000    0.00000   -1.65952    9    diag,B
   13      0.116D-02      0.190D-03     -5120.22125619   4319.102869    0.00000    0.00000   -1.65292    9    diag,B
   14      0.809D-03      0.643D-04     -5120.22139701   4318.987001    0.00000    0.00000   -1.65227    9    diag,B
   15      0.383D-03      0.373D-04     -5120.22144556   4318.971331    0.00000    0.00000   -1.65021    9    diag,B
   16      0.259D-03      0.209D-04     -5120.22145963   4318.967681    0.00000    0.00000   -1.64929    9    diag,B
   17      0.153D-03      0.989D-05     -5120.22146233   4318.969870    0.00000    0.00000   -1.64835    9    diag,B
   18      0.712D-04      0.566D-05     -5120.22146280   4318.970964    0.00000    0.00000   -1.64877    9    diag,B
   19      0.328D-04      0.220D-05     -5120.22146286   4318.970253    0.00000    0.00000   -1.64862    9    diag,B
   20      0.123D-04      0.124D-05     -5120.22146288   4318.970916    0.00000    0.00000   -1.64881    9    orth
   21      0.471D-05      0.693D-06     -5120.22146289   4318.970696    0.00000    0.00000   -1.64879    0    orth

 Final alpha occupancy:  14   6   6   2
 Final beta  occupancy:  13   5   6   2

 !RKS STATE 1.2 Energy              -5120.221462888771
   --><property name="Energy" method="RKS" principal="true" stateSymmetry="2" stateNumber="1"
     value="-5120.22146288877"/><!--
 Nuclear energy                       103.30886664
 One-electron energy                -7267.26122392
 Two-electron energy                 2159.48534812
 Density functional                  -115.75445373     PBEX=-150.78347527 PBEC=  -2.66684727
 Virial quotient                       -0.88776379
 !RKS STATE 1.2 Dipole moment           0.00000000     0.00000000    -1.64878516
 Dipole moment /Debye                   0.00000000     0.00000000    -4.19051939
   --><property name="Dipole moment" method="RKS" principal="true" stateSymmetry="2"
     stateNumber="1" value="0.0 0.0 -1.64878516262738"/><!--

 Orbital energies:

         1.1          2.1          3.1          4.1          5.1          6.1          7.1          8.1          9.1         10.1
   -889.961031  -130.835450  -117.303209   -24.029699   -19.551533   -19.226169   -12.404536   -12.393934    -3.443868    -2.155548

        11.1         12.1         13.1         14.1         15.1         16.1
     -0.899612    -0.373896    -0.295399    -0.261456    -0.095240     0.015259

         1.2          2.2          3.2          4.2          5.2          6.2          7.2          8.2
   -117.297967   -19.539789   -12.402774    -2.135257    -0.336983    -0.323486    -0.005537     0.041225

         1.3          2.3          3.3          4.3          5.3          6.3          7.3          8.3
   -117.296754   -19.536794   -12.400873    -2.132031    -0.350854    -0.246828    -0.003077     0.042363

         1.4          2.4          3.4          4.4
    -12.394049    -0.295440     0.070441     0.255438

 HOMO      6.3    -0.246828 =      -6.7165eV
 LUMO     15.1    -0.095240 =      -2.5916eV
 LUMO-HOMO         0.151588 =       4.1249eV


 **********************************************************************************************************************************
 DATASETS  * FILE   NREC   LENGTH (MB)   RECORD NAMES
              1      23       20.91       500      610      700      900      950      970     1000      129      960     1700
                                          VAR    BASINP    GEOM    SYMINP    ZMAT    AOBASIS   BASIS     P2S    ABASIS    OPER
                                         1101     1401     1411     1412     1650     1100     1400     1410     1200     1210
                                          SR      EKINR    POTR     PVPR    MOLCAS      S      EKIN      POT      H0       H01
                                         1080     1600     1800
                                         AOSYM     SMH     GRID

              2       5        3.08       700     1000      520     1800     2100
                                         GEOM     BASIS   MCVARS    GRID      RKS

 PROGRAMS   *        TOTAL       RKS       INT
 CPU TIMES  *        12.93      4.14      8.40
 REAL TIME  *        14.40 SEC
 DISK USED  *         1.01 GB
 SF USED    *         0.04 MB
 GA USED    *         0.22 MB       (max)       0.22 MB       (current)
 **********************************************************************************************************************************
   -->
   <time start="03:15:11" end="03:15:25" cpu="12.93" system="1.03" real="14.4"/>
   <storage units="megabyte" memory="4097.84" sf="0.04" df="585.66" eaf="427.66" ga="0.22"/>
  </jobstep><!--
  --><jobstep command="RHF-SCF" commandset="SCFPRO">
   <!--


 PROGRAM * RHF-SCF (OPEN SHELL)       Authors: W. Meyer, H.-J. Werner


 NUMBER OF ELECTRONS:      28+   26-    SPACE SYMMETRY=2    SPIN SYMMETRY: Triplet
 CONVERGENCE THRESHOLDS:    1.00E-05 (Density)    1.08E-07 (Energy)
 MAX. NUMBER OF ITERATIONS:       60
 INTERPOLATION TYPE:            DIIS
 INTERPOLATION STEPS:              2 (START)      1 (STEP)
 LEVEL SHIFTS:                 -0.60 (CLOSED) -0.30 (OPEN)

 Number of closed-shell orbitals:   26 (  13   5   6   2 )
 Number of open-shell orbitals:      2 (   1   1   0   0 )


 Molecular orbitals read from record     2100.2  Type=RKS/CANONICAL (state 1.2)

 Molecular orbital dump at record        2101.2

 ITERATION    DDIFF          GRAD             ENERGY        2-EL.EN.            DIPOLE MOMENTS         DIIS   ORB.
    1      0.000D+00      0.000D+00     -5117.67396854   4092.556777    0.00000    0.00000   -1.64879    0    start
    2      0.000D+00      0.118D-01     -5117.70273576   4093.269921    0.00000    0.00000   -1.76799    1    diag,B
    3      0.735D-02      0.144D-02     -5117.71218863   4093.870387    0.00000    0.00000   -1.86172    2    diag,B
    4      0.141D-02      0.834D-03     -5117.71914273   4094.000810    0.00000    0.00000   -1.94783    3    diag,B
    5      0.127D-02      0.577D-03     -5117.72424661   4093.988033    0.00000    0.00000   -2.05902    4    diag,B
    6      0.150D-02      0.346D-03     -5117.72594186   4093.923393    0.00000    0.00000   -2.11898    5    diag,B
    7      0.981D-03      0.173D-03     -5117.72636651   4093.694479    0.00000    0.00000   -2.15103    6    diag,B
    8      0.437D-03      0.115D-03     -5117.72652527   4093.735918    0.00000    0.00000   -2.16620    7    orth
    9      0.275D-03      0.612D-04     -5117.72657673   4093.670335    0.00000    0.00000   -2.17640    8    diag,B
   10      0.185D-03      0.314D-04     -5117.72658819   4093.678717    0.00000    0.00000   -2.17872    9    diag,B
   11      0.868D-04      0.163D-04     -5117.72659233   4093.679632    0.00000    0.00000   -2.17994    9    diag,B
   12      0.575D-04      0.924D-05     -5117.72659364   4093.682690    0.00000    0.00000   -2.17946    9    diag,B
   13      0.243D-04      0.670D-05     -5117.72659465   4093.684487    0.00000    0.00000   -2.17960    9    diag,B
   14      0.210D-04      0.525D-05     -5117.72659551   4093.688083    0.00000    0.00000   -2.17962    9    diag,B
   15      0.201D-04      0.431D-05     -5117.72659628   4093.688903    0.00000    0.00000   -2.17976    9    diag,B
   16      0.220D-04      0.347D-05     -5117.72659701   4093.691133    0.00000    0.00000   -2.17993    9    diag,B
   17      0.278D-04      0.253D-05     -5117.72659743   4093.691180    0.00000    0.00000   -2.17988    9    diag,B
   18      0.251D-04      0.167D-05     -5117.72659761   4093.691150    0.00000    0.00000   -2.17973    9    orth
   19      0.199D-04      0.821D-06     -5117.72659764   4093.690917    0.00000    0.00000   -2.17964    9    diag,B
   20      0.746D-05      0.370D-06     -5117.72659764   4093.690823    0.00000    0.00000   -2.17963    0    orth

 Final alpha occupancy:  14   6   6   2
 Final beta  occupancy:  13   5   6   2

 !RHF STATE 1.2 Energy              -5117.726597636804
   --><property name="Energy" method="RHF" principal="true" stateSymmetry="2" stateNumber="1"
     value="-5117.7265976368"/><!--
 Nuclear energy                       103.30886664
 One-electron energy                -7267.88087589
 Two-electron energy                 2046.84541161
 Virial quotient                       -0.88705798
 !RHF STATE 1.2 Dipole moment           0.00000000     0.00000000    -2.17963289
 Dipole moment /Debye                   0.00000000     0.00000000    -5.53971135
   --><property name="Dipole moment" method="RHF" principal="true" stateSymmetry="2"
     stateNumber="1" value="0.0 0.0 -2.17963288550054"/><!--

 Orbital energies:

         1.1          2.1          3.1          4.1          5.1          6.1          7.1          8.1          9.1         10.1
   -899.574865  -134.533228  -120.426695   -25.687101   -20.931149   -20.516896   -13.343961   -13.341428    -3.991753    -2.548022

        11.1         12.1         13.1         14.1         15.1         16.1
     -1.148406    -0.478224    -0.452145    -0.426387    -0.011205     0.032999

         1.2          2.2          3.2          4.2          5.2          6.2          7.2          8.2
   -120.422913   -20.916589   -13.353217    -2.542778    -0.482932    -0.516084     0.022495     0.079201

         1.3          2.3          3.3          4.3          5.3          6.3          7.3          8.3
   -120.422829   -20.916459   -13.353798    -2.542582    -0.514398    -0.385173     0.023442     0.080659

         1.4          2.4          3.4          4.4
    -13.343846    -0.452381     0.095135     0.323416

 HOMO      6.3    -0.385173 =     -10.4811eV
 LUMO     15.1    -0.011205 =      -0.3049eV
 LUMO-HOMO         0.373968 =      10.1762eV


 **********************************************************************************************************************************
 DATASETS  * FILE   NREC   LENGTH (MB)   RECORD NAMES
              1      23       20.91       500      610      700      900      950      970     1000      129      960     1700
                                          VAR    BASINP    GEOM    SYMINP    ZMAT    AOBASIS   BASIS     P2S    ABASIS    OPER
                                         1101     1401     1411     1412     1650     1100     1400     1410     1200     1210
                                          SR      EKINR    POTR     PVPR    MOLCAS      S      EKIN      POT      H0       H01
                                         1080     1600     1800
                                         AOSYM     SMH     GRID

              2       6        5.96       700     1000      520     1800     2100     2101
                                         GEOM     BASIS   MCVARS    GRID      RKS      RHF

 PROGRAMS   *        TOTAL       RHF       RKS       INT
 CPU TIMES  *        14.21      1.26      4.14      8.40
 REAL TIME  *        15.80 SEC
 DISK USED  *         1.08 GB
 SF USED    *         0.04 MB
 GA USED    *         0.22 MB       (max)       0.22 MB       (current)
 **********************************************************************************************************************************
   -->
   <time start="03:15:25" end="03:15:26" cpu="1.28" system="0.1" real="1.4"/>
   <storage units="megabyte" memory="4097.84" sf="0.04" df="651.96" eaf="427.66" ga="0.22"/>
  </jobstep><!--
 SETTING BASIS          =    USERDEF
  --><jobstep command="RHF-SCF" commandset="SCFPRO">
   <!--


 Recomputing integrals since basis changed


 Using spherical harmonics



 PROGRAM * SEWARD (Integral evaluation for generally contracted gaussian basis sets)     Author: Roland Lindh, 1990

 Geometry written to block  1 of record 700


 Point group  C2v



 ATOMIC COORDINATES

 NR  ATOM    CHARGE       X              Y              Z

   1  PD     46.00    0.000000000    0.000000000    0.000000000
   2  O       8.00    0.000000000    0.000000000    3.562133745

 Bond lengths in Bohr (Angstrom)

 1-2  3.562133745
     ( 1.885000000)

 NUCLEAR CHARGE:                   54
 NUMBER OF PRIMITIVE AOS:         642
 NUMBER OF SYMMETRY AOS:          471
 NUMBER OF CONTRACTIONS:          471   ( 186A1  + 112B1  + 112B2  +  61A2  )
 NUMBER OF CORE ORBITALS:          19   (  10A1  +   4B1  +   4B2  +   1A2  )
 NUMBER OF VALENCE ORBITALS:       10   (   5A1  +   2B1  +   2B2  +   1A2  )


 NUCLEAR REPULSION ENERGY  103.30886664

 One-electron integrals computed with SEWARD

 10nd-order Douglas-Kroll-Hess method activated. McWeeny DKH parametrization is used.

 Computing Douglas-Kroll / X2C integrals

 AO integral compression algorithm  1   Integral accuracy      1.0D-12

     3472.622 MB (compressed) written to integral file ( 24.7%)

     Node minimum: 110.363 MB, node maximum: 244.318 MB


 NUMBER OF SORTED TWO-ELECTRON INTEGRALS:   68491598.     BUFFER LENGTH:  32768
 NUMBER OF SEGMENTS:   3  SEGMENT LENGTH:   31991699      RECORD LENGTH: 524288

 Memory used in sort:      32.55 MW

 SORT1 READ  1760380706. AND WROTE    27768810. INTEGRALS IN     82 RECORDS. CPU TIME:    35.69 SEC, REAL TIME:    44.98 SEC
 SORT2 READ   630746073. AND WROTE  1570932477. INTEGRALS IN  21436 RECORDS. CPU TIME:    13.38 SEC, REAL TIME:    14.28 SEC

 Node minimum:    68250355.  Node maximum:    68491598. integrals

 OPERATOR DM      FOR CENTER  0  COORDINATES:    0.000000    0.000000    0.000000

 EXTRA SYMMETRY OF AOS IN SYMMETRY 1:   1 1 1 1 1 1 1 1 1 1   1 1 1 1 1 1 1 1 1 1   1 1 1 1 1 1 1 1 1 1   1 1 1 1 1 1 1 1 1 1
                                        1 1 1 1 1 1 1 1 1 1   1 1 1 2 1 2 1 2 1 2   1 2 1 2 1 2 1 2 1 2   1 2 1 2 1 2 1 2 1 2
                                        1 2 1 2 1 2 1 2 1 2   1 2 1 2 1 2 1 3 2 1   3 2 1 3 2 1 3 2 2 3   1 2 3 1 2 3 1 4 3 2
                                        1 4 3 2 1 1 1 1 1 1   1 1 1 1 1 1 1 1 1 1   1 1 1 1 1 1 1 1 1 1   1 1 1 1 2 1 2 1 2 1
                                        2 1 2 1 2 1 2 1 2 1   2 1 3 2 1 3 2 1 3 2   2 3 1 2 3 1
 EXTRA SYMMETRY OF AOS IN SYMMETRY 2:   1 1 1 1 1 1 1 1 1 1   1 1 1 1 1 1 1 1 1 1   1 1 1 1 1 1 1 1 1 1   1 1 1 1 1 1 1 1 1 1
                                        1 2 1 2 1 2 1 2 1 2   1 2 1 2 1 2 1 2 1 2   3 1 2 3 1 2 3 3 2 1   3 2 1 1 1 1 1 1 1 1
                                        1 1 1 1 1 1 1 1 1 1   1 1 1 2 1 2 1 2 1 2   1 2 1 2 1 2 1 2 3 1   2 3
 EXTRA SYMMETRY OF AOS IN SYMMETRY 3:   1 1 1 1 1 1 1 1 1 1   1 1 1 1 1 1 1 1 1 1   1 1 1 1 1 1 1 1 1 1   1 1 1 1 1 1 1 1 1 1
                                        1 2 1 2 1 2 1 2 1 2   1 2 1 2 1 2 1 2 1 2   3 1 2 3 1 2 3 3 2 1   3 2 1 1 1 1 1 1 1 1
                                        1 1 1 1 1 1 1 1 1 1   1 1 1 2 1 2 1 2 1 2   1 2 1 2 1 2 1 2 3 1   2 3
 EXTRA SYMMETRY OF AOS IN SYMMETRY 4:   1 1 1 1 1 1 1 1 1 1   1 1 1 1 1 1 1 1 1 1   1 1 1 2 1 2 1 2 1 2   2 1 2 1 2 1 1 3 2 1
                                        3 2 1 1 1 1 1 1 1 1   1 1 2 1 2 1 2 2 1 2   1

 Eigenvalues of metric

         1 0.256E-07 0.832E-07 0.538E-06 0.841E-06 0.845E-06 0.178E-05 0.625E-05 0.727E-05
         2 0.285E-07 0.767E-06 0.967E-06 0.889E-05 0.173E-04 0.621E-04 0.266E-03 0.465E-03
         3 0.285E-07 0.767E-06 0.967E-06 0.889E-05 0.173E-04 0.621E-04 0.266E-03 0.465E-03
         4 0.948E-05 0.305E-03 0.301E-02 0.106E-01 0.154E-01 0.223E-01 0.294E-01 0.486E-01


 **********************************************************************************************************************************
 DATASETS  * FILE   NREC   LENGTH (MB)   RECORD NAMES
              1      22       24.20       500      610      700      900      950      970     1001      129      960     1700
                                          VAR    BASINP    GEOM    SYMINP    ZMAT    AOBASIS   BASIS     P2S    ABASIS    OPER
                                         1101     1401     1411     1412     1650     1100     1400     1410     1200     1210
                                          SR      EKINR    POTR     PVPR    MOLCAS      S      EKIN      POT      H0       H01
                                         1080     1600
                                         AOSYM     SMH

              2       7        6.16       700     1000      520     1800     2100     2101     1001
                                         GEOM     BASIS   MCVARS    GRID      RKS      RHF     BASIS

 PROGRAMS   *        TOTAL       INT       RHF       RKS       INT
 CPU TIMES  *       117.01    102.80      1.26      4.14      8.40
 REAL TIME  *       129.38 SEC
 DISK USED  *        11.73 GB
 SF USED    *         0.04 MB
 GA USED    *         0.22 MB       (max)       0.00 MB       (current)
 **********************************************************************************************************************************


 PROGRAM * RHF-SCF (OPEN SHELL)       Authors: W. Meyer, H.-J. Werner


 NUMBER OF ELECTRONS:      28+   26-    SPACE SYMMETRY=2    SPIN SYMMETRY: Triplet
 CONVERGENCE THRESHOLDS:    1.00E-05 (Density)    1.08E-07 (Energy)
 MAX. NUMBER OF ITERATIONS:       60
 INTERPOLATION TYPE:            DIIS
 INTERPOLATION STEPS:              2 (START)      1 (STEP)
 LEVEL SHIFTS:                 -0.60 (CLOSED) -0.30 (OPEN)

 Number of closed-shell orbitals:   26 (  13   5   6   2 )
 Number of open-shell orbitals:      2 (   1   1   0   0 )


 Molecular orbitals read from record     2101.2  Type=RHF/CANONICAL (state 1.2)

 Present basis size:     186 112 112  61
 Previous basis size:     73  43  43  23
 Previous occupation:     14   6   6   2
 Previous closed-shells:  13   5   6   2
 Previous core-orbitals:  10   4   4   1
 Present occupation:      14   6   6   2
 Present closed-shells:   13   5   6   2
 Present core-orbitals:   10   4   4   1
 Wavefunction symmetry:    2   Triplet

 Orbital overlap <old|new>:  < 1.1| 1.1> = 1.000000   < 2.1| 2.1> = 1.000000   < 3.1| 3.1> = 1.000000   < 4.1| 4.1> = 1.000000
                             < 5.1| 5.1> = 1.000000   < 6.1| 6.1> = 0.999164   < 7.1| 7.1> = 1.000000   < 8.1| 8.1> = 1.000000
                             < 9.1| 9.1> = 1.000000   <10.1|10.1> = 1.000000   < 1.2| 1.2> = 1.000000   < 2.2| 2.2> = 1.000000
                             < 3.2| 3.2> = 1.000000   < 4.2| 4.2> = 1.000000   < 1.3| 1.3> = 1.000000   < 2.3| 2.3> = 1.000000
                             < 3.3| 3.3> = 1.000000   < 4.3| 4.3> = 1.000000   < 1.4| 1.4> = 1.000000   <11.1|11.1> = 0.999957
                             <12.1|12.1> = 0.999996   <13.1|13.1> = 1.000000   < 5.2| 5.2> = 1.000000   < 5.3| 5.3> = 0.999999
                             < 6.3| 6.3> = 0.999997   < 2.4| 2.4> = 1.000000   <14.1|14.1> = 0.999999   < 6.2| 6.2> = 0.999996

 Molecular orbital dump at record        2102.2

 ITERATION    DDIFF          GRAD             ENERGY        2-EL.EN.            DIPOLE MOMENTS         DIIS   ORB.
    1      0.000D+00      0.000D+00     -5115.68076841   4093.629199    0.00000    0.00000   -2.17958    0    start
    2      0.000D+00      0.548D-01     -5115.76935275   4093.090617    0.00000    0.00000   -2.18010    1    diag,B
    3      0.118D+02      0.879D-03     -5115.76999808   4093.069317    0.00000    0.00000   -2.20089    2    diag,B
    4      0.494D+00      0.169D-03     -5115.77009880   4093.183277    0.00000    0.00000   -2.20192    3    diag,B
    5      0.340D-01      0.631D-04     -5115.77012353   4093.088156    0.00000    0.00000   -2.20707    4    diag,B
    6      0.578D-02      0.311D-04     -5115.77012942   4093.145840    0.00000    0.00000   -2.20898    5    diag,B
    7      0.359D-02      0.114D-04     -5115.77013087   4093.135493    0.00000    0.00000   -2.21039    6    diag,B
    8      0.237D-02      0.559D-05     -5115.77013157   4093.136056    0.00000    0.00000   -2.21187    7    orth
    9      0.176D-02      0.267D-05     -5115.77013178   4093.137514    0.00000    0.00000   -2.21272    8    diag,B
   10      0.339D-03      0.126D-05     -5115.77013185   4093.137680    0.00000    0.00000   -2.21311    9    diag,B
   11      0.162D-03      0.717D-06     -5115.77013187   4093.137734    0.00000    0.00000   -2.21326    9    diag,B
   12      0.187D-03      0.422D-06     -5115.77013188   4093.138270    0.00000    0.00000   -2.21332    9    diag,B
   13      0.148D-03      0.238D-06     -5115.77013188   4093.138248    0.00000    0.00000   -2.21333    9    diag,B
   14      0.362D-04      0.154D-06     -5115.77013189   4093.138460    0.00000    0.00000   -2.21333    9    diag,B
   15      0.271D-04      0.120D-06     -5115.77013190   4093.138516    0.00000    0.00000   -2.21333    9    diag,B
   16      0.102D-03      0.100D-06     -5115.77013188   4093.138536    0.00000    0.00000   -2.21333    9    diag,B
   17      0.113D-03      0.939D-07     -5115.77013189   4093.138552    0.00000    0.00000   -2.21333    9    diag,B
   18      0.906D-04      0.796D-07     -5115.77013189   4093.138607    0.00000    0.00000   -2.21333    9    orth
   19      0.904D-04      0.550D-07     -5115.77013189   4093.138614    0.00000    0.00000   -2.21333    9    diag,B
   20      0.709D-04      0.374D-07     -5115.77013188   4093.138614    0.00000    0.00000   -2.21333    9    diag,B
   21      0.768D-04      0.262D-07     -5115.77013190   4093.138605    0.00000    0.00000   -2.21333    9    diag,B
   22      0.638D-04      0.194D-07     -5115.77013188   4093.138610    0.00000    0.00000   -2.21332    9    diag,B
   23      0.505D-04      0.139D-07     -5115.77013188   4093.138609    0.00000    0.00000   -2.21332    9    diag,B
   24      0.199D-04      0.797D-08     -5115.77013189   4093.138606    0.00000    0.00000   -2.21332    9    diag,B
   25      0.125D-04      0.137D-07     -5115.77013191   4093.138605    0.00000    0.00000   -2.21332    9    diag,B
   26      0.348D-05      0.273D-07     -5115.77013189   4093.138604    0.00000    0.00000   -2.21332    0    orth

 Final alpha occupancy:  14   6   6   2
 Final beta  occupancy:  13   5   6   2

 !RHF STATE 1.2 Energy              -5115.770131889643
   --><property name="Energy" method="RHF" principal="true" stateSymmetry="2" stateNumber="1"
     value="-5115.77013188964"/><!--
 Nuclear energy                       103.30886664
 One-electron energy                -7265.64830076
 Two-electron energy                 2046.56930223
 Virial quotient                       -0.88735290
 !RHF STATE 1.2 Dipole moment           0.00000000     0.00000000    -2.21332309
 Dipole moment /Debye                   0.00000000     0.00000000    -5.62533769
   --><property name="Dipole moment" method="RHF" principal="true" stateSymmetry="2"
     stateNumber="1" value="0.0 0.0 -2.21332308626651"/><!--

 Orbital energies:

         1.1          2.1          3.1          4.1          5.1          6.1          7.1          8.1          9.1         10.1
   -899.569680  -134.534275  -120.427133   -25.688580   -20.932444   -19.686936   -13.345592   -13.342846    -3.993181    -2.549259

        11.1         12.1         13.1         14.1         15.1         16.1
     -1.100533    -0.482681    -0.453603    -0.429450    -0.011675     0.030664

         1.2          2.2          3.2          4.2          5.2          6.2          7.2          8.2
   -120.423445   -20.918041   -13.354693    -2.544240    -0.484392    -0.522761     0.021963     0.077831

         1.3          2.3          3.3          4.3          5.3          6.3          7.3          8.3
   -120.423361   -20.917899   -13.355268    -2.544049    -0.517240    -0.390077     0.022853     0.079137

         1.4          2.4          3.4          4.4
    -13.345491    -0.453804     0.094065     0.314182

 HOMO      6.3    -0.390077 =     -10.6145eV
 LUMO     15.1    -0.011675 =      -0.3177eV
 LUMO-HOMO         0.378401 =      10.2968eV


 **********************************************************************************************************************************
 DATASETS  * FILE   NREC   LENGTH (MB)   RECORD NAMES
              1      22       24.20       500      610      700      900      950      970     1001      129      960     1700
                                          VAR    BASINP    GEOM    SYMINP    ZMAT    AOBASIS   BASIS     P2S    ABASIS    OPER
                                         1101     1401     1411     1412     1650     1100     1400     1410     1200     1210
                                          SR      EKINR    POTR     PVPR    MOLCAS      S      EKIN      POT      H0       H01
                                         1080     1600
                                         AOSYM     SMH

              2       8       10.45       700     1000      520     1800     2100     2101     1001     2102
                                         GEOM     BASIS   MCVARS    GRID      RKS      RHF     BASIS     RHF

 PROGRAMS   *        TOTAL       RHF       INT       RHF       RKS       INT
 CPU TIMES  *       131.13     13.88    102.80      1.26      4.14      8.40
 REAL TIME  *       144.16 SEC
 DISK USED  *        12.09 GB
 SF USED    *         0.26 MB
 GA USED    *         0.22 MB       (max)       0.00 MB       (current)
 **********************************************************************************************************************************
   -->
   <time start="03:15:26" end="03:17:35" cpu="116.92" system="11.07" real="128.36"/>
   <storage units="megabyte" memory="4097.84" sf="0.26" df="1011.05" eaf="11079.21"
     ga="0.0"/>
  </jobstep><!--
 SETTING SCF            =     -5115.77013189  AU
 SETTING _CC_NORM_MAX   =         2.00000000
  --><jobstep command="RCCSD(T)" commandset="CCSD">
   <!--


 PROGRAM * CCSD (Restricted open-shell coupled cluster)     Authors: C. Hampel, H.-J. Werner, 1991, M. Deegan, P.J. Knowles, 1992


 Convergence thresholds:  THRVAR = 1.00D-08  THRDEN = 1.08D-06

 CCSD(T)     terms to be evaluated (factor= 1.000)


 Number of closed-shell orbitals:  26 (  13   5   6   2 )
 Number of active  orbitals:        2 (   1   1   0   0 )
 Number of external orbitals:     443 ( 172 106 106  59 )

 For full I/O caching in triples, increase memory by 456.44 Mwords to 968.72 Mwords.

 Number of N-1 electron functions:              54
 Number of N-2 electron functions:            1431
 Number of singly external CSFs:              7356
 Number of doubly external CSFs:          54592887
 Total number of CSFs:                    54600243

 Molecular orbitals read from record     2102.2  Type=RHF/CANONICAL (state 1.2)

 Integral transformation finished. Total CPU:  66.16 sec, npass=  1  Memory used: 103.89 MW

 Starting RMP2 calculation

 Wavefunction is spin-projected

 ITER.      SQ.NORM     CORR.ENERGY   TOTAL ENERGY   ENERGY CHANGE        DEN1      VAR(S)    VAR(P)  DIIS     TIME
   1      1.19854340    -2.02079725 -5117.79092915    -2.02079725    -0.00162734  0.11D-04  0.57D-03  1  1    99.14
   2      1.19992777    -2.02251792 -5117.79264981    -0.00172067    -0.00000593  0.30D-06  0.32D-05  2  2   115.13
   3      1.20001161    -2.02257409 -5117.79270599    -0.00005617    -0.00000004  0.12D-07  0.21D-07  3  3   133.42
   4      1.20001409    -2.02257434 -5117.79270624    -0.00000025    -0.00000000  0.30D-09  0.20D-09  4  4   150.72

 Norm of t1 vector:      0.04103912      S-energy:    -0.00554116      T1 diagnostic:  0.00034523
 Norm of t2 vector:      0.44534244      P-energy:    -2.01703317
                                         Alpha-Beta:  -1.38439431
                                         Alpha-Alpha: -0.33821746
                                         Beta-Beta:   -0.29442141

 Spin contamination <S**2-Sz**2-Sz>     0.00000000
  Reference energy                  -5115.770131897662
   --><property name="energy" method="Reference" stateSymmetry="1" stateNumber="1"
     value="-5115.77013189766"/><!--
  RHF-RMP2 correlation energy          -2.022574337552
   --><property name="energy" method="RHF-RMP2 correlation" stateSymmetry="1" stateNumber="1"
     value="-2.02257433755246"/><!--
 !RHF-RMP2 energy                   -5117.792706235215
   --><property name="energy" method="RHF-RMP2" principal="true" stateSymmetry="2"
     stateNumber="1" value="-5117.79270623521"/><!--
 (NB above energy spin projected)

 Starting RCCSD calculation

 ITER.      SQ.NORM     CORR.ENERGY   TOTAL ENERGY   ENERGY CHANGE        DEN1      VAR(S)    VAR(P)  DIIS     TIME
   1      1.17256718    -1.90689913 -5117.67703103    -1.90689913    -0.03650359  0.88D-02  0.42D-02  0  0   353.15
   2      1.19173957    -1.94073008 -5117.71086198    -0.03383094    -0.01081422  0.32D-03  0.14D-02  0  0   553.59
   3      1.21742749    -1.93708232 -5117.70721422     0.00364776    -0.65728618  0.13D-02  0.17D-01  0  0   753.57
   4      3.64829062    -1.94768248 -5117.71781437    -0.01060016   -79.06370729  0.34D-03  0.24D+01  0  0   959.99
   5    268.34937047    -1.94411153 -5117.71424343     0.00357094-10353.67481532  0.78D-02  0.26D+03  0  0  1154.34

 UNREASONABLE NORM:268.349370 CALCULATION WILL BE STOPPED

 The threshold can be changed using option CC_NORM_MAX (see manual). The current value is CC_NORM_MAX=2.00

 Norm of t1 vector:      0.19802314      S-energy:    -0.00586490      T1 diagnostic:  0.01845546
                                                                       D1 diagnostic:  0.07419550
 Norm of t2 vector:     16.34962254      P-energy:    -1.93824663
                                         Alpha-Beta:  -1.36333426
                                         Alpha-Alpha: -0.30518978
                                         Beta-Beta:   -0.26972259

 Singles amplitudes (print threshold =  0.500E-01):

         I         SYM. A    A   T(IA) [Beta-Beta]

        12         1         1      0.10447867
        19         2         1      0.08116332

 Doubles amplitudes (print threshold =  0.500E-01):

         I         J         SYM. A    SYM. B    A         B      T(IJ, AB) [Alpha-Alpha]

        20        11         1         2        36        56     -0.05156492
        20        11         1         2        36        62     -0.05661887
        20        11         1         2        49        56     -0.05221533
        20        11         1         2        49        62     -0.05632756
        20        11         1         2        51        56     -0.05074416
        20        11         1         2        51        62     -0.05636180
        20        11         1         2        58        22     -0.05629247
        20        11         1         2        58        33      0.07278200
        20        11         1         2        58        39      0.09189415
        20        11         1         2        58        56      0.10460519
        20        11         1         2        58        62      0.11574710
        20        11         1         2        58        78      0.10130975
        20        11         1         2        58        85     -0.07142014
        20        11         1         2        77        33      0.05130935
        20        11         1         2        77        39      0.06800246
        20        11         1         2        77        56      0.07865950
        20        11         1         2        77        62      0.08995838
        20        11         1         2        77        78      0.08060207
        20        11         1         2        77        85     -0.05835037
        20        11         1         2        79        62     -0.05414915
        20        11         1         2        81        39     -0.05036315
        20        11         1         2        81        56     -0.06095200
        20        11         1         2        81        62     -0.07159290
        20        11         1         2        81        78     -0.06559666
        20        11         1         2        82        62     -0.05069458
        20        11         1         2        84        33      0.05355269
        20        11         1         2        84        39      0.06992590
        20        11         1         2        84        56      0.07710096
        20        11         1         2        84        62      0.08721027
        20        11         1         2        84        78      0.07689127
        20        11         1         2        84        85     -0.05616817
        20        11         1         2        91        22     -0.05541649
        20        11         1         2        91        33      0.07592159
        20        11         1         2        91        39      0.10544975
        20        11         1         2        91        56      0.12888100
        20        11         1         2        91        62      0.15481138
        20        11         1         2        91        78      0.14587744
        20        11         1         2        91        85     -0.11044923
        20        11         1         2        91        87     -0.05613798
        20        11         1         2        95        62      0.05259413
        20        11         1         2       112        33      0.06537801
        20        11         1         2       112        39      0.09278173
        20        11         1         2       112        56      0.11680667
        20        11         1         2       112        62      0.14526667
        20        11         1         2       112        78      0.14232215
        20        11         1         2       112        85     -0.11235931
        20        11         1         2       112        87     -0.05974156
        20        11         1         2       123        62      0.05166645
        20        11         1         2       123        78      0.05237696
        20        11         1         2       124        39     -0.05798289
        20        11         1         2       124        56     -0.07520311
        20        11         1         2       124        62     -0.09693205
        20        11         1         2       124        78     -0.09909311
        20        11         1         2       124        85      0.08202546
        20        11         1         2       127        62     -0.05461114
        20        11         1         2       127        78     -0.05821825
        20        11         1         2       127        85      0.05082022
        20        11         2         1        22        58      0.05629247
        20        11         2         1        22        91      0.05541649
        20        11         2         1        33        58     -0.07278200
        20        11         2         1        33        77     -0.05130935
        20        11         2         1        33        84     -0.05355269
        20        11         2         1        33        91     -0.07592159
        20        11         2         1        33       112     -0.06537801
        20        11         2         1        39        58     -0.09189415
        20        11         2         1        39        77     -0.06800246
        20        11         2         1        39        81      0.05036315
        20        11         2         1        39        84     -0.06992590
        20        11         2         1        39        91     -0.10544975
        20        11         2         1        39       112     -0.09278173
        20        11         2         1        39       124      0.05798289
        20        11         2         1        56        36      0.05156492
        20        11         2         1        56        49      0.05221533
        20        11         2         1        56        51      0.05074416
        20        11         2         1        56        58     -0.10460519
        20        11         2         1        56        77     -0.07865950
        20        11         2         1        56        81      0.06095200
        20        11         2         1        56        84     -0.07710096
        20        11         2         1        56        91     -0.12888100
        20        11         2         1        56       112     -0.11680667
        20        11         2         1        56       124      0.07520311
        20        11         2         1        62        36      0.05661887
        20        11         2         1        62        49      0.05632756
        20        11         2         1        62        51      0.05636180
        20        11         2         1        62        58     -0.11574710
        20        11         2         1        62        77     -0.08995838
        20        11         2         1        62        79      0.05414915
        20        11         2         1        62        81      0.07159290
        20        11         2         1        62        82      0.05069458
        20        11         2         1        62        84     -0.08721027
        20        11         2         1        62        91     -0.15481138
        20        11         2         1        62        95     -0.05259413
        20        11         2         1        62       112     -0.14526667
        20        11         2         1        62       123     -0.05166645
        20        11         2         1        62       124      0.09693205
        20        11         2         1        62       127      0.05461114
        20        11         2         1        78        58     -0.10130975
        20        11         2         1        78        77     -0.08060207
        20        11         2         1        78        81      0.06559666
        20        11         2         1        78        84     -0.07689127
        20        11         2         1        78        91     -0.14587744
        20        11         2         1        78       112     -0.14232215
        20        11         2         1        78       123     -0.05237696
        20        11         2         1        78       124      0.09909311
        20        11         2         1        78       127      0.05821825
        20        11         2         1        85        58      0.07142014
        20        11         2         1        85        77      0.05835037
        20        11         2         1        85        84      0.05616817
        20        11         2         1        85        91      0.11044923
        20        11         2         1        85       112      0.11235931
        20        11         2         1        85       124     -0.08202546
        20        11         2         1        85       127     -0.05082022
        20        11         2         1        87        91      0.05613798
        20        11         2         1        87       112      0.05974156
        20        12         1         2        58        33     -0.05863942
        20        12         1         2        58        39     -0.07065319
        20        12         1         2        58        56     -0.08044930
        20        12         1         2        58        62     -0.08706847
        20        12         1         2        58        78     -0.07561922
        20        12         1         2        58        85      0.05255828
        20        12         1         2        77        39     -0.05434351
        20        12         1         2        77        56     -0.06131528
        20        12         1         2        77        62     -0.06995736
        20        12         1         2        77        78     -0.06190476
        20        12         1         2        81        62      0.05561474
        20        12         1         2        84        39     -0.05183265
        20        12         1         2        84        56     -0.05801684
        20        12         1         2        84        62     -0.06442934
        20        12         1         2        84        78     -0.05690902
        20        12         1         2        91        33     -0.05729234
        20        12         1         2        91        39     -0.07803058
        20        12         1         2        91        56     -0.09497527
        20        12         1         2        91        62     -0.11268206
        20        12         1         2        91        78     -0.10633971
        20        12         1         2        91        85      0.07969691
        20        12         1         2       112        39     -0.06793850
        20        12         1         2       112        56     -0.08410572
        20        12         1         2       112        62     -0.10502140
        20        12         1         2       112        78     -0.10245541
        20        12         1         2       112        85      0.08084083
        20        12         1         2       124        56      0.05337192
        20        12         1         2       124        62      0.06889766
        20        12         1         2       124        78      0.07087904
        20        12         1         2       124        85     -0.05848510
        20        12         2         1        33        58      0.05863942
        20        12         2         1        33        91      0.05729234
        20        12         2         1        39        58      0.07065319
        20        12         2         1        39        77      0.05434351
        20        12         2         1        39        84      0.05183265
        20        12         2         1        39        91      0.07803058
        20        12         2         1        39       112      0.06793850
        20        12         2         1        56        58      0.08044930
        20        12         2         1        56        77      0.06131528
        20        12         2         1        56        84      0.05801684
        20        12         2         1        56        91      0.09497527
        20        12         2         1        56       112      0.08410572
        20        12         2         1        56       124     -0.05337192
        20        12         2         1        62        58      0.08706847
        20        12         2         1        62        77      0.06995736
        20        12         2         1        62        81     -0.05561474
        20        12         2         1        62        84      0.06442934
        20        12         2         1        62        91      0.11268206
        20        12         2         1        62       112      0.10502140
        20        12         2         1        62       124     -0.06889766
        20        12         2         1        78        58      0.07561922
        20        12         2         1        78        77      0.06190476
        20        12         2         1        78        84      0.05690902
        20        12         2         1        78        91      0.10633971
        20        12         2         1        78       112      0.10245541
        20        12         2         1        78       124     -0.07087904
        20        12         2         1        85        58     -0.05255828
        20        12         2         1        85        91     -0.07969691
        20        12         2         1        85       112     -0.08084083
        20        12         2         1        85       124      0.05848510
        20        14         1         2        91        62      0.05724786
        20        14         1         2        91        78      0.05391181
        20        14         1         2       112        62      0.05304321
        20        14         1         2       112        78      0.05187608
        20        14         2         1        62        91     -0.05724786
        20        14         2         1        62       112     -0.05304321
        20        14         2         1        78        91     -0.05391181
        20        14         2         1        78       112     -0.05187608
        25        11         1         3        58        55     -0.05140362
        25        11         1         3        58        61     -0.05661022
        25        11         1         3        91        55     -0.06067573
        25        11         1         3        91        61     -0.07274445
        25        11         1         3        91        77      0.06760021
        25        11         1         3        91        84     -0.05189506
        25        11         1         3       112        55     -0.05428926
        25        11         1         3       112        61     -0.06758398
        25        11         1         3       112        77      0.06544989
        25        11         1         3       112        84     -0.05251091
        25        11         3         1        55        58      0.05140362
        25        11         3         1        55        91      0.06067573
        25        11         3         1        55       112      0.05428926
        25        11         3         1        61        58      0.05661022
        25        11         3         1        61        91      0.07274445
        25        11         3         1        61       112      0.06758398
        25        11         3         1        77        91     -0.06760021
        25        11         3         1        77       112     -0.06544989
        25        11         3         1        84        91      0.05189506
        25        11         3         1        84       112      0.05251091
        25        12         1         3        91        61      0.05609851
        25        12         1         3        91        77     -0.05210170
        25        12         1         3       112        61      0.05243583
        25        12         1         3       112        77     -0.05029703
        25        12         3         1        61        91     -0.05609851
        25        12         3         1        61       112     -0.05243583
        25        12         3         1        77        91      0.05210170
        25        12         3         1        77       112      0.05029703
        26        11         1         3        58        32     -0.06080917
        26        11         1         3        58        38     -0.07712806
        26        11         1         3        58        55      0.08905934
        26        11         1         3        58        61      0.09830165
        26        11         1         3        58        77     -0.08461032
        26        11         1         3        58        84      0.06063327
        26        11         1         3        77        38     -0.05625822
        26        11         1         3        77        55      0.06618455
        26        11         1         3        77        61      0.07544834
        26        11         1         3        77        77     -0.06651063
        26        11         1         3        81        55     -0.05153117
        26        11         1         3        81        61     -0.06040272
        26        11         1         3        81        77      0.05445938
        26        11         1         3        84        38     -0.05869095
        26        11         1         3        84        55      0.06558923
        26        11         1         3        84        61      0.07383657
        26        11         1         3        84        77     -0.06404345
        26        11         1         3        91        32     -0.06394576
        26        11         1         3        91        38     -0.08897399
        26        11         1         3        91        55      0.11073979
        26        11         1         3        91        61      0.13262442
        26        11         1         3        91        77     -0.12283050
        26        11         1         3        91        84      0.09445061
        26        11         1         3       112        32     -0.05523507
        26        11         1         3       112        38     -0.07846701
        26        11         1         3       112        55      0.10058971
        26        11         1         3       112        61      0.12469066
        26        11         1         3       112        77     -0.12004049
        26        11         1         3       112        84      0.09621143
        26        11         1         3       112        86      0.05102421
        26        11         1         3       124        55     -0.06497477
        26        11         1         3       124        61     -0.08341300
        26        11         1         3       124        77      0.08374209
        26        11         1         3       124        84     -0.07034796
        26        11         3         1        32        58      0.06080917
        26        11         3         1        32        91      0.06394576
        26        11         3         1        32       112      0.05523507
        26        11         3         1        38        58      0.07712806
        26        11         3         1        38        77      0.05625822
        26        11         3         1        38        84      0.05869095
        26        11         3         1        38        91      0.08897399
        26        11         3         1        38       112      0.07846701
        26        11         3         1        55        58     -0.08905934
        26        11         3         1        55        77     -0.06618455
        26        11         3         1        55        81      0.05153117
        26        11         3         1        55        84     -0.06558923
        26        11         3         1        55        91     -0.11073979
        26        11         3         1        55       112     -0.10058971
        26        11         3         1        55       124      0.06497477
        26        11         3         1        61        58     -0.09830165
        26        11         3         1        61        77     -0.07544834
        26        11         3         1        61        81      0.06040272
        26        11         3         1        61        84     -0.07383657
        26        11         3         1        61        91     -0.13262442
        26        11         3         1        61       112     -0.12469066
        26        11         3         1        61       124      0.08341300
        26        11         3         1        77        58      0.08461032
        26        11         3         1        77        77      0.06651063
        26        11         3         1        77        81     -0.05445938
        26        11         3         1        77        84      0.06404345
        26        11         3         1        77        91      0.12283050
        26        11         3         1        77       112      0.12004049
        26        11         3         1        77       124     -0.08374209
        26        11         3         1        84        58     -0.06063327
        26        11         3         1        84        91     -0.09445061
        26        11         3         1        84       112     -0.09621143
        26        11         3         1        84       124      0.07034796
        26        11         3         1        86       112     -0.05102421
        26        12         1         3        58        38      0.05953469
        26        12         1         3        58        55     -0.06850574
        26        12         1         3        58        61     -0.07385052
        26        12         1         3        58        77      0.06295362
        26        12         1         3        77        55     -0.05272716
        26        12         1         3        77        61     -0.05990732
        26        12         1         3        77        77      0.05210978
        26        12         1         3        84        61     -0.05467302
        26        12         1         3        91        38      0.06510748
        26        12         1         3        91        55     -0.08001587
        26        12         1         3        91        61     -0.09470479
        26        12         1         3        91        77      0.08791039
        26        12         1         3        91        84     -0.06686911
        26        12         1         3       112        38      0.05631288
        26        12         1         3       112        55     -0.07057930
        26        12         1         3       112        61     -0.08793952
        26        12         1         3       112        77      0.08450815
        26        12         1         3       112        84     -0.06769894
        26        12         1         3       124        61      0.05750203
        26        12         1         3       124        77     -0.05831069
        26        12         3         1        38        58     -0.05953469
        26        12         3         1        38        91     -0.06510748
        26        12         3         1        38       112     -0.05631288
        26        12         3         1        55        58      0.06850574
        26        12         3         1        55        77      0.05272716
        26        12         3         1        55        91      0.08001587
        26        12         3         1        55       112      0.07057930
        26        12         3         1        61        58      0.07385052
        26        12         3         1        61        77      0.05990732
        26        12         3         1        61        84      0.05467302
        26        12         3         1        61        91      0.09470479
        26        12         3         1        61       112      0.08793952
        26        12         3         1        61       124     -0.05750203
        26        12         3         1        77        58     -0.06295362
        26        12         3         1        77        77     -0.05210978
        26        12         3         1        77        91     -0.08791039
        26        12         3         1        77       112     -0.08450815
        26        12         3         1        77       124      0.05831069
        26        12         3         1        84        91      0.06686911
        26        12         3         1        84       112      0.06769894
        26        14         1         3        91        61      0.05123231
        26        14         3         1        61        91     -0.05123231

         I         J         SYM. A    SYM. B    A         B      T(IJ, AB) [Beta-Beta]

        25        11         1         3        58        55     -0.05140362
        25        11         1         3        58        61     -0.05661022
        25        11         1         3        91        55     -0.06067573
        25        11         1         3        91        61     -0.07274445
        25        11         1         3        91        77      0.06760021
        25        11         1         3        91        84     -0.05189506
        25        11         1         3       112        55     -0.05428926
        25        11         1         3       112        61     -0.06758398
        25        11         1         3       112        77      0.06544989
        25        11         1         3       112        84     -0.05251091
        25        11         3         1        55        58      0.05140362
        25        11         3         1        55        91      0.06067573
        25        11         3         1        55       112      0.05428926
        25        11         3         1        61        58      0.05661022
        25        11         3         1        61        91      0.07274445
        25        11         3         1        61       112      0.06758398
        25        11         3         1        77        91     -0.06760021
        25        11         3         1        77       112     -0.06544989
        25        11         3         1        84        91      0.05189506
        25        11         3         1        84       112      0.05251091
        25        12         1         3        91        61      0.05609851
        25        12         1         3        91        77     -0.05210170
        25        12         1         3       112        61      0.05243583
        25        12         1         3       112        77     -0.05029703
        25        12         3         1        61        91     -0.05609851
        25        12         3         1        61       112     -0.05243583
        25        12         3         1        77        91      0.05210170
        25        12         3         1        77       112      0.05029703
        26        11         1         3        58        32     -0.06080917
        26        11         1         3        58        38     -0.07712806
        26        11         1         3        58        55      0.08905934
        26        11         1         3        58        61      0.09830165
        26        11         1         3        58        77     -0.08461032
        26        11         1         3        58        84      0.06063327
        26        11         1         3        77        38     -0.05625822
        26        11         1         3        77        55      0.06618455
        26        11         1         3        77        61      0.07544834
        26        11         1         3        77        77     -0.06651063
        26        11         1         3        81        55     -0.05153117
        26        11         1         3        81        61     -0.06040272
        26        11         1         3        81        77      0.05445938
        26        11         1         3        84        38     -0.05869095
        26        11         1         3        84        55      0.06558923
        26        11         1         3        84        61      0.07383657
        26        11         1         3        84        77     -0.06404345
        26        11         1         3        91        32     -0.06394576
        26        11         1         3        91        38     -0.08897399
        26        11         1         3        91        55      0.11073979
        26        11         1         3        91        61      0.13262442
        26        11         1         3        91        77     -0.12283050
        26        11         1         3        91        84      0.09445061
        26        11         1         3       112        32     -0.05523507
        26        11         1         3       112        38     -0.07846701
        26        11         1         3       112        55      0.10058971
        26        11         1         3       112        61      0.12469066
        26        11         1         3       112        77     -0.12004049
        26        11         1         3       112        84      0.09621143
        26        11         1         3       112        86      0.05102421
        26        11         1         3       124        55     -0.06497477
        26        11         1         3       124        61     -0.08341300
        26        11         1         3       124        77      0.08374209
        26        11         1         3       124        84     -0.07034796
        26        11         3         1        32        58      0.06080917
        26        11         3         1        32        91      0.06394576
        26        11         3         1        32       112      0.05523507
        26        11         3         1        38        58      0.07712806
        26        11         3         1        38        77      0.05625822
        26        11         3         1        38        84      0.05869095
        26        11         3         1        38        91      0.08897399
        26        11         3         1        38       112      0.07846701
        26        11         3         1        55        58     -0.08905934
        26        11         3         1        55        77     -0.06618455
        26        11         3         1        55        81      0.05153117
        26        11         3         1        55        84     -0.06558923
        26        11         3         1        55        91     -0.11073979
        26        11         3         1        55       112     -0.10058971
        26        11         3         1        55       124      0.06497477
        26        11         3         1        61        58     -0.09830165
        26        11         3         1        61        77     -0.07544834
        26        11         3         1        61        81      0.06040272
        26        11         3         1        61        84     -0.07383657
        26        11         3         1        61        91     -0.13262442
        26        11         3         1        61       112     -0.12469066
        26        11         3         1        61       124      0.08341300
        26        11         3         1        77        58      0.08461032
        26        11         3         1        77        77      0.06651063
        26        11         3         1        77        81     -0.05445938
        26        11         3         1        77        84      0.06404345
        26        11         3         1        77        91      0.12283050
        26        11         3         1        77       112      0.12004049
        26        11         3         1        77       124     -0.08374209
        26        11         3         1        84        58     -0.06063327
        26        11         3         1        84        91     -0.09445061
        26        11         3         1        84       112     -0.09621143
        26        11         3         1        84       124      0.07034796
        26        11         3         1        86       112     -0.05102421
        26        12         1         3        58        38      0.05953469
        26        12         1         3        58        55     -0.06850574
        26        12         1         3        58        61     -0.07385052
        26        12         1         3        58        77      0.06295362
        26        12         1         3        77        55     -0.05272716
        26        12         1         3        77        61     -0.05990732
        26        12         1         3        77        77      0.05210978
        26        12         1         3        84        61     -0.05467302
        26        12         1         3        91        38      0.06510748
        26        12         1         3        91        55     -0.08001587
        26        12         1         3        91        61     -0.09470479
        26        12         1         3        91        77      0.08791039
        26        12         1         3        91        84     -0.06686911
        26        12         1         3       112        38      0.05631288
        26        12         1         3       112        55     -0.07057930
        26        12         1         3       112        61     -0.08793952
        26        12         1         3       112        77      0.08450815
        26        12         1         3       112        84     -0.06769894
        26        12         1         3       124        61      0.05750203
        26        12         1         3       124        77     -0.05831069
        26        12         3         1        38        58     -0.05953469
        26        12         3         1        38        91     -0.06510748
        26        12         3         1        38       112     -0.05631288
        26        12         3         1        55        58      0.06850574
        26        12         3         1        55        77      0.05272716
        26        12         3         1        55        91      0.08001587
        26        12         3         1        55       112      0.07057930
        26        12         3         1        61        58      0.07385052
        26        12         3         1        61        77      0.05990732
        26        12         3         1        61        84      0.05467302
        26        12         3         1        61        91      0.09470479
        26        12         3         1        61       112      0.08793952
        26        12         3         1        61       124     -0.05750203
        26        12         3         1        77        58     -0.06295362
        26        12         3         1        77        77     -0.05210978
        26        12         3         1        77        91     -0.08791039
        26        12         3         1        77       112     -0.08450815
        26        12         3         1        77       124      0.05831069
        26        12         3         1        84        91      0.06686911
        26        12         3         1        84       112      0.06769894

         I         J         SYM. A    SYM. B    A         B      T(IJ, AB) [Alpha-Beta]

         9         6         1         1        91       125      0.05994867
         9         6         1         1       112       125      0.06019746
         9         6         1         1       125        91      0.06126525
         9         6         1         1       125       112      0.06160129
         9         6         2         2        78        86     -0.05043365
         6         9         1         1        91       125      0.06126525
         6         9         1         1       112       125      0.06160129
         6         9         1         1       125        91      0.05994867
         6         9         1         1       125       112      0.06019746
         6         9         2         2        86        78     -0.05043365
         9         9         1         1        50        50      0.05458421
         9         9         1         1        50        60     -0.06430712
         9         9         1         1        60        50     -0.06430712
         9         9         1         1        60        60      0.07545258
         9         9         1         1        60        82      0.05020474
         9         9         1         1        60        91     -0.06375418
         9         9         1         1        60       112     -0.05953524
         9         9         1         1        82        60      0.05020474
         9         9         1         1        82        91     -0.05520837
         9         9         1         1        82       112     -0.05276610
         9         9         1         1        91        60     -0.06375418
         9         9         1         1        91        82     -0.05520837
         9         9         1         1        91        91      0.08687138
         9         9         1         1        91       112      0.08642490
         9         9         1         1        91       124     -0.06098288
         9         9         1         1       112        60     -0.05953524
         9         9         1         1       112        82     -0.05276610
         9         9         1         1       112        91      0.08642490
         9         9         1         1       112       112      0.08902673
         9         9         1         1       112       124     -0.06533443
         9         9         1         1       124        91     -0.06098288
         9         9         1         1       124       112     -0.06533443
         9         9         2         2        22        62      0.05697822
         9         9         2         2        22        78      0.05137287
         9         9         2         2        33        39     -0.05780513
[...]
        10        10         1         1       112        77      0.05378023
        10        10         1         1       112        81     -0.10767327
        10        10         1         1       112        82     -0.13628240
        10        10         1         1       112        91      0.21471952
        10        10         1         1       112        95     -0.08332520
        10        10         1         1       112       105      0.05304412
        10        10         1         1       112       112      0.21792928
        10        10         1         1       112       123      0.07697911
        10        10         1         1       112       124     -0.15782863
        10        10         1         1       112       127     -0.08998475
        10        10         1         1       120        50     -0.05397199
        10        10         1         1       120        60      0.05511398
        10        10         1         1       120        91     -0.05371638
        10        10         1         1       123        60     -0.05099688
        10        10         1         1       123        91      0.07447430
        10        10         1         1       123       112      0.07697911
        10        10         1         1       123       124     -0.05804867
        10        10         1         1       124        50     -0.06958481
        10        10         1         1       124        60      0.09699130
        10        10         1         1       124        81      0.07127788
        10        10         1         1       124        82      0.09062720
        10        10         1         1       124        91     -0.14891053
        10        10         1         1       124        95      0.05509434
        10        10         1         1       124       112     -0.15782863
        10        10         1         1       124       123     -0.05804867
        10        10         1         1       124       124      0.11960101
        10        10         1         1       124       127      0.07158456
        10        10         1         1       127        60      0.05224148
        10        10         1         1       127        91     -0.08217034
        10        10         1         1       127       112     -0.08998475
        10        10         1         1       127       124      0.07158456
        10        10         2         2        16        39     -0.06186434
        10        10         2         2        16        56     -0.06890800
        10        10         2         2        16        62     -0.07500576
        10        10         2         2        16        78     -0.06465154
        10        10         2         2        22        22     -0.06970113
        10        10         2         2        22        33      0.08865668
        10        10         2         2        22        39      0.11319868
        10        10         2         2        22        56      0.12824070
        10        10         2         2        22        62      0.14161224
        10        10         2         2        22        78      0.12337340
        10        10         2         2        22        85     -0.08736124
        10        10         2         2        33        22      0.08865668
        10        10         2         2        33        33     -0.11607360
        10        10         2         2        33        39     -0.15195527
        10        10         2         2        33        56     -0.17626366
        10        10         2         2        33        62     -0.19858855
        10        10         2         2        33        78     -0.17583941
        10        10         2         2        33        85      0.12617607
        10        10         2         2        33        87      0.06043500
        10        10         2         2        34        56      0.05500453
        10        10         2         2        34        62      0.06205774
        10        10         2         2        34        78      0.05497873
        10        10         2         2        39        16     -0.06186434
        10        10         2         2        39        22      0.11319868
        10        10         2         2        39        33     -0.15195527
        10        10         2         2        39        39     -0.20438734
        10        10         2         2        39        40     -0.06701034
        10        10         2         2        39        55     -0.05896958
        10        10         2         2        39        56     -0.24400564
        10        10         2         2        39        57     -0.05150246
        10        10         2         2        39        62     -0.28224199
        10        10         2         2        39        78     -0.25565118
        10        10         2         2        39        85      0.18710235
        10        10         2         2        39        87      0.09116283
        10        10         2         2        40        39     -0.06701034
        10        10         2         2        40        56     -0.08123337
        10        10         2         2        40        62     -0.09478899
        10        10         2         2        40        78     -0.08631433
        10        10         2         2        40        85      0.06339595
        10        10         2         2        55        39     -0.05896958
        10        10         2         2        55        56     -0.07277805
        10        10         2         2        55        62     -0.08694299
        10        10         2         2        55        78     -0.08090937
        10        10         2         2        55        85      0.06064523
        10        10         2         2        56        16     -0.06890800
        10        10         2         2        56        22      0.12824070
        10        10         2         2        56        33     -0.17626366
        10        10         2         2        56        34      0.05500453
        10        10         2         2        56        39     -0.24400564
        10        10         2         2        56        40     -0.08123337
        10        10         2         2        56        55     -0.07277805
        10        10         2         2        56        56     -0.30168156
        10        10         2         2        56        57     -0.06390988
        10        10         2         2        56        62     -0.36029906
        10        10         2         2        56        78     -0.33601890
        10        10         2         2        56        85      0.25248909
        10        10         2         2        56        87      0.12600481
        10        10         2         2        57        39     -0.05150246
        10        10         2         2        57        56     -0.06390988
        10        10         2         2        57        62     -0.07668456
        10        10         2         2        57        78     -0.07179359
        10        10         2         2        57        85      0.05414191
        10        10         2         2        62        16     -0.07500576
        10        10         2         2        62        22      0.14161224
        10        10         2         2        62        33     -0.19858855
        10        10         2         2        62        34      0.06205774
        10        10         2         2        62        39     -0.28224199
        10        10         2         2        62        40     -0.09478899
        10        10         2         2        62        55     -0.08694299
        10        10         2         2        62        56     -0.36029906
        10        10         2         2        62        57     -0.07668456
        10        10         2         2        62        62     -0.44444179
        10        10         2         2        62        78     -0.42786927
        10        10         2         2        62        79      0.05776694
        10        10         2         2        62        85      0.33159028
        10        10         2         2        62        87      0.17069008
        10        10         2         2        62        90      0.06724796
        10        10         2         2        78        16     -0.06465154
        10        10         2         2        78        22      0.12337340
        10        10         2         2        78        33     -0.17583941
        10        10         2         2        78        34      0.05497873
        10        10         2         2        78        39     -0.25565118
        10        10         2         2        78        40     -0.08631433
        10        10         2         2        78        55     -0.08090937
        10        10         2         2        78        56     -0.33601890
        10        10         2         2        78        57     -0.07179359
        10        10         2         2        78        62     -0.42786927
        10        10         2         2        78        78     -0.42621414
        10        10         2         2        78        79      0.05758413
        10        10         2         2        78        85      0.34239568
        10        10         2         2        78        87      0.18338634
        10        10         2         2        78        90      0.07491295
        10        10         2         2        79        62      0.05776694
        10        10         2         2        79        78      0.05758413
        10        10         2         2        85        22     -0.08736124
        10        10         2         2        85        33      0.12617607
        10        10         2         2        85        39      0.18710235
        10        10         2         2        85        40      0.06339595
        10        10         2         2        85        55      0.06064523
        10        10         2         2        85        56      0.25248909
        10        10         2         2        85        57      0.05414191
        10        10         2         2        85        62      0.33159028
        10        10         2         2        85        78      0.34239568
        10        10         2         2        85        85     -0.28655725
        10        10         2         2        85        87     -0.16125744
        10        10         2         2        85        90     -0.06918853
        10        10         2         2        87        33      0.06043500
        10        10         2         2        87        39      0.09116283
        10        10         2         2        87        56      0.12600481
        10        10         2         2        87        62      0.17069008
        10        10         2         2        87        78      0.18338634
        10        10         2         2        87        85     -0.16125744
        10        10         2         2        87        87     -0.09696583
        10        10         2         2        90        62      0.06724796
        10        10         2         2        90        78      0.07491295
        10        10         2         2        90        85     -0.06918853
        10        10         3         3        15        38     -0.05898345
        10        10         3         3        15        55      0.06681590
        10        10         3         3        15        61      0.07260829
        10        10         3         3        15        77     -0.06161254
        10        10         3         3        21        21     -0.07020699
        10        10         3         3        21        32      0.08730162
        10        10         3         3        21        38      0.11169446
        10        10         3         3        21        55     -0.12871222
        10        10         3         3        21        61     -0.14193773
        10        10         3         3        21        77      0.12175619
        10        10         3         3        21        84     -0.08759970
        10        10         3         3        32        21      0.08730162
        10        10         3         3        32        32     -0.11173821
        10        10         3         3        32        38     -0.14656547
        10        10         3         3        32        39      0.05712146
        10        10         3         3        32        55      0.17292826
        10        10         3         3        32        61      0.19457127
        10        10         3         3        32        77     -0.16964316
        10        10         3         3        32        84      0.12368629
        10        10         3         3        32        86      0.05920264
        10        10         3         3        33        38      0.05381836
        10        10         3         3        33        55     -0.06353570
        10        10         3         3        33        61     -0.07158879
        10        10         3         3        33        77      0.06245991
        10        10         3         3        38        15     -0.05898345
        10        10         3         3        38        21      0.11169446
        10        10         3         3        38        32     -0.14656547
        10        10         3         3        38        33      0.05381836
        10        10         3         3        38        38     -0.19750262
        10        10         3         3        38        39      0.07745705
        10        10         3         3        38        54     -0.05343911
        10        10         3         3        38        55      0.23980538
        10        10         3         3        38        56      0.05522703
        10        10         3         3        38        61      0.27697428
        10        10         3         3        38        77     -0.24702289
        10        10         3         3        38        78      0.05481963
        10        10         3         3        38        84      0.18368132
        10        10         3         3        38        86      0.08943446
        10        10         3         3        39        32      0.05712146
        10        10         3         3        39        38      0.07745705
        10        10         3         3        39        55     -0.09530751
        10        10         3         3        39        61     -0.11091367
        10        10         3         3        39        77      0.09937764
        10        10         3         3        39        84     -0.07412765
        10        10         3         3        54        38     -0.05343911
        10        10         3         3        54        55      0.06708944
        10        10         3         3        54        61      0.08002087
        10        10         3         3        54        77     -0.07330893
        10        10         3         3        54        84      0.05581615
        10        10         3         3        55        15      0.06681590
        10        10         3         3        55        21     -0.12871222
        10        10         3         3        55        32      0.17292826
        10        10         3         3        55        33     -0.06353570
        10        10         3         3        55        38      0.23980538
        10        10         3         3        55        39     -0.09530751
        10        10         3         3        55        54      0.06708944
        10        10         3         3        55        55     -0.30159267
        10        10         3         3        55        56     -0.06972179
        10        10         3         3        55        61     -0.35967212
        10        10         3         3        55        77      0.33027210
        10        10         3         3        55        78     -0.07332070
        10        10         3         3        55        84     -0.25212745
        10        10         3         3        55        86     -0.12573702
        10        10         3         3        56        38      0.05522703
        10        10         3         3        56        55     -0.06972179
        10        10         3         3        56        61     -0.08352266
        10        10         3         3        56        77      0.07698718
        10        10         3         3        56        84     -0.05898101
        10        10         3         3        61        15      0.07260829
        10        10         3         3        61        21     -0.14193773
        10        10         3         3        61        32      0.19457127
        10        10         3         3        61        33     -0.07158879
        10        10         3         3        61        38      0.27697428
        10        10         3         3        61        39     -0.11091367
        10        10         3         3        61        54      0.08002087
        10        10         3         3        61        55     -0.35967212
        10        10         3         3        61        56     -0.08352266
        10        10         3         3        61        61     -0.44299254
        10        10         3         3        61        77      0.41988743
        10        10         3         3        61        78     -0.09324984
        10        10         3         3        61        84     -0.33056727
        10        10         3         3        61        86     -0.17003886
        10        10         3         3        61        89     -0.06717518
        10        10         3         3        77        15     -0.06161254
        10        10         3         3        77        21      0.12175619
        10        10         3         3        77        32     -0.16964316
        10        10         3         3        77        33      0.06245991
        10        10         3         3        77        38     -0.24702289
        10        10         3         3        77        39      0.09937764
        10        10         3         3        77        54     -0.07330893
        10        10         3         3        77        55      0.33027210
        10        10         3         3        77        56      0.07698718
        10        10         3         3        77        61      0.41988743
        10        10         3         3        77        77     -0.41176863
        10        10         3         3        77        78      0.09148262
        10        10         3         3        77        84      0.33600428
        10        10         3         3        77        86      0.17981503
        10        10         3         3        77        89      0.07365434
        10        10         3         3        78        38      0.05481963
        10        10         3         3        78        55     -0.07332070
        10        10         3         3        78        61     -0.09324984
        10        10         3         3        78        77      0.09148262
        10        10         3         3        78        84     -0.07468172
        10        10         3         3        84        21     -0.08759970
        10        10         3         3        84        32      0.12368629
        10        10         3         3        84        38      0.18368132
        10        10         3         3        84        39     -0.07412765
        10        10         3         3        84        54      0.05581615
        10        10         3         3        84        55     -0.25212745
        10        10         3         3        84        56     -0.05898101
        10        10         3         3        84        61     -0.33056727
        10        10         3         3        84        77      0.33600428
