/global/cscratch1/sd/bkincaid/Ir/250-610/runs/scf_350

     Program PWSCF v.6.4.1 starts on 17Jan2022 at 13:46:36 

     This program is part of the open-source Quantum ESPRESSO suite
     for quantum simulation of materials; please cite
         "P. Giannozzi et al., J. Phys.:Condens. Matter 21 395502 (2009);
         "P. Giannozzi et al., J. Phys.:Condens. Matter 29 465901 (2017);
          URL http://www.quantum-espresso.org", 
     in publications or presentations arising from this work. More details at
     http://www.quantum-espresso.org/quote

     Parallel version (MPI & OpenMP), running on      32 processor cores
     Number of MPI processes:                32
     Threads/MPI process:                     1

     MPI processes distributed on     1 nodes
     R & G space division:  proc/nbgrp/npool/nimage =      32
     Reading input from scf_350.in

     Current dimensions of program PWSCF are:
     Max number of different atomic species (ntypx) = 10
     Max number of k-points (npk) =  40000
     Max angular momentum in pseudopotentials (lmaxx) =  3

     IMPORTANT: XC functional enforced from input :
     Exchange-correlation      = PBE ( 1  4  3  4 0 0)
     Any further DFT definition will be discarded
     Please, verify this is what you really want


     gamma-point specific algorithms are used
     Message from routine setup:
     the system is metallic, specify occupations

     Subspace diagonalization in iterative solution of the eigenvalue problem:
     one sub-group per band group will be used
     scalapack distributed-memory algorithm (size of sub-group:  4*  4 procs)

     Message from routine setup:
     DEPRECATED: symmetry with ibrav=0, use correct ibrav instead
 
     Parallelization info
     --------------------
     sticks:   dense  smooth     PW     G-vecs:    dense   smooth      PW
     Min        1788    1788    446               322336   322336   40298
     Max        1790    1790    448               322346   322346   40308
     Sum       57249   57249  14329             10314863 10314863 1289759
 


     bravais-lattice index     =            0
     lattice parameter (alat)  =      22.6767  a.u.
     unit-cell volume          =   11661.1222 (a.u.)^3
     number of atoms/cell      =            1
     number of atomic types    =            1
     number of electrons       =        17.00 (up:  10.00, down:   7.00)
     number of Kohn-Sham states=           12
     kinetic-energy cutoff     =     350.0000  Ry
     charge density cutoff     =    1400.0000  Ry
     convergence threshold     =      1.0E-06
     mixing beta               =       0.7000
     number of iterations used =            8  plain     mixing
     Exchange-correlation      = PBE ( 1  4  3  4 0 0)

     celldm(1)=  22.676714  celldm(2)=   0.000000  celldm(3)=   0.000000
     celldm(4)=   0.000000  celldm(5)=   0.000000  celldm(6)=   0.000000

     crystal axes: (cart. coord. in units of alat)
               a(1) = (   1.000000   0.000000   0.000000 )  
               a(2) = (   0.000000   1.000000   0.000000 )  
               a(3) = (   0.000000   0.000000   1.000000 )  

     reciprocal axes: (cart. coord. in units 2 pi/alat)
               b(1) = (  1.000000  0.000000  0.000000 )  
               b(2) = (  0.000000  1.000000  0.000000 )  
               b(3) = (  0.000000  0.000000  1.000000 )  


     PseudoPot. # 1 for Ir read from file:
     ./Ir.upf
     MD5 check sum: 4ec64f0b3ebe11de5a1e063b7aff0c74
     Pseudo is Norm-conserving, Zval = 17.0
     Generated by new atomic code, or converted to UPF format
     Using radial grid of 1188 points,  3 beta functions with: 
                l(1) =   1
                l(2) =   2
                l(3) =   3

     atomic species   valence    mass     pseudopotential
        Ir            17.00   192.20000     Ir( 1.00)

     Starting magnetic structure 
     atomic species   magnetization
        Ir           0.500

     48 Sym. Ops., with inversion, found


                                    s                        frac. trans.

      isym =  1     identity                                     

 cryst.   s( 1) = (     1          0          0      )
                  (     0          1          0      )
                  (     0          0          1      )

 cart.    s( 1) = (  1.0000000  0.0000000  0.0000000 )
                  (  0.0000000  1.0000000  0.0000000 )
                  (  0.0000000  0.0000000  1.0000000 )


      isym =  2     180 deg rotation - cart. axis [0,0,1]        

 cryst.   s( 2) = (    -1          0          0      )
                  (     0         -1          0      )
                  (     0          0          1      )

 cart.    s( 2) = ( -1.0000000  0.0000000  0.0000000 )
                  (  0.0000000 -1.0000000  0.0000000 )
                  (  0.0000000  0.0000000  1.0000000 )


      isym =  3     180 deg rotation - cart. axis [0,1,0]        

 cryst.   s( 3) = (    -1          0          0      )
                  (     0          1          0      )
                  (     0          0         -1      )

 cart.    s( 3) = ( -1.0000000  0.0000000  0.0000000 )
                  (  0.0000000  1.0000000  0.0000000 )
                  (  0.0000000  0.0000000 -1.0000000 )


      isym =  4     180 deg rotation - cart. axis [1,0,0]        

 cryst.   s( 4) = (     1          0          0      )
                  (     0         -1          0      )
                  (     0          0         -1      )

 cart.    s( 4) = (  1.0000000  0.0000000  0.0000000 )
                  (  0.0000000 -1.0000000  0.0000000 )
                  (  0.0000000  0.0000000 -1.0000000 )


      isym =  5     180 deg rotation - cart. axis [1,1,0]        

 cryst.   s( 5) = (     0          1          0      )
                  (     1          0          0      )
                  (     0          0         -1      )

 cart.    s( 5) = (  0.0000000  1.0000000  0.0000000 )
                  (  1.0000000  0.0000000  0.0000000 )
                  (  0.0000000  0.0000000 -1.0000000 )


      isym =  6     180 deg rotation - cart. axis [1,-1,0]       

 cryst.   s( 6) = (     0         -1          0      )
                  (    -1          0          0      )
                  (     0          0         -1      )

 cart.    s( 6) = (  0.0000000 -1.0000000  0.0000000 )
                  ( -1.0000000  0.0000000  0.0000000 )
                  (  0.0000000  0.0000000 -1.0000000 )


      isym =  7      90 deg rotation - cart. axis [0,0,-1]       

 cryst.   s( 7) = (     0         -1          0      )
                  (     1          0          0      )
                  (     0          0          1      )

 cart.    s( 7) = (  0.0000000  1.0000000  0.0000000 )
                  ( -1.0000000  0.0000000  0.0000000 )
                  (  0.0000000  0.0000000  1.0000000 )


      isym =  8      90 deg rotation - cart. axis [0,0,1]        

 cryst.   s( 8) = (     0          1          0      )
                  (    -1          0          0      )
                  (     0          0          1      )

 cart.    s( 8) = (  0.0000000 -1.0000000  0.0000000 )
                  (  1.0000000  0.0000000  0.0000000 )
                  (  0.0000000  0.0000000  1.0000000 )


      isym =  9     180 deg rotation - cart. axis [1,0,1]        

 cryst.   s( 9) = (     0          0          1      )
                  (     0         -1          0      )
                  (     1          0          0      )

 cart.    s( 9) = (  0.0000000  0.0000000  1.0000000 )
                  (  0.0000000 -1.0000000  0.0000000 )
                  (  1.0000000  0.0000000  0.0000000 )


      isym = 10     180 deg rotation - cart. axis [-1,0,1]       

 cryst.   s(10) = (     0          0         -1      )
                  (     0         -1          0      )
                  (    -1          0          0      )

 cart.    s(10) = (  0.0000000  0.0000000 -1.0000000 )
                  (  0.0000000 -1.0000000  0.0000000 )
                  ( -1.0000000  0.0000000  0.0000000 )


      isym = 11      90 deg rotation - cart. axis [0,1,0]        

 cryst.   s(11) = (     0          0         -1      )
                  (     0          1          0      )
                  (     1          0          0      )

 cart.    s(11) = (  0.0000000  0.0000000  1.0000000 )
                  (  0.0000000  1.0000000  0.0000000 )
                  ( -1.0000000  0.0000000  0.0000000 )


      isym = 12      90 deg rotation - cart. axis [0,-1,0]       

 cryst.   s(12) = (     0          0          1      )
                  (     0          1          0      )
                  (    -1          0          0      )

 cart.    s(12) = (  0.0000000  0.0000000 -1.0000000 )
                  (  0.0000000  1.0000000  0.0000000 )
                  (  1.0000000  0.0000000  0.0000000 )


      isym = 13     180 deg rotation - cart. axis [0,1,1]        

 cryst.   s(13) = (    -1          0          0      )
                  (     0          0          1      )
                  (     0          1          0      )

 cart.    s(13) = ( -1.0000000  0.0000000  0.0000000 )
                  (  0.0000000  0.0000000  1.0000000 )
                  (  0.0000000  1.0000000  0.0000000 )


      isym = 14     180 deg rotation - cart. axis [0,1,-1]       

 cryst.   s(14) = (    -1          0          0      )
                  (     0          0         -1      )
                  (     0         -1          0      )

 cart.    s(14) = ( -1.0000000  0.0000000  0.0000000 )
                  (  0.0000000  0.0000000 -1.0000000 )
                  (  0.0000000 -1.0000000  0.0000000 )


      isym = 15      90 deg rotation - cart. axis [-1,0,0]       

 cryst.   s(15) = (     1          0          0      )
                  (     0          0         -1      )
                  (     0          1          0      )

 cart.    s(15) = (  1.0000000  0.0000000  0.0000000 )
                  (  0.0000000  0.0000000  1.0000000 )
                  (  0.0000000 -1.0000000  0.0000000 )


      isym = 16      90 deg rotation - cart. axis [1,0,0]        

 cryst.   s(16) = (     1          0          0      )
                  (     0          0          1      )
                  (     0         -1          0      )

 cart.    s(16) = (  1.0000000  0.0000000  0.0000000 )
                  (  0.0000000  0.0000000 -1.0000000 )
                  (  0.0000000  1.0000000  0.0000000 )


      isym = 17     120 deg rotation - cart. axis [-1,-1,-1]     

 cryst.   s(17) = (     0          0          1      )
                  (     1          0          0      )
                  (     0          1          0      )

 cart.    s(17) = (  0.0000000  1.0000000  0.0000000 )
                  (  0.0000000  0.0000000  1.0000000 )
                  (  1.0000000  0.0000000  0.0000000 )


      isym = 18     120 deg rotation - cart. axis [-1,1,1]       

 cryst.   s(18) = (     0          0         -1      )
                  (    -1          0          0      )
                  (     0          1          0      )

 cart.    s(18) = (  0.0000000 -1.0000000  0.0000000 )
                  (  0.0000000  0.0000000  1.0000000 )
                  ( -1.0000000  0.0000000  0.0000000 )


      isym = 19     120 deg rotation - cart. axis [1,1,-1]       

 cryst.   s(19) = (     0          0         -1      )
                  (     1          0          0      )
                  (     0         -1          0      )

 cart.    s(19) = (  0.0000000  1.0000000  0.0000000 )
                  (  0.0000000  0.0000000 -1.0000000 )
                  ( -1.0000000  0.0000000  0.0000000 )


      isym = 20     120 deg rotation - cart. axis [1,-1,1]       

 cryst.   s(20) = (     0          0          1      )
                  (    -1          0          0      )
                  (     0         -1          0      )

 cart.    s(20) = (  0.0000000 -1.0000000  0.0000000 )
                  (  0.0000000  0.0000000 -1.0000000 )
                  (  1.0000000  0.0000000  0.0000000 )


      isym = 21     120 deg rotation - cart. axis [1,1,1]        

 cryst.   s(21) = (     0          1          0      )
                  (     0          0          1      )
                  (     1          0          0      )

 cart.    s(21) = (  0.0000000  0.0000000  1.0000000 )
                  (  1.0000000  0.0000000  0.0000000 )
                  (  0.0000000  1.0000000  0.0000000 )


      isym = 22     120 deg rotation - cart. axis [-1,1,-1]      

 cryst.   s(22) = (     0         -1          0      )
                  (     0          0         -1      )
                  (     1          0          0      )

 cart.    s(22) = (  0.0000000  0.0000000  1.0000000 )
                  ( -1.0000000  0.0000000  0.0000000 )
                  (  0.0000000 -1.0000000  0.0000000 )


      isym = 23     120 deg rotation - cart. axis [1,-1,-1]      

 cryst.   s(23) = (     0         -1          0      )
                  (     0          0          1      )
                  (    -1          0          0      )

 cart.    s(23) = (  0.0000000  0.0000000 -1.0000000 )
                  ( -1.0000000  0.0000000  0.0000000 )
                  (  0.0000000  1.0000000  0.0000000 )


      isym = 24     120 deg rotation - cart. axis [-1,-1,1]      

 cryst.   s(24) = (     0          1          0      )
                  (     0          0         -1      )
                  (    -1          0          0      )

 cart.    s(24) = (  0.0000000  0.0000000 -1.0000000 )
                  (  1.0000000  0.0000000  0.0000000 )
                  (  0.0000000 -1.0000000  0.0000000 )


      isym = 25     inversion                                    

 cryst.   s(25) = (    -1          0          0      )
                  (     0         -1          0      )
                  (     0          0         -1      )

 cart.    s(25) = ( -1.0000000  0.0000000  0.0000000 )
                  (  0.0000000 -1.0000000  0.0000000 )
                  (  0.0000000  0.0000000 -1.0000000 )


      isym = 26     inv. 180 deg rotation - cart. axis [0,0,1]   

 cryst.   s(26) = (     1          0          0      )
                  (     0          1          0      )
                  (     0          0         -1      )

 cart.    s(26) = (  1.0000000  0.0000000  0.0000000 )
                  (  0.0000000  1.0000000  0.0000000 )
                  (  0.0000000  0.0000000 -1.0000000 )


      isym = 27     inv. 180 deg rotation - cart. axis [0,1,0]   

 cryst.   s(27) = (     1          0          0      )
                  (     0         -1          0      )
                  (     0          0          1      )

 cart.    s(27) = (  1.0000000  0.0000000  0.0000000 )
                  (  0.0000000 -1.0000000  0.0000000 )
                  (  0.0000000  0.0000000  1.0000000 )


      isym = 28     inv. 180 deg rotation - cart. axis [1,0,0]   

 cryst.   s(28) = (    -1          0          0      )
                  (     0          1          0      )
                  (     0          0          1      )

 cart.    s(28) = ( -1.0000000  0.0000000  0.0000000 )
                  (  0.0000000  1.0000000  0.0000000 )
                  (  0.0000000  0.0000000  1.0000000 )


      isym = 29     inv. 180 deg rotation - cart. axis [1,1,0]   

 cryst.   s(29) = (     0         -1          0      )
                  (    -1          0          0      )
                  (     0          0          1      )

 cart.    s(29) = (  0.0000000 -1.0000000  0.0000000 )
                  ( -1.0000000  0.0000000  0.0000000 )
                  (  0.0000000  0.0000000  1.0000000 )


      isym = 30     inv. 180 deg rotation - cart. axis [1,-1,0]  

 cryst.   s(30) = (     0          1          0      )
                  (     1          0          0      )
                  (     0          0          1      )

 cart.    s(30) = (  0.0000000  1.0000000  0.0000000 )
                  (  1.0000000  0.0000000  0.0000000 )
                  (  0.0000000  0.0000000  1.0000000 )


      isym = 31     inv.  90 deg rotation - cart. axis [0,0,-1]  

 cryst.   s(31) = (     0          1          0      )
                  (    -1          0          0      )
                  (     0          0         -1      )

 cart.    s(31) = (  0.0000000 -1.0000000  0.0000000 )
                  (  1.0000000  0.0000000  0.0000000 )
                  (  0.0000000  0.0000000 -1.0000000 )


      isym = 32     inv.  90 deg rotation - cart. axis [0,0,1]   

 cryst.   s(32) = (     0         -1          0      )
                  (     1          0          0      )
                  (     0          0         -1      )

 cart.    s(32) = (  0.0000000  1.0000000  0.0000000 )
                  ( -1.0000000  0.0000000  0.0000000 )
                  (  0.0000000  0.0000000 -1.0000000 )


      isym = 33     inv. 180 deg rotation - cart. axis [1,0,1]   

 cryst.   s(33) = (     0          0         -1      )
                  (     0          1          0      )
                  (    -1          0          0      )

 cart.    s(33) = (  0.0000000  0.0000000 -1.0000000 )
                  (  0.0000000  1.0000000  0.0000000 )
                  ( -1.0000000  0.0000000  0.0000000 )


      isym = 34     inv. 180 deg rotation - cart. axis [-1,0,1]  

 cryst.   s(34) = (     0          0          1      )
                  (     0          1          0      )
                  (     1          0          0      )

 cart.    s(34) = (  0.0000000  0.0000000  1.0000000 )
                  (  0.0000000  1.0000000  0.0000000 )
                  (  1.0000000  0.0000000  0.0000000 )


      isym = 35     inv.  90 deg rotation - cart. axis [0,1,0]   

 cryst.   s(35) = (     0          0          1      )
                  (     0         -1          0      )
                  (    -1          0          0      )

 cart.    s(35) = (  0.0000000  0.0000000 -1.0000000 )
                  (  0.0000000 -1.0000000  0.0000000 )
                  (  1.0000000  0.0000000  0.0000000 )


      isym = 36     inv.  90 deg rotation - cart. axis [0,-1,0]  

 cryst.   s(36) = (     0          0         -1      )
                  (     0         -1          0      )
                  (     1          0          0      )

 cart.    s(36) = (  0.0000000  0.0000000  1.0000000 )
                  (  0.0000000 -1.0000000  0.0000000 )
                  ( -1.0000000  0.0000000  0.0000000 )


      isym = 37     inv. 180 deg rotation - cart. axis [0,1,1]   

 cryst.   s(37) = (     1          0          0      )
                  (     0          0         -1      )
                  (     0         -1          0      )

 cart.    s(37) = (  1.0000000  0.0000000  0.0000000 )
                  (  0.0000000  0.0000000 -1.0000000 )
                  (  0.0000000 -1.0000000  0.0000000 )


      isym = 38     inv. 180 deg rotation - cart. axis [0,1,-1]  

 cryst.   s(38) = (     1          0          0      )
                  (     0          0          1      )
                  (     0          1          0      )

 cart.    s(38) = (  1.0000000  0.0000000  0.0000000 )
                  (  0.0000000  0.0000000  1.0000000 )
                  (  0.0000000  1.0000000  0.0000000 )


      isym = 39     inv.  90 deg rotation - cart. axis [-1,0,0]  

 cryst.   s(39) = (    -1          0          0      )
                  (     0          0          1      )
                  (     0         -1          0      )

 cart.    s(39) = ( -1.0000000  0.0000000  0.0000000 )
                  (  0.0000000  0.0000000 -1.0000000 )
                  (  0.0000000  1.0000000  0.0000000 )


      isym = 40     inv.  90 deg rotation - cart. axis [1,0,0]   

 cryst.   s(40) = (    -1          0          0      )
                  (     0          0         -1      )
                  (     0          1          0      )

 cart.    s(40) = ( -1.0000000  0.0000000  0.0000000 )
                  (  0.0000000  0.0000000  1.0000000 )
                  (  0.0000000 -1.0000000  0.0000000 )


      isym = 41     inv. 120 deg rotation - cart. axis [-1,-1,-1]

 cryst.   s(41) = (     0          0         -1      )
                  (    -1          0          0      )
                  (     0         -1          0      )

 cart.    s(41) = (  0.0000000 -1.0000000  0.0000000 )
                  (  0.0000000  0.0000000 -1.0000000 )
                  ( -1.0000000  0.0000000  0.0000000 )


      isym = 42     inv. 120 deg rotation - cart. axis [-1,1,1]  

 cryst.   s(42) = (     0          0          1      )
                  (     1          0          0      )
                  (     0         -1          0      )

 cart.    s(42) = (  0.0000000  1.0000000  0.0000000 )
                  (  0.0000000  0.0000000 -1.0000000 )
                  (  1.0000000  0.0000000  0.0000000 )


      isym = 43     inv. 120 deg rotation - cart. axis [1,1,-1]  

 cryst.   s(43) = (     0          0          1      )
                  (    -1          0          0      )
                  (     0          1          0      )

 cart.    s(43) = (  0.0000000 -1.0000000  0.0000000 )
                  (  0.0000000  0.0000000  1.0000000 )
                  (  1.0000000  0.0000000  0.0000000 )


      isym = 44     inv. 120 deg rotation - cart. axis [1,-1,1]  

 cryst.   s(44) = (     0          0         -1      )
                  (     1          0          0      )
                  (     0          1          0      )

 cart.    s(44) = (  0.0000000  1.0000000  0.0000000 )
                  (  0.0000000  0.0000000  1.0000000 )
                  ( -1.0000000  0.0000000  0.0000000 )


      isym = 45     inv. 120 deg rotation - cart. axis [1,1,1]   

 cryst.   s(45) = (     0         -1          0      )
                  (     0          0         -1      )
                  (    -1          0          0      )

 cart.    s(45) = (  0.0000000  0.0000000 -1.0000000 )
                  ( -1.0000000  0.0000000  0.0000000 )
                  (  0.0000000 -1.0000000  0.0000000 )


      isym = 46     inv. 120 deg rotation - cart. axis [-1,1,-1] 

 cryst.   s(46) = (     0          1          0      )
                  (     0          0          1      )
                  (    -1          0          0      )

 cart.    s(46) = (  0.0000000  0.0000000 -1.0000000 )
                  (  1.0000000  0.0000000  0.0000000 )
                  (  0.0000000  1.0000000  0.0000000 )


      isym = 47     inv. 120 deg rotation - cart. axis [1,-1,-1] 

 cryst.   s(47) = (     0          1          0      )
                  (     0          0         -1      )
                  (     1          0          0      )

 cart.    s(47) = (  0.0000000  0.0000000  1.0000000 )
                  (  1.0000000  0.0000000  0.0000000 )
                  (  0.0000000 -1.0000000  0.0000000 )


      isym = 48     inv. 120 deg rotation - cart. axis [-1,-1,1] 

 cryst.   s(48) = (     0         -1          0      )
                  (     0          0          1      )
                  (     1          0          0      )

 cart.    s(48) = (  0.0000000  0.0000000  1.0000000 )
                  ( -1.0000000  0.0000000  0.0000000 )
                  (  0.0000000  1.0000000  0.0000000 )


   Cartesian axes

     site n.     atom                  positions (alat units)
         1           Ir  tau(   1) = (   0.5000000   0.5000000   0.5000000  )

   Crystallographic axes

     site n.     atom                  positions (cryst. coord.)
         1           Ir  tau(   1) = (  0.5000000  0.5000000  0.5000000  )

     number of k points=     1
                       cart. coord. in units 2pi/alat
        k(    1) = (   0.0000000   0.0000000   0.0000000), wk =   1.0000000

                       cryst. coord.
        k(    1) = (   0.0000000   0.0000000   0.0000000), wk =   1.0000000

     Dense  grid:  5157432 G-vectors     FFT dimensions: ( 288, 288, 288)

     Dynamical RAM for                 wfc:       3.69 MB

     Dynamical RAM for     wfc (w. buffer):      11.07 MB

     Dynamical RAM for           str. fact:       2.46 MB

     Dynamical RAM for           local pot:       0.00 MB

     Dynamical RAM for          nlocal pot:       4.61 MB

     Dynamical RAM for                qrad:       4.33 MB

     Dynamical RAM for          rho,v,vnew:      48.93 MB

     Dynamical RAM for               rhoin:      16.31 MB

     Dynamical RAM for            rho*nmix:      78.70 MB

     Dynamical RAM for           G-vectors:      10.45 MB

     Dynamical RAM for          h,s,v(r/c):       0.00 MB

     Dynamical RAM for          <psi|beta>:       0.00 MB

     Dynamical RAM for                 psi:      14.76 MB

     Dynamical RAM for                hpsi:      14.76 MB

     Dynamical RAM for      wfcinit/wfcrot:       9.84 MB

     Estimated static dynamical RAM per process >     215.94 MB

     Estimated max dynamical RAM per process >     245.46 MB

     Estimated total dynamical RAM >       7.67 GB
     Generating pointlists ...
     new r_m :   0.4125 (alat units)  9.3541 (a.u.) for type    1

     Initial potential from superposition of free atoms

     starting charge   14.48040, renormalised to   17.00000

     negative rho (up, down):  4.859E-03 0.000E+00
     Starting wfcs are   16 randomized atomic wfcs

     total cpu time spent up to now is        6.9 secs

     Self-consistent Calculation

     iteration #  1     ecut=   350.00 Ry     beta= 0.70
     Davidson diagonalization with overlap
     ethr =  1.00E-02,  avg # of iterations = 12.5

     negative rho (up, down):  8.586E-07 1.975E-02

     total cpu time spent up to now is       18.1 secs

     total energy              =    -199.85982583 Ry
     Harris-Foulkes estimate   =    -211.33523890 Ry
     estimated scf accuracy    <      14.82140628 Ry

     total magnetization       =     3.00 Bohr mag/cell
     absolute magnetization    =     5.61 Bohr mag/cell

     iteration #  2     ecut=   350.00 Ry     beta= 0.70
     Davidson diagonalization with overlap
     ethr =  1.00E-02,  avg # of iterations =  7.5

     negative rho (up, down):  5.023E-07 1.923E-02

     total cpu time spent up to now is       27.6 secs

     total energy              =    -209.33697151 Ry
     Harris-Foulkes estimate   =    -214.38671163 Ry
     estimated scf accuracy    <       8.78169489 Ry

     total magnetization       =     3.00 Bohr mag/cell
     absolute magnetization    =     3.00 Bohr mag/cell

     iteration #  3     ecut=   350.00 Ry     beta= 0.70
     Davidson diagonalization with overlap
     ethr =  1.00E-02,  avg # of iterations =  2.5

     negative rho (up, down):  3.270E-07 1.920E-02

     total cpu time spent up to now is       34.2 secs

     total energy              =    -209.25508327 Ry
     Harris-Foulkes estimate   =    -209.91446734 Ry
     estimated scf accuracy    <       1.55923635 Ry

     total magnetization       =     3.00 Bohr mag/cell
     absolute magnetization    =     3.00 Bohr mag/cell

     iteration #  4     ecut=   350.00 Ry     beta= 0.70
     Davidson diagonalization with overlap
     ethr =  9.17E-03,  avg # of iterations =  1.0

     negative rho (up, down):  2.830E-02 7.596E-02

     total cpu time spent up to now is       39.4 secs

     total energy              =    -208.90493664 Ry
     Harris-Foulkes estimate   =    -209.31157149 Ry
     estimated scf accuracy    <       0.54958621 Ry

     total magnetization       =     3.00 Bohr mag/cell
     absolute magnetization    =     3.00 Bohr mag/cell

     iteration #  5     ecut=   350.00 Ry     beta= 0.70
     Davidson diagonalization with overlap
     ethr =  3.23E-03,  avg # of iterations =  4.0

     negative rho (up, down):  2.468E-02 7.566E-02

     total cpu time spent up to now is       46.5 secs

     total energy              =    -209.25889534 Ry
     Harris-Foulkes estimate   =    -209.26874270 Ry
     estimated scf accuracy    <       0.59282828 Ry

     total magnetization       =     3.00 Bohr mag/cell
     absolute magnetization    =     3.03 Bohr mag/cell

     iteration #  6     ecut=   350.00 Ry     beta= 0.70
     Davidson diagonalization with overlap
     ethr =  3.23E-03,  avg # of iterations =  1.0

     negative rho (up, down):  1.917E-02 1.611E-01

     total cpu time spent up to now is       51.9 secs

     total energy              =    -209.22384678 Ry
     Harris-Foulkes estimate   =    -209.26469832 Ry
     estimated scf accuracy    <       0.57531775 Ry

     total magnetization       =     3.00 Bohr mag/cell
     absolute magnetization    =     3.03 Bohr mag/cell

     iteration #  7     ecut=   350.00 Ry     beta= 0.70
     Davidson diagonalization with overlap
     ethr =  3.23E-03,  avg # of iterations =  1.0

     negative rho (up, down):  6.505E-03 1.629E-01

     total cpu time spent up to now is       57.4 secs

     total energy              =    -209.11274433 Ry
     Harris-Foulkes estimate   =    -209.22653688 Ry
     estimated scf accuracy    <       0.50177583 Ry

     total magnetization       =     3.00 Bohr mag/cell
     absolute magnetization    =     3.03 Bohr mag/cell

     iteration #  8     ecut=   350.00 Ry     beta= 0.70
     Davidson diagonalization with overlap
     ethr =  2.95E-03,  avg # of iterations =  1.0

     negative rho (up, down):  6.213E-03 1.656E-01

     total cpu time spent up to now is       63.0 secs

     total energy              =    -209.15107066 Ry
     Harris-Foulkes estimate   =    -209.12726160 Ry
     estimated scf accuracy    <       0.25030603 Ry

     total magnetization       =     3.00 Bohr mag/cell
     absolute magnetization    =     3.04 Bohr mag/cell

     iteration #  9     ecut=   350.00 Ry     beta= 0.70
     Davidson diagonalization with overlap
     ethr =  1.47E-03,  avg # of iterations =  1.0

     negative rho (up, down):  4.169E-03 1.933E-01

     total cpu time spent up to now is       68.5 secs

     total energy              =    -209.19685723 Ry
     Harris-Foulkes estimate   =    -209.15564395 Ry
     estimated scf accuracy    <       0.27328553 Ry

     total magnetization       =     3.00 Bohr mag/cell
     absolute magnetization    =     3.04 Bohr mag/cell

     iteration # 10     ecut=   350.00 Ry     beta= 0.70
     Davidson diagonalization with overlap
     ethr =  1.47E-03,  avg # of iterations =  1.0

     negative rho (up, down):  1.122E-08 1.580E-02

     total cpu time spent up to now is       74.2 secs

     total energy              =    -209.13752340 Ry
     Harris-Foulkes estimate   =    -209.19927815 Ry
     estimated scf accuracy    <       0.30760811 Ry

     total magnetization       =     3.00 Bohr mag/cell
     absolute magnetization    =     3.04 Bohr mag/cell

     iteration # 11     ecut=   350.00 Ry     beta= 0.70
     Davidson diagonalization with overlap
     ethr =  1.47E-03,  avg # of iterations =  1.0

     negative rho (up, down):  1.302E-07 2.127E-02

     total cpu time spent up to now is       79.9 secs

     total energy              =    -209.08524072 Ry
     Harris-Foulkes estimate   =    -209.14361122 Ry
     estimated scf accuracy    <       0.18951435 Ry

     total magnetization       =     3.00 Bohr mag/cell
     absolute magnetization    =     3.05 Bohr mag/cell

     iteration # 12     ecut=   350.00 Ry     beta= 0.70
     Davidson diagonalization with overlap
     ethr =  1.11E-03,  avg # of iterations =  2.0

     negative rho (up, down):  2.648E-07 1.202E-02

     total cpu time spent up to now is       85.8 secs

     total energy              =    -209.07298486 Ry
     Harris-Foulkes estimate   =    -209.09878373 Ry
     estimated scf accuracy    <       0.06449356 Ry

     total magnetization       =     3.00 Bohr mag/cell
     absolute magnetization    =     3.05 Bohr mag/cell

     iteration # 13     ecut=   350.00 Ry     beta= 0.70
     Davidson diagonalization with overlap
     ethr =  3.79E-04,  avg # of iterations =  5.5

     negative rho (up, down):  2.965E-07 1.240E-02

     total cpu time spent up to now is       93.5 secs

     total energy              =    -209.13635306 Ry
     Harris-Foulkes estimate   =    -209.13559461 Ry
     estimated scf accuracy    <       0.21543280 Ry

     total magnetization       =     3.00 Bohr mag/cell
     absolute magnetization    =     3.00 Bohr mag/cell

     iteration # 14     ecut=   350.00 Ry     beta= 0.70
     Davidson diagonalization with overlap
     ethr =  3.79E-04,  avg # of iterations =  1.0

     negative rho (up, down):  4.240E-09 8.550E-03

     total cpu time spent up to now is       99.2 secs

     total energy              =    -209.11108048 Ry
     Harris-Foulkes estimate   =    -209.13700042 Ry
     estimated scf accuracy    <       0.21504338 Ry

     total magnetization       =     3.00 Bohr mag/cell
     absolute magnetization    =     3.00 Bohr mag/cell

     iteration # 15     ecut=   350.00 Ry     beta= 0.70
     Davidson diagonalization with overlap
     ethr =  3.79E-04,  avg # of iterations =  1.0

     negative rho (up, down):  3.435E-09 9.008E-03

     total cpu time spent up to now is      104.9 secs

     total energy              =    -209.11765191 Ry
     Harris-Foulkes estimate   =    -209.11690576 Ry
     estimated scf accuracy    <       0.04892477 Ry

     total magnetization       =     3.00 Bohr mag/cell
     absolute magnetization    =     3.06 Bohr mag/cell

     iteration # 16     ecut=   350.00 Ry     beta= 0.70
     Davidson diagonalization with overlap
     ethr =  2.88E-04,  avg # of iterations =  1.0

     negative rho (up, down):  5.498E-03 1.775E-01

     total cpu time spent up to now is      110.5 secs

     total energy              =    -209.10994116 Ry
     Harris-Foulkes estimate   =    -209.11842050 Ry
     estimated scf accuracy    <       0.07892181 Ry

     total magnetization       =     3.00 Bohr mag/cell
     absolute magnetization    =     3.03 Bohr mag/cell

     iteration # 17     ecut=   350.00 Ry     beta= 0.70
     Davidson diagonalization with overlap
     ethr =  2.88E-04,  avg # of iterations =  2.0

     negative rho (up, down):  2.637E-03 1.936E-01

     total cpu time spent up to now is      116.4 secs

     total energy              =    -209.12112474 Ry
     Harris-Foulkes estimate   =    -209.13413704 Ry
     estimated scf accuracy    <       0.08378262 Ry

     total magnetization       =     3.00 Bohr mag/cell
     absolute magnetization    =     3.00 Bohr mag/cell

     iteration # 18     ecut=   350.00 Ry     beta= 0.70
     Davidson diagonalization with overlap
     ethr =  2.88E-04,  avg # of iterations =  1.0

     negative rho (up, down):  9.391E-04 2.100E-01

     total cpu time spent up to now is      122.1 secs

     total energy              =    -209.11907401 Ry
     Harris-Foulkes estimate   =    -209.12304686 Ry
     estimated scf accuracy    <       0.04790936 Ry

     total magnetization       =     3.00 Bohr mag/cell
     absolute magnetization    =     3.00 Bohr mag/cell

     iteration # 19     ecut=   350.00 Ry     beta= 0.70
     Davidson diagonalization with overlap
     ethr =  2.82E-04,  avg # of iterations =  1.0

     negative rho (up, down):  1.603E-10 4.682E-03

     total cpu time spent up to now is      127.7 secs

     total energy              =    -209.12089361 Ry
     Harris-Foulkes estimate   =    -209.11990018 Ry
     estimated scf accuracy    <       0.04519073 Ry

     total magnetization       =     3.00 Bohr mag/cell
     absolute magnetization    =     3.00 Bohr mag/cell

     iteration # 20     ecut=   350.00 Ry     beta= 0.70
     Davidson diagonalization with overlap
     ethr =  2.66E-04,  avg # of iterations =  1.0

     negative rho (up, down):  1.287E-10 4.444E-03

     total cpu time spent up to now is      133.3 secs

     total energy              =    -209.11870004 Ry
     Harris-Foulkes estimate   =    -209.12142090 Ry
     estimated scf accuracy    <       0.05423805 Ry

     total magnetization       =     3.00 Bohr mag/cell
     absolute magnetization    =     3.00 Bohr mag/cell

     iteration # 21     ecut=   350.00 Ry     beta= 0.70
     Davidson diagonalization with overlap
     ethr =  2.66E-04,  avg # of iterations =  1.0

     negative rho (up, down):  2.586E-10 5.130E-03

     total cpu time spent up to now is      138.9 secs

     total energy              =    -209.11783948 Ry
     Harris-Foulkes estimate   =    -209.11902015 Ry
     estimated scf accuracy    <       0.04803728 Ry

     total magnetization       =     3.00 Bohr mag/cell
     absolute magnetization    =     3.00 Bohr mag/cell

     iteration # 22     ecut=   350.00 Ry     beta= 0.70
     Davidson diagonalization with overlap
     ethr =  2.66E-04,  avg # of iterations =  1.0

     negative rho (up, down):  4.008E-10 5.845E-03

     total cpu time spent up to now is      144.5 secs

     total energy              =    -209.11821385 Ry
     Harris-Foulkes estimate   =    -209.11810800 Ry
     estimated scf accuracy    <       0.04558666 Ry

     total magnetization       =     3.00 Bohr mag/cell
     absolute magnetization    =     3.00 Bohr mag/cell

     iteration # 23     ecut=   350.00 Ry     beta= 0.70
     Davidson diagonalization with overlap
     ethr =  2.66E-04,  avg # of iterations =  1.0

     negative rho (up, down):  1.712E-10 3.827E-03

     total cpu time spent up to now is      150.1 secs

     total energy              =    -209.11869863 Ry
     Harris-Foulkes estimate   =    -209.11834754 Ry
     estimated scf accuracy    <       0.04994500 Ry

     total magnetization       =     3.00 Bohr mag/cell
     absolute magnetization    =     3.00 Bohr mag/cell

     iteration # 24     ecut=   350.00 Ry     beta= 0.70
     Davidson diagonalization with overlap
     ethr =  2.66E-04,  avg # of iterations =  1.0

     negative rho (up, down):  1.837E-11 6.578E-03

     total cpu time spent up to now is      155.7 secs

     total energy              =    -209.10619944 Ry
     Harris-Foulkes estimate   =    -209.11908317 Ry
     estimated scf accuracy    <       0.05005308 Ry

     total magnetization       =     3.00 Bohr mag/cell
     absolute magnetization    =     3.00 Bohr mag/cell

     iteration # 25     ecut=   350.00 Ry     beta= 0.70
     Davidson diagonalization with overlap
     ethr =  2.66E-04,  avg # of iterations =  2.0

     negative rho (up, down):  6.406E-04 1.919E-01

     total cpu time spent up to now is      161.8 secs

     total energy              =    -209.10539839 Ry
     Harris-Foulkes estimate   =    -209.14090754 Ry
     estimated scf accuracy    <       0.16015175 Ry

     total magnetization       =     3.00 Bohr mag/cell
     absolute magnetization    =     3.03 Bohr mag/cell

     iteration # 26     ecut=   350.00 Ry     beta= 0.70
     Davidson diagonalization with overlap
     ethr =  2.66E-04,  avg # of iterations =  2.5

     negative rho (up, down):  2.178E-04 2.068E-01

     total cpu time spent up to now is      167.8 secs

     total energy              =    -209.12104215 Ry
     Harris-Foulkes estimate   =    -209.12129091 Ry
     estimated scf accuracy    <       0.02029027 Ry

     total magnetization       =     3.00 Bohr mag/cell
     absolute magnetization    =     3.00 Bohr mag/cell

     iteration # 27     ecut=   350.00 Ry     beta= 0.70
     Davidson diagonalization with overlap
     ethr =  1.19E-04,  avg # of iterations =  1.0

     negative rho (up, down):  1.481E-04 2.196E-01

     total cpu time spent up to now is      173.4 secs

     total energy              =    -209.12025390 Ry
     Harris-Foulkes estimate   =    -209.12184393 Ry
     estimated scf accuracy    <       0.01372908 Ry

     total magnetization       =     3.00 Bohr mag/cell
     absolute magnetization    =     3.00 Bohr mag/cell

     iteration # 28     ecut=   350.00 Ry     beta= 0.70
     Davidson diagonalization with overlap
     ethr =  8.08E-05,  avg # of iterations =  1.0

     negative rho (up, down):  2.753E-05 1.995E-01

     total cpu time spent up to now is      179.0 secs

     total energy              =    -209.11975465 Ry
     Harris-Foulkes estimate   =    -209.12065471 Ry
     estimated scf accuracy    <       0.00847516 Ry

     total magnetization       =     3.00 Bohr mag/cell
     absolute magnetization    =     3.00 Bohr mag/cell

     iteration # 29     ecut=   350.00 Ry     beta= 0.70
     Davidson diagonalization with overlap
     ethr =  4.99E-05,  avg # of iterations =  2.0

     negative rho (up, down):  3.819E-05 2.207E-01

     total cpu time spent up to now is      184.8 secs

     total energy              =    -209.12015287 Ry
     Harris-Foulkes estimate   =    -209.12046248 Ry
     estimated scf accuracy    <       0.00267474 Ry

     total magnetization       =     3.00 Bohr mag/cell
     absolute magnetization    =     3.00 Bohr mag/cell

     iteration # 30     ecut=   350.00 Ry     beta= 0.70
     Davidson diagonalization with overlap
     ethr =  1.57E-05,  avg # of iterations =  3.0

     negative rho (up, down):  3.894E-05 2.144E-01

     total cpu time spent up to now is      191.2 secs

     total energy              =    -209.11945733 Ry
     Harris-Foulkes estimate   =    -209.12238998 Ry
     estimated scf accuracy    <       0.13479758 Ry

     total magnetization       =     3.00 Bohr mag/cell
     absolute magnetization    =     3.03 Bohr mag/cell

     iteration # 31     ecut=   350.00 Ry     beta= 0.70
     Davidson diagonalization with overlap
     ethr =  1.57E-05,  avg # of iterations =  1.0

     negative rho (up, down):  3.631E-05 2.096E-01

     total cpu time spent up to now is      196.7 secs

     total energy              =    -209.12126333 Ry
     Harris-Foulkes estimate   =    -209.12114519 Ry
     estimated scf accuracy    <       0.00065217 Ry

     total magnetization       =     3.00 Bohr mag/cell
     absolute magnetization    =     3.00 Bohr mag/cell

     iteration # 32     ecut=   350.00 Ry     beta= 0.70
     Davidson diagonalization with overlap
     ethr =  3.84E-06,  avg # of iterations =  4.0

     negative rho (up, down):  5.650E-06 1.618E-01

     total cpu time spent up to now is      203.7 secs

     total energy              =    -209.12159491 Ry
     Harris-Foulkes estimate   =    -209.12148348 Ry
     estimated scf accuracy    <       0.00237688 Ry

     total magnetization       =     3.00 Bohr mag/cell
     absolute magnetization    =     3.00 Bohr mag/cell

     iteration # 33     ecut=   350.00 Ry     beta= 0.70
     Davidson diagonalization with overlap
     ethr =  3.84E-06,  avg # of iterations =  1.0

     negative rho (up, down):  5.502E-07 9.052E-02

     total cpu time spent up to now is      209.3 secs

     total energy              =    -209.12165748 Ry
     Harris-Foulkes estimate   =    -209.12160720 Ry
     estimated scf accuracy    <       0.00233882 Ry

     total magnetization       =     3.00 Bohr mag/cell
     absolute magnetization    =     3.00 Bohr mag/cell

     iteration # 34     ecut=   350.00 Ry     beta= 0.70
     Davidson diagonalization with overlap
     ethr =  3.84E-06,  avg # of iterations =  1.0

     negative rho (up, down):  1.226E-15 4.186E-07

     total cpu time spent up to now is      214.9 secs

     total energy              =    -209.12172090 Ry
     Harris-Foulkes estimate   =    -209.12166792 Ry
     estimated scf accuracy    <       0.00210391 Ry

     total magnetization       =     3.00 Bohr mag/cell
     absolute magnetization    =     3.00 Bohr mag/cell

     iteration # 35     ecut=   350.00 Ry     beta= 0.70
     Davidson diagonalization with overlap
     ethr =  3.84E-06,  avg # of iterations =  1.0

     total cpu time spent up to now is      220.5 secs

     total energy              =    -209.12175989 Ry
     Harris-Foulkes estimate   =    -209.12173066 Ry
     estimated scf accuracy    <       0.00183051 Ry

     total magnetization       =     3.00 Bohr mag/cell
     absolute magnetization    =     3.00 Bohr mag/cell

     iteration # 36     ecut=   350.00 Ry     beta= 0.70
     Davidson diagonalization with overlap
     ethr =  3.84E-06,  avg # of iterations =  1.0

     total cpu time spent up to now is      226.1 secs

     total energy              =    -209.12180705 Ry
     Harris-Foulkes estimate   =    -209.12176452 Ry
     estimated scf accuracy    <       0.00183905 Ry

     total magnetization       =     3.00 Bohr mag/cell
     absolute magnetization    =     3.00 Bohr mag/cell

     iteration # 37     ecut=   350.00 Ry     beta= 0.70
     Davidson diagonalization with overlap
     ethr =  3.84E-06,  avg # of iterations =  1.0

     total cpu time spent up to now is      231.7 secs

     total energy              =    -209.12185647 Ry
     Harris-Foulkes estimate   =    -209.12181013 Ry
     estimated scf accuracy    <       0.00190416 Ry

     total magnetization       =     3.00 Bohr mag/cell
     absolute magnetization    =     3.00 Bohr mag/cell

     iteration # 38     ecut=   350.00 Ry     beta= 0.70
     Davidson diagonalization with overlap
     ethr =  3.84E-06,  avg # of iterations =  1.0

     negative rho (up, down):  6.998E-08 3.564E-02

     total cpu time spent up to now is      237.3 secs

     total energy              =    -209.12196160 Ry
     Harris-Foulkes estimate   =    -209.12185877 Ry
     estimated scf accuracy    <       0.00201906 Ry

     total magnetization       =     3.00 Bohr mag/cell
     absolute magnetization    =     3.00 Bohr mag/cell

     iteration # 39     ecut=   350.00 Ry     beta= 0.70
     Davidson diagonalization with overlap
     ethr =  3.84E-06,  avg # of iterations =  1.0

     negative rho (up, down):  5.669E-10 7.153E-03

     total cpu time spent up to now is      243.0 secs

     total energy              =    -209.12110575 Ry
     Harris-Foulkes estimate   =    -209.12196915 Ry
     estimated scf accuracy    <       0.00248899 Ry

     total magnetization       =     3.00 Bohr mag/cell
     absolute magnetization    =     3.00 Bohr mag/cell

     iteration # 40     ecut=   350.00 Ry     beta= 0.70
     Davidson diagonalization with overlap
     ethr =  3.84E-06,  avg # of iterations =  3.0

     negative rho (up, down):  1.032E-06 1.507E-01

     total cpu time spent up to now is      249.7 secs

     total energy              =    -209.12178080 Ry
     Harris-Foulkes estimate   =    -209.12182638 Ry
     estimated scf accuracy    <       0.00056140 Ry

     total magnetization       =     3.00 Bohr mag/cell
     absolute magnetization    =     3.00 Bohr mag/cell

     iteration # 41     ecut=   350.00 Ry     beta= 0.70
     Davidson diagonalization with overlap
     ethr =  3.30E-06,  avg # of iterations =  1.5

     negative rho (up, down):  5.482E-06 2.175E-01

     total cpu time spent up to now is      255.6 secs

     total energy              =    -209.12181568 Ry
     Harris-Foulkes estimate   =    -209.12185049 Ry
     estimated scf accuracy    <       0.00013028 Ry

     total magnetization       =     3.00 Bohr mag/cell
     absolute magnetization    =     3.00 Bohr mag/cell

     iteration # 42     ecut=   350.00 Ry     beta= 0.70
     Davidson diagonalization with overlap
     ethr =  7.66E-07,  avg # of iterations =  3.0

     negative rho (up, down):  6.574E-06 2.237E-01

     total cpu time spent up to now is      261.9 secs

     total energy              =    -209.12186746 Ry
     Harris-Foulkes estimate   =    -209.12185395 Ry
     estimated scf accuracy    <       0.00011241 Ry

     total magnetization       =     3.00 Bohr mag/cell
     absolute magnetization    =     3.00 Bohr mag/cell

     iteration # 43     ecut=   350.00 Ry     beta= 0.70
     Davidson diagonalization with overlap
     ethr =  6.61E-07,  avg # of iterations =  1.5

     negative rho (up, down):  1.572E-07 1.226E-01

     total cpu time spent up to now is      267.6 secs

     total energy              =    -209.12186381 Ry
     Harris-Foulkes estimate   =    -209.12187358 Ry
     estimated scf accuracy    <       0.00007268 Ry

     total magnetization       =     3.00 Bohr mag/cell
     absolute magnetization    =     3.00 Bohr mag/cell

     iteration # 44     ecut=   350.00 Ry     beta= 0.70
     Davidson diagonalization with overlap
     ethr =  4.28E-07,  avg # of iterations =  3.0

     negative rho (up, down):  0.000E+00 2.341E-04

     total cpu time spent up to now is      274.2 secs

     total energy              =    -209.12193208 Ry
     Harris-Foulkes estimate   =    -209.12192854 Ry
     estimated scf accuracy    <       0.00017194 Ry

     total magnetization       =     3.00 Bohr mag/cell
     absolute magnetization    =     3.00 Bohr mag/cell

     iteration # 45     ecut=   350.00 Ry     beta= 0.70
     Davidson diagonalization with overlap
     ethr =  4.28E-07,  avg # of iterations =  3.5

     total cpu time spent up to now is      280.6 secs

     total energy              =    -209.12193406 Ry
     Harris-Foulkes estimate   =    -209.12195861 Ry
     estimated scf accuracy    <       0.00008032 Ry

     total magnetization       =     3.00 Bohr mag/cell
     absolute magnetization    =     3.00 Bohr mag/cell

     iteration # 46     ecut=   350.00 Ry     beta= 0.70
     Davidson diagonalization with overlap
     ethr =  4.28E-07,  avg # of iterations =  3.5

     total cpu time spent up to now is      287.7 secs

     total energy              =    -209.12201547 Ry
     Harris-Foulkes estimate   =    -209.12201630 Ry
     estimated scf accuracy    <       0.00002638 Ry

     total magnetization       =     3.00 Bohr mag/cell
     absolute magnetization    =     3.00 Bohr mag/cell

     iteration # 47     ecut=   350.00 Ry     beta= 0.70
     Davidson diagonalization with overlap
     ethr =  1.55E-07,  avg # of iterations =  1.0

     total cpu time spent up to now is      293.4 secs

     total energy              =    -209.12201628 Ry
     Harris-Foulkes estimate   =    -209.12201619 Ry
     estimated scf accuracy    <       0.00003155 Ry

     total magnetization       =     3.00 Bohr mag/cell
     absolute magnetization    =     3.00 Bohr mag/cell

     iteration # 48     ecut=   350.00 Ry     beta= 0.70
     Davidson diagonalization with overlap
     ethr =  1.55E-07,  avg # of iterations =  3.0

     total cpu time spent up to now is      300.0 secs

     total energy              =    -209.12204573 Ry
     Harris-Foulkes estimate   =    -209.12204315 Ry
     estimated scf accuracy    <       0.00002831 Ry

     total magnetization       =     3.00 Bohr mag/cell
     absolute magnetization    =     3.00 Bohr mag/cell

     iteration # 49     ecut=   350.00 Ry     beta= 0.70
     Davidson diagonalization with overlap
     ethr =  1.55E-07,  avg # of iterations =  2.0

     total cpu time spent up to now is      306.0 secs

     total energy              =    -209.12205419 Ry
     Harris-Foulkes estimate   =    -209.12205063 Ry
     estimated scf accuracy    <       0.00000900 Ry

     total magnetization       =     3.00 Bohr mag/cell
     absolute magnetization    =     3.00 Bohr mag/cell

     iteration # 50     ecut=   350.00 Ry     beta= 0.70
     Davidson diagonalization with overlap
     ethr =  5.29E-08,  avg # of iterations =  3.0

     total cpu time spent up to now is      312.4 secs

     total energy              =    -209.12205761 Ry
     Harris-Foulkes estimate   =    -209.12205870 Ry
     estimated scf accuracy    <       0.00002561 Ry

     total magnetization       =     3.00 Bohr mag/cell
     absolute magnetization    =     3.00 Bohr mag/cell

     iteration # 51     ecut=   350.00 Ry     beta= 0.70
     Davidson diagonalization with overlap
     ethr =  5.29E-08,  avg # of iterations =  3.5

     total cpu time spent up to now is      319.4 secs

     total energy              =    -209.12207030 Ry
     Harris-Foulkes estimate   =    -209.12207024 Ry
     estimated scf accuracy    <       0.00000668 Ry

     total magnetization       =     3.00 Bohr mag/cell
     absolute magnetization    =     3.00 Bohr mag/cell

     iteration # 52     ecut=   350.00 Ry     beta= 0.70
     Davidson diagonalization with overlap
     ethr =  3.93E-08,  avg # of iterations =  3.0

     total cpu time spent up to now is      325.8 secs

     total energy              =    -209.12207797 Ry
     Harris-Foulkes estimate   =    -209.12207878 Ry
     estimated scf accuracy    <       0.00001553 Ry

     total magnetization       =     3.00 Bohr mag/cell
     absolute magnetization    =     3.00 Bohr mag/cell

     iteration # 53     ecut=   350.00 Ry     beta= 0.70
     Davidson diagonalization with overlap
     ethr =  3.93E-08,  avg # of iterations =  2.0

     negative rho (up, down):  0.000E+00 7.107E-04

     total cpu time spent up to now is      331.9 secs

     total energy              =    -209.12203288 Ry
     Harris-Foulkes estimate   =    -209.12208066 Ry
     estimated scf accuracy    <       0.00001856 Ry

     total magnetization       =     3.00 Bohr mag/cell
     absolute magnetization    =     3.00 Bohr mag/cell

     iteration # 54     ecut=   350.00 Ry     beta= 0.70
     Davidson diagonalization with overlap
     ethr =  3.93E-08,  avg # of iterations =  4.0

     negative rho (up, down):  0.000E+00 4.781E-05

     total cpu time spent up to now is      339.7 secs

     total energy              =    -209.12209350 Ry
     Harris-Foulkes estimate   =    -209.12209833 Ry
     estimated scf accuracy    <       0.00000822 Ry

     total magnetization       =     3.00 Bohr mag/cell
     absolute magnetization    =     3.00 Bohr mag/cell

     iteration # 55     ecut=   350.00 Ry     beta= 0.70
     Davidson diagonalization with overlap
     ethr =  3.93E-08,  avg # of iterations =  2.5

     negative rho (up, down):  0.000E+00 7.771E-03

     total cpu time spent up to now is      346.3 secs

     total energy              =    -209.12210071 Ry
     Harris-Foulkes estimate   =    -209.12210164 Ry
     estimated scf accuracy    <       0.00001820 Ry

     total magnetization       =     3.00 Bohr mag/cell
     absolute magnetization    =     3.00 Bohr mag/cell

     iteration # 56     ecut=   350.00 Ry     beta= 0.70
     Davidson diagonalization with overlap
     ethr =  3.93E-08,  avg # of iterations =  2.0

     total cpu time spent up to now is      352.3 secs

     total energy              =    -209.12210051 Ry
     Harris-Foulkes estimate   =    -209.12210441 Ry
     estimated scf accuracy    <       0.00001366 Ry

     total magnetization       =     3.00 Bohr mag/cell
     absolute magnetization    =     3.00 Bohr mag/cell

     iteration # 57     ecut=   350.00 Ry     beta= 0.70
     Davidson diagonalization with overlap
     ethr =  3.93E-08,  avg # of iterations =  3.0

     negative rho (up, down):  0.000E+00 1.696E-03

     total cpu time spent up to now is      358.7 secs

     total energy              =    -209.12208958 Ry
     Harris-Foulkes estimate   =    -209.12210511 Ry
     estimated scf accuracy    <       0.00000147 Ry

     total magnetization       =     3.00 Bohr mag/cell
     absolute magnetization    =     3.00 Bohr mag/cell

     iteration # 58     ecut=   350.00 Ry     beta= 0.70
     Davidson diagonalization with overlap
     ethr =  8.66E-09,  avg # of iterations =  5.0

     negative rho (up, down):  0.000E+00 3.368E-04

     total cpu time spent up to now is      366.8 secs

     total energy              =    -209.12210749 Ry
     Harris-Foulkes estimate   =    -209.12210765 Ry
     estimated scf accuracy    <       0.00000117 Ry

     total magnetization       =     3.00 Bohr mag/cell
     absolute magnetization    =     3.00 Bohr mag/cell

     iteration # 59     ecut=   350.00 Ry     beta= 0.70
     Davidson diagonalization with overlap
     ethr =  6.86E-09,  avg # of iterations =  8.5
 
     Magnetic moment per site:
     atom:    1    charge:   16.9998    magn:    3.0000    constr:    0.0000

     total cpu time spent up to now is      373.3 secs

     End of self-consistent calculation

 ------ SPIN UP ------------


          k = 0.0000 0.0000 0.0000 (644880 PWs)   bands (ev):

   -95.8703 -53.3350 -53.1565 -53.1500  -6.6363  -6.6207  -6.3575  -5.7125
    -5.7100  -5.6170  -1.1200  -0.8798

     occupation numbers 
     1.0000   1.0000   1.0000   1.0000   1.0000   1.0000   1.0000   1.0000
     1.0000   1.0000   0.0000   0.0000

 ------ SPIN DOWN ----------


          k = 0.0000 0.0000 0.0000 (644880 PWs)   bands (ev):

   -94.6711 -51.9029 -51.7069 -51.6815  -4.8004  -4.7798  -4.7299  -4.5453
    -3.9446  -3.9149  -0.3249  -0.1260

     occupation numbers 
     1.0000   1.0000   1.0000   1.0000   1.0000   1.0000   1.0000   0.0000
     0.0000   0.0000   0.0000   0.0000

     highest occupied, lowest unoccupied level (ev):    -4.7299   -4.5453

!    total energy              =    -209.12210775 Ry
     Harris-Foulkes estimate   =    -209.12210775 Ry
     estimated scf accuracy    <       0.00000016 Ry

     The total energy is the sum of the following terms:

     one-electron contribution =    -290.22839898 Ry
     hartree contribution      =     138.40108996 Ry
     xc contribution           =     -21.13528345 Ry
     ewald contribution        =     -36.15951528 Ry

     total magnetization       =     3.00 Bohr mag/cell
     absolute magnetization    =     3.00 Bohr mag/cell

     convergence has been achieved in  59 iterations

     Writing output data file pwscf.save/
 
     init_run     :      6.50s CPU      6.84s WALL (       1 calls)
     electrons    :    360.73s CPU    366.94s WALL (       1 calls)

     Called by init_run:
     wfcinit      :      1.47s CPU      1.53s WALL (       1 calls)
     wfcinit:atom :      0.02s CPU      0.03s WALL (       2 calls)
     wfcinit:wfcr :      1.40s CPU      1.45s WALL (       2 calls)
     potinit      :      1.79s CPU      1.91s WALL (       1 calls)
     hinit0       :      0.17s CPU      0.26s WALL (       1 calls)

     Called by electrons:
     c_bands      :    168.76s CPU    171.24s WALL (      59 calls)
     sum_band     :     60.38s CPU     60.59s WALL (      59 calls)
     v_of_rho     :     94.11s CPU     97.09s WALL (      60 calls)
     v_h          :      7.09s CPU      7.13s WALL (      60 calls)
     v_xc         :     87.02s CPU     89.96s WALL (      60 calls)
     mix_rho      :     35.67s CPU     35.90s WALL (      59 calls)

     Called by c_bands:
     init_us_2    :      1.89s CPU      1.89s WALL (     238 calls)
     regterg      :    164.91s CPU    167.36s WALL (     118 calls)

     Called by sum_band:

     Called by *egterg:
     h_psi        :    152.90s CPU    153.37s WALL (     396 calls)
     g_psi        :      0.46s CPU      0.46s WALL (     276 calls)
     rdiaghg      :      0.39s CPU      0.40s WALL (     394 calls)
     regterg:over :      2.88s CPU      2.89s WALL (     276 calls)
     regterg:upda :      5.21s CPU      5.23s WALL (     276 calls)
     regterg:last :      1.83s CPU      1.83s WALL (     126 calls)
     rdiaghg:chol :      0.05s CPU      0.06s WALL (     394 calls)
     rdiaghg:inve :      0.01s CPU      0.01s WALL (     394 calls)
     rdiaghg:para :      0.05s CPU      0.05s WALL (     788 calls)

     Called by h_psi:
     h_psi:pot    :    151.91s CPU    152.37s WALL (     396 calls)
     h_psi:calbec :      0.97s CPU      0.99s WALL (     396 calls)
     vloc_psi     :    149.66s CPU    150.09s WALL (     396 calls)
     add_vuspsi   :      1.28s CPU      1.28s WALL (     396 calls)

     General routines
     calbec       :      0.96s CPU      0.99s WALL (     396 calls)
     fft          :     81.00s CPU     81.67s WALL (     896 calls)
     ffts         :      8.66s CPU      8.70s WALL (     118 calls)
     fftw         :    145.87s CPU    146.36s WALL (    4342 calls)
 
     Parallel routines
     fft_scatt_xy :     42.76s CPU     42.86s WALL (    5356 calls)
     fft_scatt_yz :     79.96s CPU     80.73s WALL (    5356 calls)
 
     PWSCF        :   6m 7.64s CPU   6m15.25s WALL

 
   This run was terminated on:  13:52:51  17Jan2022            

=------------------------------------------------------------------------------=
   JOB DONE.
=------------------------------------------------------------------------------=
