
 Primary working directories    : /global/cscratch1/sd/haihan
 Secondary working directories  : /global/cscratch1/sd/haihan
 Wavefunction directory         : /global/homes/h/haihan/wfu/
 Main file repository           : /global/cscratch1/sd/haihan/

 SHA1      : 19cd028119e0e09f93f0674bd8af7968d9b3eff6
 NAME      : 2015.1.36
 ARCHNAME  : linux/x86_64
 FC        : /opt/cray/pe/craype/2.5.14/bin/ftn
 BLASLIB   : -L/opt/intel/compilers_and_libraries_2018.1.163/linux/mkl/lib/intel64 -Wl,-_start-group -lmkl_intel_ilp64 -lmkl_intel_thread -lmkl_core -Wl,-_end-group -liomp5
 id        : lbl

 Nodes     nprocs
 nid00783    15
 Number of processes for MPI-2 version of Molpro:   nprocs(total)=   16   nprocs(compute)=   15   nprocs(helper)=    1

 Using customized tuning parameters: mindgm=7; mindgv=16; mindgc=1; mindgr=1; noblas=0; minvec=7
 default implementation of scratch files=sf  

 ***,Ir
 memory,512,m
 
 gthresh,twoint=1.e-12
 gprint,basis,orbitals
 
 angstrom
 geometry={
 1                                                                               ! Number of atoms
 Ir 0.0 0.0 0.0
 }
 
 basis={
 Including file /global/u2/h/haihan/Research/HZECP/Ir_basis/check_contractions_5Z/ecp.molpro
 Including file /global/u2/h/haihan/Research/HZECP/Ir_basis/check_contractions_5Z/basis.molpro
 }
 
 {rhf
  start,atden
  wf,17,1,3
  occ,4,1,1,1,1,1,1,0
  closed,4,1,1,0,1,0,0,0
  sym,1,1,1,3,2
  orbital,4202.2
 }
 pop
 {multi
  start,4202.2
  maxit,40
  occ,4,1,1,1,1,1,1,0
  frozen,2,1,1,0,1,0,0
  wf,17,1,3;state,1
  wf,17,4,3;state,3
  wf,17,6,3;state,3
  wf,17,7,3;state,3
  orbital,4203.2
 }
 {multi
  start,4203.2
  maxit,40
  occ,4,1,1,1,1,1,1,0
  closed,2,1,1,0,1,0,0
  wf,17,1,3;state,1
  wf,17,4,3;state,3
  wf,17,6,3;state,3
  wf,17,7,3;state,3
  natorb,ci,print
  orbital,5202.2
 }
 {rhf,nitord=1,maxit=0
  start,5202.2
  wf,17,1,3
  occ,4,1,1,1,1,1,1,0
  closed,4,1,1,0,1,0,0,0
  print,orbitals=2
 }
 
 {ci;maxit,100;core,1,1,1,0,1,0,0,0
  natorb,ci,print=15
 }

 Variables initialized (889), CPU time= 0.00 sec
 Commands  initialized (702), CPU time= 0.00 sec, 572 directives.
 Default parameters read. Elapsed time= 0.13 sec

 Checking input...
 Passed
1


                                         ***  PROGRAM SYSTEM MOLPRO  ***
                                       Copyright, TTI GmbH Stuttgart, 2015
                                    Version 2015.1 linked Dec 29 2018 15:55:43


 **********************************************************************************************************************************
 LABEL *   Ir                                                                            
  64 bit mpp version                                                                     DATE: 24-Dec-21          TIME: 07:42:59  
 **********************************************************************************************************************************

 SHA1:             19cd028119e0e09f93f0674bd8af7968d9b3eff6
 **********************************************************************************************************************************

 THRESHOLDS:

 ZERO    =  1.00D-12  ONEINT  =  1.00D-12  TWOINT  =  1.00D-12  PREFAC  =  1.00D-14  LOCALI  =  1.00D-09  EORDER  =  1.00D-04
 ENERGY  =  0.00D+00  ETEST   =  0.00D+00  EDENS   =  0.00D+00  THRDEDEF=  1.00D-06  GRADIENT=  1.00D-02  STEP    =  1.00D-03
 ORBITAL =  1.00D-05  CIVEC   =  1.00D-05  COEFF   =  1.00D-04  PRINTCI =  5.00D-02  PUNCHCI =  9.90D+01  OPTGRAD =  3.00D-04
 OPTENERG=  1.00D-06  OPTSTEP =  3.00D-04  THRGRAD =  1.00D-10  COMPRESS=  1.00D-11  VARMIN  =  1.00D-07  VARMAX  =  1.00D-03
 THRDOUB =  0.00D+00  THRDIV  =  1.00D-05  THRRED  =  1.00D-07  THRPSP  =  1.00D+00  THRDC   =  1.00D-10  THRCS   =  1.00D-10
 THRNRM  =  1.00D-08  THREQ   =  0.00D+00  THRDE   =  1.00D+00  THRREF  =  1.00D-05  SPARFAC =  1.00D+00  THRDLP  =  1.00D-07
 THRDIA  =  1.00D-10  THRDLS  =  1.00D-07  THRGPS  =  0.00D+00  THRKEX  =  0.00D+00  THRDIS  =  2.00D-01  THRVAR  =  1.00D-10
 THRLOC  =  1.00D-06  THRGAP  =  1.00D-06  THRLOCT = -1.00D+00  THRGAPT = -1.00D+00  THRORB  =  1.00D-06  THRMLTP =  0.00D+00
 THRCPQCI=  1.00D-10  KEXTA   =  0.00D+00  THRCOARS=  0.00D+00  SYMTOL  =  1.00D-06  GRADTOL =  1.00D-06  THROVL  =  1.00D-08
 THRORTH =  1.00D-08  GRID    =  1.00D-06  GRIDMAX =  1.00D-03  DTMAX   =  0.00D+00  THROCCDE=  1.00D-01  THROCCDE=  1.00D-01



 ZUNIT=ANG
 

Geometry recognized as XYZ


 Variable memory set to  512000000 words,  buffer space   230000 words

 SETTING BASIS          =    USERDEF


 Recomputing integrals since basis changed


 Using spherical harmonics



 PROGRAM * SEWARD (Integral evaluation for generally contracted gaussian basis sets)     Author: Roland Lindh, 1990

 Geometry written to block  1 of record 700

 Orientation using atomic masses  
 Molecule type: Atom
 Symmetry elements: X,Y,Z
 Rotational constants:       0.0000000      0.0000000      0.0000000 GHz  (calculated with average atomic masses)

 Point group  D2h 



 ATOMIC COORDINATES

 NR  ATOM    CHARGE       X              Y              Z

   1  IR     17.00    0.000000000    0.000000000    0.000000000


          IR  CORE POTENTIAL

          g POTENTIAL

 POWERS             1              3              2              2
 EXPONENTIALS   12.17107       12.17014       5.602984       12.32034    
 COEFFICIENTS   17.00000       206.9082      -23.15704      -143.2084    

          s - g POTENTIAL

 POWERS             2              2
 EXPONENTIALS   6.284095       13.82629    
 COEFFICIENTS   76.59951       438.8739    

          p - g POTENTIAL

 POWERS             2              2
 EXPONENTIALS   5.346383       11.26419    
 COEFFICIENTS   61.99194       262.7501    

          d - g POTENTIAL

 POWERS             2              2
 EXPONENTIALS   4.766746       6.815210    
 COEFFICIENTS   31.12365       123.9560    

          f - g POTENTIAL

 POWERS             2              2
 EXPONENTIALS   2.786350       2.592946    
 COEFFICIENTS   10.32928       11.88570    


 BASIS DATA

   Nr Sym  Nuc  Type         Exponents   Contraction coefficients

    1.1 Ag    1  1s          81.883746    -0.000456    0.000109   -0.000038   -0.000756   -0.003820    0.019219
    2.1 Ag                   43.142946     0.007251   -0.002172    0.002972   -0.000013    0.015926   -0.109200
    3.1 Ag                   22.731175    -0.076134    0.025226   -0.041889    0.049100    0.005889    0.432920
    4.1 Ag                   11.976612     0.392307   -0.137486    0.239038   -0.332761   -0.251139   -1.509569
    5.1 Ag                    6.310243    -0.599162    0.226746   -0.395296    0.539193    0.184992    3.058453
    6.1 Ag                    3.324744    -0.476593    0.170008   -0.372238    0.945657    2.957254   -0.441691
                              1.751742     0.610563   -0.264851    0.603962   -2.114954   -8.035766   -9.818589
                              0.922959     0.693017   -0.402410    1.150634   -1.624113    6.505590   20.180371
                              0.486289     0.225546   -0.187447   -0.303613    4.484057    2.204108  -21.563549
                              0.256216     0.005951    0.125771   -1.551674   -0.833538   -7.965627   12.955286
                              0.134995     0.006730    0.448621   -0.332414   -2.217561    4.807799   -1.507469
                              0.071126    -0.002486    0.434740    0.662273    0.031899    0.979514   -4.077491
                              0.037475     0.000625    0.243405    0.641326    1.202180   -1.704016    2.403637
    7.1 Ag    1  3d0         69.582346     0.000025
                             36.601738    -0.000064
                             19.253263    -0.000576
                             10.127610     0.015407
                              5.327330    -0.090881
                              2.802285     0.051156
                              1.474059     0.271027
                              0.775385     0.351688
                              0.407869     0.302463
                              0.214547     0.179813
                              0.112856     0.070886
                              0.059365     0.010937
                              0.031227     0.000567
    8.1 Ag    1  3d2+        69.582346     0.000025
                             36.601738    -0.000064
                             19.253263    -0.000576
                             10.127610     0.015407
                              5.327330    -0.090881
                              2.802285     0.051156
                              1.474059     0.271027
                              0.775385     0.351688
                              0.407869     0.302463
                              0.214547     0.179813
                              0.112856     0.070886
                              0.059365     0.010937
                              0.031227     0.000567
    9.1 Ag    1  3d0         69.582346    -0.000072
                             36.601738     0.000277
                             19.253263     0.000052
                             10.127610    -0.017626
                              5.327330     0.115701
                              2.802285    -0.072020
                              1.474059    -0.456700
                              0.775385    -0.416372
                              0.407869     0.235209
                              0.214547     0.527234
                              0.112856     0.277586
                              0.059365     0.049772
                              0.031227     0.001660
   10.1 Ag    1  3d2+        69.582346    -0.000072
                             36.601738     0.000277
                             19.253263     0.000052
                             10.127610    -0.017626
                              5.327330     0.115701
                              2.802285    -0.072020
                              1.474059    -0.456700
                              0.775385    -0.416372
                              0.407869     0.235209
                              0.214547     0.527234
                              0.112856     0.277586
                              0.059365     0.049772
                              0.031227     0.001660
   11.1 Ag    1  3d0         69.582346    -0.000104
                             36.601738     0.000414
                             19.253263    -0.000097
                             10.127610    -0.024748
                              5.327330     0.175276
                              2.802285    -0.137390
                              1.474059    -0.970951
                              0.775385     0.304447
                              0.407869     1.178125
                              0.214547    -0.387716
                              0.112856    -0.551097
                              0.059365    -0.152582
                              0.031227    -0.003177
   12.1 Ag    1  3d2+        69.582346    -0.000104
                             36.601738     0.000414
                             19.253263    -0.000097
                             10.127610    -0.024748
                              5.327330     0.175276
                              2.802285    -0.137390
                              1.474059    -0.970951
                              0.775385     0.304447
                              0.407869     1.178125
                              0.214547    -0.387716
                              0.112856    -0.551097
                              0.059365    -0.152582
                              0.031227    -0.003177
   13.1 Ag    1  3d0         69.582346     0.001660
                             36.601738    -0.007501
                             19.253263     0.023466
                             10.127610    -0.099653
                              5.327330     0.449329
                              2.802285    -0.699925
                              1.474059    -1.281520
                              0.775385     2.836972
                              0.407869    -1.450206
                              0.214547    -0.794421
                              0.112856     0.849320
                              0.059365     0.197209
                              0.031227     0.027497
   14.1 Ag    1  3d2+        69.582346     0.001660
                             36.601738    -0.007501
                             19.253263     0.023466
                             10.127610    -0.099653
                              5.327330     0.449329
                              2.802285    -0.699925
                              1.474059    -1.281520
                              0.775385     2.836972
                              0.407869    -1.450206
                              0.214547    -0.794421
                              0.112856     0.849320
                              0.059365     0.197209
                              0.031227     0.027497
   15.1 Ag    1  3d0         69.582346    -0.007288
                             36.601738     0.032632
                             19.253263    -0.096654
                             10.127610     0.306995
                              5.327330    -1.149917
                              2.802285     2.766344
                              1.474059    -2.041323
                              0.775385    -1.042893
                              0.407869     3.753553
                              0.214547    -3.818455
                              0.112856     1.605143
                              0.059365     0.009572
                              0.031227     0.163375
   16.1 Ag    1  3d2+        69.582346    -0.007288
                             36.601738     0.032632
                             19.253263    -0.096654
                             10.127610     0.306995
                              5.327330    -1.149917
                              2.802285     2.766344
                              1.474059    -2.041323
                              0.775385    -1.042893
                              0.407869     3.753553
                              0.214547    -3.818455
                              0.112856     1.605143
                              0.059365     0.009572
                              0.031227     0.163375
    1.2 B3u   1  2px         80.754753     0.000049   -0.000042   -0.000262   -0.000919    0.005003   -0.029209
    2.2 B3u                  42.532608     0.000099    0.000069    0.001072    0.004133   -0.024522    0.142380
    3.2 B3u                  22.401440    -0.007030    0.002710    0.001640   -0.004852    0.084013   -0.446966
    4.2 B3u                  11.798583     0.078305   -0.034573   -0.052183   -0.062416   -0.323011    1.318511
    5.2 B3u                   6.214179    -0.246821    0.116184    0.184751    0.233816    0.910711   -3.558800
    6.2 B3u                   3.272938    -0.082812    0.029428    0.120530    0.504950   -0.216282    6.054941
                              1.723819     0.447701   -0.224637   -0.585460   -2.361455   -4.134169   -4.568299
                              0.907916     0.490763   -0.332112   -0.820919    1.046508    7.917912   -0.822617
                              0.478189     0.232088   -0.112114    1.053718    2.478962   -6.766593    6.775106
                              0.251857     0.035712    0.425856    0.983090   -2.753523    2.059146   -9.837397
                              0.132650     0.008228    0.545958   -0.660728    0.089947    1.384287    8.205252
                              0.069865    -0.000973    0.215607   -0.554789    0.766243   -1.115396   -3.530412
                              0.036797     0.000521    0.018735   -0.065086    0.156345   -0.156129    0.283807
    1.3 B2u   1  2py         80.754753     0.000049   -0.000042   -0.000262   -0.000919    0.005003   -0.029209
    2.3 B2u                  42.532608     0.000099    0.000069    0.001072    0.004133   -0.024522    0.142380
    3.3 B2u                  22.401440    -0.007030    0.002710    0.001640   -0.004852    0.084013   -0.446966
    4.3 B2u                  11.798583     0.078305   -0.034573   -0.052183   -0.062416   -0.323011    1.318511
    5.3 B2u                   6.214179    -0.246821    0.116184    0.184751    0.233816    0.910711   -3.558800
    6.3 B2u                   3.272938    -0.082812    0.029428    0.120530    0.504950   -0.216282    6.054941
                              1.723819     0.447701   -0.224637   -0.585460   -2.361455   -4.134169   -4.568299
                              0.907916     0.490763   -0.332112   -0.820919    1.046508    7.917912   -0.822617
                              0.478189     0.232088   -0.112114    1.053718    2.478962   -6.766593    6.775106
                              0.251857     0.035712    0.425856    0.983090   -2.753523    2.059146   -9.837397
                              0.132650     0.008228    0.545958   -0.660728    0.089947    1.384287    8.205252
                              0.069865    -0.000973    0.215607   -0.554789    0.766243   -1.115396   -3.530412
                              0.036797     0.000521    0.018735   -0.065086    0.156345   -0.156129    0.283807
    1.4 B1g   1  3d2-        69.582346     0.000025   -0.000072   -0.000104    0.001660   -0.007288
    2.4 B1g                  36.601738    -0.000064    0.000277    0.000414   -0.007501    0.032632
    3.4 B1g                  19.253263    -0.000576    0.000052   -0.000097    0.023466   -0.096654
    4.4 B1g                  10.127610     0.015407   -0.017626   -0.024748   -0.099653    0.306995
    5.4 B1g                   5.327330    -0.090881    0.115701    0.175276    0.449329   -1.149917
                              2.802285     0.051156   -0.072020   -0.137390   -0.699925    2.766344
                              1.474059     0.271027   -0.456700   -0.970951   -1.281520   -2.041323
                              0.775385     0.351688   -0.416372    0.304447    2.836972   -1.042893
                              0.407869     0.302463    0.235209    1.178125   -1.450206    3.753553
                              0.214547     0.179813    0.527234   -0.387716   -0.794421   -3.818455
                              0.112856     0.070886    0.277586   -0.551097    0.849320    1.605143
                              0.059365     0.010937    0.049772   -0.152582    0.197209    0.009572
                              0.031227     0.000567    0.001660   -0.003177    0.027497    0.163375
    1.5 B1u   1  2pz         80.754753     0.000049   -0.000042   -0.000262   -0.000919    0.005003   -0.029209
    2.5 B1u                  42.532608     0.000099    0.000069    0.001072    0.004133   -0.024522    0.142380
    3.5 B1u                  22.401440    -0.007030    0.002710    0.001640   -0.004852    0.084013   -0.446966
    4.5 B1u                  11.798583     0.078305   -0.034573   -0.052183   -0.062416   -0.323011    1.318511
    5.5 B1u                   6.214179    -0.246821    0.116184    0.184751    0.233816    0.910711   -3.558800
    6.5 B1u                   3.272938    -0.082812    0.029428    0.120530    0.504950   -0.216282    6.054941
                              1.723819     0.447701   -0.224637   -0.585460   -2.361455   -4.134169   -4.568299
                              0.907916     0.490763   -0.332112   -0.820919    1.046508    7.917912   -0.822617
                              0.478189     0.232088   -0.112114    1.053718    2.478962   -6.766593    6.775106
                              0.251857     0.035712    0.425856    0.983090   -2.753523    2.059146   -9.837397
                              0.132650     0.008228    0.545958   -0.660728    0.089947    1.384287    8.205252
                              0.069865    -0.000973    0.215607   -0.554789    0.766243   -1.115396   -3.530412
                              0.036797     0.000521    0.018735   -0.065086    0.156345   -0.156129    0.283807
    1.6 B2g   1  3d1+        69.582346     0.000025   -0.000072   -0.000104    0.001660   -0.007288
    2.6 B2g                  36.601738    -0.000064    0.000277    0.000414   -0.007501    0.032632
    3.6 B2g                  19.253263    -0.000576    0.000052   -0.000097    0.023466   -0.096654
    4.6 B2g                  10.127610     0.015407   -0.017626   -0.024748   -0.099653    0.306995
    5.6 B2g                   5.327330    -0.090881    0.115701    0.175276    0.449329   -1.149917
                              2.802285     0.051156   -0.072020   -0.137390   -0.699925    2.766344
                              1.474059     0.271027   -0.456700   -0.970951   -1.281520   -2.041323
                              0.775385     0.351688   -0.416372    0.304447    2.836972   -1.042893
                              0.407869     0.302463    0.235209    1.178125   -1.450206    3.753553
                              0.214547     0.179813    0.527234   -0.387716   -0.794421   -3.818455
                              0.112856     0.070886    0.277586   -0.551097    0.849320    1.605143
                              0.059365     0.010937    0.049772   -0.152582    0.197209    0.009572
                              0.031227     0.000567    0.001660   -0.003177    0.027497    0.163375
    1.7 B3g   1  3d1-        69.582346     0.000025   -0.000072   -0.000104    0.001660   -0.007288
    2.7 B3g                  36.601738    -0.000064    0.000277    0.000414   -0.007501    0.032632
    3.7 B3g                  19.253263    -0.000576    0.000052   -0.000097    0.023466   -0.096654
    4.7 B3g                  10.127610     0.015407   -0.017626   -0.024748   -0.099653    0.306995
    5.7 B3g                   5.327330    -0.090881    0.115701    0.175276    0.449329   -1.149917
                              2.802285     0.051156   -0.072020   -0.137390   -0.699925    2.766344
                              1.474059     0.271027   -0.456700   -0.970951   -1.281520   -2.041323
                              0.775385     0.351688   -0.416372    0.304447    2.836972   -1.042893
                              0.407869     0.302463    0.235209    1.178125   -1.450206    3.753553
                              0.214547     0.179813    0.527234   -0.387716   -0.794421   -3.818455
                              0.112856     0.070886    0.277586   -0.551097    0.849320    1.605143
                              0.059365     0.010937    0.049772   -0.152582    0.197209    0.009572
                              0.031227     0.000567    0.001660   -0.003177    0.027497    0.163375

 NUCLEAR CHARGE:                   17
 NUMBER OF PRIMITIVE AOS:         130
 NUMBER OF SYMMETRY AOS:          117
 NUMBER OF CONTRACTIONS:           49   (  16Ag  +   6B3u +   6B2u +   5B1g +   6B1u +   5B2g +   5B3g +   0Au  )
 NUMBER OF CORE ORBITALS:           4   (   1Ag  +   1B3u +   1B2u +   0B1g +   1B1u +   0B2g +   0B3g +   0Au  )
 NUMBER OF VALENCE ORBITALS:        6   (   3Ag  +   0B3u +   0B2u +   1B1g +   0B1u +   1B2g +   1B3g +   0Au  )


 NUCLEAR REPULSION ENERGY    0.00000000

 EXTRA SYMMETRY OF AOS IN SYMMETRY 1:   1 1 1 1 1 1 2 3 2 3   2 3 2 3 2 3

 Eigenvalues of metric

         1 0.983E+00 0.994E+00 0.994E+00 0.100E+01 0.100E+01 0.100E+01 0.100E+01 0.100E+01
         2 0.100E+01 0.100E+01 0.100E+01 0.100E+01 0.100E+01 0.100E+01
         3 0.100E+01 0.100E+01 0.100E+01 0.100E+01 0.100E+01 0.100E+01
         4 0.994E+00 0.100E+01 0.100E+01 0.100E+01 0.101E+01
         5 0.100E+01 0.100E+01 0.100E+01 0.100E+01 0.100E+01 0.100E+01
         6 0.994E+00 0.100E+01 0.100E+01 0.100E+01 0.101E+01
         7 0.994E+00 0.100E+01 0.100E+01 0.100E+01 0.101E+01


 Contracted 2-electron integrals neglected if value below      1.0D-12
 AO integral compression algorithm  1   Integral accuracy      1.0D-12

     4.719 MB (compressed) written to integral file (100.0%)

     Node minimum: 0.262 MB, node maximum: 0.524 MB


 NUMBER OF SORTED TWO-ELECTRON INTEGRALS:       6870.     BUFFER LENGTH:  32768
 NUMBER OF SEGMENTS:   1  SEGMENT LENGTH:       6870      RECORD LENGTH: 524288

 Memory used in sort:       0.56 MW

 SORT1 READ      325693. AND WROTE        6085. INTEGRALS IN      1 RECORDS. CPU TIME:     0.02 SEC, REAL TIME:     0.06 SEC
 SORT2 READ       96412. AND WROTE      108952. INTEGRALS IN     15 RECORDS. CPU TIME:     0.01 SEC, REAL TIME:     0.01 SEC

 Node minimum:        6447.  Node maximum:        8302. integrals

 OPERATOR DM      FOR CENTER  0  COORDINATES:    0.000000    0.000000    0.000000


 **********************************************************************************************************************************
 DATASETS  * FILE   NREC   LENGTH (MB)   RECORD NAMES
              1      19       19.91       500      610      700      900      950      970     1000      129      960     1100   
                                          VAR    BASINP    GEOM    SYMINP    ZMAT    AOBASIS   BASIS     P2S    ABASIS      S 
                                         1400     1410     1420     1200     1210     1080     1600     1650     1700   
                                           T        V       ECP      H0       H01     AOSYM     SMH    MOLCAS    OPER   

 PROGRAMS   *        TOTAL       INT
 CPU TIMES  *         1.01      0.66
 REAL TIME  *         2.01 SEC
 DISK USED  *        64.24 MB      
 GA USED    *         0.00 MB       (max)       0.00 MB       (current)
 **********************************************************************************************************************************


 PROGRAM * RHF-SCF (OPEN SHELL)       Authors: W. Meyer, H.-J. Werner


 NUMBER OF ELECTRONS:      10+    7-    SPACE SYMMETRY=1    SPIN SYMMETRY: Quartet 
 CONVERGENCE THRESHOLDS:    1.00E-05 (Density)    1.00E-07 (Energy)
 MAX. NUMBER OF ITERATIONS:       60
 INTERPOLATION TYPE:            DIIS
 INTERPOLATION STEPS:              2 (START)      1 (STEP)
 LEVEL SHIFTS:                 -0.60 (CLOSED) -0.30 (OPEN) 

 Number of closed-shell orbitals:    7 (   4   1   1   0   1   0   0 )
 Number of open-shell orbitals:      3 (   0   0   0   1   0   1   1 )


 
 Extra symmetries of mos in symmetry 1:   1   1   3   2

   Atom=IR basis=cc-pVTZ-PP        lmin=0  lmax=2

 Orbital guess generated from atomic densities. Full valence occupancy:    4   1   1   1   1   1   1   0


 Molecular orbital dump at record        4202.2

 ITERATION    DDIFF          GRAD             ENERGY        2-EL.EN.            DIPOLE MOMENTS         DIIS   ORB.
    1      0.000D+00      0.000D+00      -103.66126895    153.060748    0.00000    0.00000    0.00000    0    start
    2      0.000D+00      0.678D-02      -103.66480344    152.974874    0.00000    0.00000    0.00000    1    diag,B
    3      0.274D-02      0.196D-02      -103.66568392    153.064262    0.00000    0.00000    0.00000    2    diag,B
    4      0.171D-02      0.957D-03      -103.66593896    153.033604    0.00000    0.00000    0.00000    3    diag,B
    5      0.132D-02      0.373D-03      -103.66598787    153.000452    0.00000    0.00000    0.00000    4    diag,B
    6      0.700D-03      0.164D-03      -103.66599968    152.976299    0.00000    0.00000    0.00000    5    diag,B
    7      0.447D-03      0.539D-04      -103.66600072    152.970613    0.00000    0.00000    0.00000    6    fixocc
    8      0.144D-03      0.776D-05      -103.66600073    152.970403    0.00000    0.00000    0.00000    7    diag,B
    9      0.125D-04      0.232D-05      -103.66600073    152.970653    0.00000    0.00000    0.00000    8    diag,B
   10      0.346D-05      0.548D-06      -103.66600073    152.970636    0.00000    0.00000    0.00000    0    orth

 Final alpha occupancy:   4   1   1   1   1   1   1
 Final beta  occupancy:   4   1   1   0   1   0   0

 !RHF STATE 1.1 Energy               -103.666000731241
 Nuclear energy                         0.00000000
 One-electron energy                 -180.15131884
 Two-electron energy                   76.48531811
 Virial quotient                       -2.97346838
 !RHF STATE 1.1 Dipole moment           0.00000000     0.00000000     0.00000000
 Dipole moment /Debye                   0.00000000     0.00000000     0.00000000

 ELECTRON ORBITALS
 =================


   Orb  Occ    Energy  Couls-En    Coefficients

                                   1 1s      1 1s      1 1s      1 1s      1 1s      1 1s      1 3d0     1 3d2+    1 3d0     1 3d2+ 
                                   1 3d0     1 3d2+    1 3d0     1 3d2+    1 3d0     1 3d2+ 

   1.1   2    -4.2244  -18.8544  1.000000  0.000044 -0.000052  0.000032  0.000007 -0.000002 -0.000000 -0.000000 -0.000000  0.000000
                                 0.000000  0.000000 -0.000000 -0.000000 -0.000000 -0.000000

   2.1   2    -0.2965   -6.2572 -0.000044  0.999989  0.000655  0.000127 -0.000054  0.000015  0.000000 -0.000000  0.000000 -0.000000
                                -0.000000  0.000000  0.000000 -0.000000  0.000000 -0.000000

   3.1   2    -0.4570   -9.5356 -0.000000  0.000000  0.000000  0.000000 -0.000000  0.000000 -0.005200  0.999849 -0.000056  0.010779
                                 0.000023 -0.004391 -0.000004  0.000835 -0.000003  0.000572

   4.1   2    -0.4570   -9.5356  0.000000 -0.000000 -0.000000 -0.000000  0.000000 -0.000000  0.999849  0.005200  0.010779  0.000056
                                -0.004391 -0.000023  0.000835  0.000004  0.000572  0.000003

                                   1 2px     1 2px     1 2px     1 2px     1 2px     1 2px  

   1.2   2    -2.4549  -14.9762  1.000000  0.000070  0.000071  0.000030  0.000000  0.000000

                                   1 2py     1 2py     1 2py     1 2py     1 2py     1 2py  

   1.3   2    -2.4549  -14.9762  1.000000  0.000070  0.000071  0.000030  0.000000  0.000000

                                   1 3d2-    1 3d2-    1 3d2-    1 3d2-    1 3d2- 

   1.4   +    -0.5272   -9.7031  0.999945 -0.016805  0.006509 -0.001001 -0.000814

                                   1 2pz     1 2pz     1 2pz     1 2pz     1 2pz     1 2pz  

   1.5   2    -2.4549  -14.9762  1.000000  0.000070  0.000071  0.000030  0.000000  0.000000

                                   1 3d1+    1 3d1+    1 3d1+    1 3d1+    1 3d1+ 

   1.6   +    -0.5272   -9.7031  0.999945 -0.016805  0.006509 -0.001001 -0.000814

                                   1 3d1-    1 3d1-    1 3d1-    1 3d1-    1 3d1- 

   1.7   +    -0.5272   -9.7031  0.999945 -0.016805  0.006509 -0.001001 -0.000814

 HOMO      4.1    -0.456962 =     -12.4346eV
 LUMO      2.2     0.066743 =       1.8162eV
 LUMO-HOMO         0.523705 =      14.2507eV


 **********************************************************************************************************************************
 DATASETS  * FILE   NREC   LENGTH (MB)   RECORD NAMES
              1      19       19.91       500      610      700      900      950      970     1000      129      960     1100   
                                          VAR    BASINP    GEOM    SYMINP    ZMAT    AOBASIS   BASIS     P2S    ABASIS      S 
                                         1400     1410     1420     1200     1210     1080     1600     1650     1700   
                                           T        V       ECP      H0       H01     AOSYM     SMH    MOLCAS    OPER   

              2       4        2.77       700     1000      520     4202   
                                         GEOM     BASIS   MCVARS     RHF  

 PROGRAMS   *        TOTAL       RHF       INT
 CPU TIMES  *         1.17      0.16      0.66
 REAL TIME  *         2.28 SEC
 DISK USED  *       406.18 MB      
 SF USED    *         0.00 MB      
 GA USED    *         0.00 MB       (max)       0.00 MB       (current)
 **********************************************************************************************************************************


 PROGRAM * POP (Mulliken population analysis)

 
 Density matrix read from record         4202.2  Type=RHF/CHARGE (state 1.1)
 
 Population analysis by basis function type

 Unique atom        s        p        d        f        g    Total    Charge
   1  IR      4.00000  6.00000  7.00000  0.00000  0.00000 17.00000  + 0.00000


 **********************************************************************************************************************************
 DATASETS  * FILE   NREC   LENGTH (MB)   RECORD NAMES
              1      19       19.91       500      610      700      900      950      970     1000      129      960     1100   
                                          VAR    BASINP    GEOM    SYMINP    ZMAT    AOBASIS   BASIS     P2S    ABASIS      S 
                                         1400     1410     1420     1200     1210     1080     1600     1650     1700   
                                           T        V       ECP      H0       H01     AOSYM     SMH    MOLCAS    OPER   

              2       4        2.77       700     1000      520     4202   
                                         GEOM     BASIS   MCVARS     RHF  

 PROGRAMS   *        TOTAL       POP       RHF       INT
 CPU TIMES  *         1.17      0.00      0.16      0.66
 REAL TIME  *         2.29 SEC
 DISK USED  *       406.18 MB      
 SF USED    *         0.00 MB      
 GA USED    *         0.00 MB       (max)       0.00 MB       (current)
 **********************************************************************************************************************************


 PROGRAM * MULTI (Direct Multiconfiguration SCF)       Authors: P.J. Knowles, H.-J. Werner (1984)     S.T. Elbert (1988)


 Number of frozen core orbitals:    5 (   2   1   1   0   1   0   0   0 )
 Number of active  orbitals:        5 (   2   0   0   1   0   1   1   0 )
 Number of external orbitals:      39 (  12   5   5   4   5   4   4   0 )

 State symmetry 1

 Number of electrons:     7    Spin symmetry=Quartet   Space symmetry=1
 Number of states:        1
 Number of CSFs:          1   (1 determinants, 10 intermediate states)

 State symmetry 2

 Number of electrons:     7    Spin symmetry=Quartet   Space symmetry=4
 Number of states:        3
 Number of CSFs:          3   (3 determinants, 10 intermediate states)

 State symmetry 3

 Number of electrons:     7    Spin symmetry=Quartet   Space symmetry=6
 Number of states:        3
 Number of CSFs:          3   (3 determinants, 10 intermediate states)

 State symmetry 4

 Number of electrons:     7    Spin symmetry=Quartet   Space symmetry=7
 Number of states:        3
 Number of CSFs:          3   (3 determinants, 10 intermediate states)

 Iteration controls:
             1  2  3  4  5  6  7  8  9 10 11 12 13 14 15 16 17 18 19 20 21 22 23 24 25 26 27 28 29 30 31 32 33 34 35 36 37 38 39
 DIAGCI      T  T  T  T  T  T  T  T  T  T  T  T  T  T  T  T  T  T  T  T  T  T  T  T  T  T  T  T  T  T  T  T  T  T  T  T  T  T  T
 WERNER      T  T  T  T  T  T  T  T  T  T  T  T  T  T  T  T  T  T  T  T  T  T  T  T  T  T  T  T  T  T  T  T  T  T  T  T  T  T  T
 INTERNAL    F  T  T  T  T  T  T  T  T  T  T  T  T  T  T  T  T  T  T  T  T  T  T  T  T  T  T  T  T  T  T  T  T  T  T  T  T  T  T

 Valence orbitals read from record       4202.2  Type=RHF/CANONICAL (state 1.1)
 Frozen core orbitals read from record   4202.2  Type=RHF/CANONICAL (state 1.1)
 *** IN SYMMETRY 1 ORBITAL  3 SYMMETRY CONTAMINATION OF 0.517D-02 HAS BEEN REMOVED
 *** IN SYMMETRY 1 ORBITAL  4 SYMMETRY CONTAMINATION OF 0.517D-02 HAS BEEN REMOVED

 EXTRA SYMMETRY OF MOS IN SYMMETRY 1:   0 0 3 2 1 2 3 1 3 2   1 3 2 1 2 3

 Wavefunction dump at record             4203.2

 Convergence thresholds  0.10E-01 (gradient)  0.10E-05 (energy)  0.10E-02 (step length)

 Weight factors for state symmetry  1:    0.10000
 Weight factors for state symmetry  2:    0.10000   0.10000   0.10000
 Weight factors for state symmetry  3:    0.10000   0.10000   0.10000
 Weight factors for state symmetry  4:    0.10000   0.10000   0.10000

 Number of orbital rotations:       36   (     0 Core/Active      0 Core/Virtual   0 Active/Active     36 Active/Virtual)
 Total number of variables:         64


 ITER. MIC  NCI  NEG     ENERGY(VAR)     ENERGY(PROJ)   ENERGY CHANGE     GRAD(0)  GRAD(ORB)   GRAD(CI)     STEP       TIME

   1   21   16    0    -103.64680055    -103.64804396   -0.00124342    0.04231828 0.00000000 0.00000000  0.35D-01      0.04
   2   13   16    0    -103.64804747    -103.64804750   -0.00000003    0.00022613 0.00000000 0.00000000  0.16D-03      0.06
   3   58   44    0    -103.64804750    -103.64804750    0.00000000    0.00000001 0.00000000 0.00000000  0.45D-08      0.13

 ** WVFN ****  CONVERGENCE REACHED, FINAL GRADIENT:  0.51D-15



 Results for state 1.1
 =====================

 !MCSCF STATE 1.1 Energy             -103.665041277860
 Nuclear energy                         0.00000000
 Kinetic energy                        34.84833843
 One electron energy                 -180.13352421
 Two electron energy                   76.46848293
 Virial ratio                           3.97474847

 !MCSCF STATE 1.1 Dipole moment         0.00000000     0.00000000     0.00000000
 Dipole moment /Debye                   0.00000000     0.00000000     0.00000000



 Results for state 1.4
 =====================

 !MCSCF STATE 1.4 Energy             -103.665041277860
 Nuclear energy                         0.00000000
 Kinetic energy                        34.84833843
 One electron energy                 -180.13352421
 Two electron energy                   76.46848293
 Virial ratio                           3.97474847

 !MCSCF STATE 1.4 Dipole moment         0.00000000     0.00000000     0.00000000
 Dipole moment /Debye                   0.00000000     0.00000000     0.00000000

 Results for state 2.4
 =====================

 !MCSCF STATE 2.4 Energy             -103.665041277860
 Nuclear energy                         0.00000000
 Kinetic energy                        34.84833843
 One electron energy                 -180.13352421
 Two electron energy                   76.46848293
 Virial ratio                           3.97474847

 !MCSCF STATE 2.4 Dipole moment         0.00000000     0.00000000     0.00000000
 Dipole moment /Debye                   0.00000000     0.00000000     0.00000000

 Results for state 3.4
 =====================

 !MCSCF STATE 3.4 Energy             -103.608395338971
 Nuclear energy                         0.00000000
 Kinetic energy                        34.84833843
 One electron energy                 -180.13352421
 Two electron energy                   76.52512887
 Virial ratio                           3.97312297

 !MCSCF STATE 3.4 Dipole moment         0.00000000     0.00000000     0.00000000
 Dipole moment /Debye                   0.00000000     0.00000000     0.00000000



 Results for state 1.6
 =====================

 !MCSCF STATE 1.6 Energy             -103.665041277860
 Nuclear energy                         0.00000000
 Kinetic energy                        34.84833843
 One electron energy                 -180.13352421
 Two electron energy                   76.46848293
 Virial ratio                           3.97474847

 !MCSCF STATE 1.6 Dipole moment         0.00000000     0.00000000     0.00000000
 Dipole moment /Debye                   0.00000000     0.00000000     0.00000000

 Results for state 2.6
 =====================

 !MCSCF STATE 2.6 Energy             -103.665041277860
 Nuclear energy                         0.00000000
 Kinetic energy                        34.84833843
 One electron energy                 -180.13352421
 Two electron energy                   76.46848293
 Virial ratio                           3.97474847

 !MCSCF STATE 2.6 Dipole moment         0.00000000     0.00000000     0.00000000
 Dipole moment /Debye                   0.00000000     0.00000000     0.00000000

 Results for state 3.6
 =====================

 !MCSCF STATE 3.6 Energy             -103.608395338971
 Nuclear energy                         0.00000000
 Kinetic energy                        34.84833843
 One electron energy                 -180.13352421
 Two electron energy                   76.52512887
 Virial ratio                           3.97312297

 !MCSCF STATE 3.6 Dipole moment         0.00000000     0.00000000     0.00000000
 Dipole moment /Debye                   0.00000000     0.00000000     0.00000000



 Results for state 1.7
 =====================

 !MCSCF STATE 1.7 Energy             -103.665041277860
 Nuclear energy                         0.00000000
 Kinetic energy                        34.84833843
 One electron energy                 -180.13352421
 Two electron energy                   76.46848293
 Virial ratio                           3.97474847

 !MCSCF STATE 1.7 Dipole moment         0.00000000     0.00000000     0.00000000
 Dipole moment /Debye                   0.00000000     0.00000000     0.00000000

 Results for state 2.7
 =====================

 !MCSCF STATE 2.7 Energy             -103.665041277860
 Nuclear energy                         0.00000000
 Kinetic energy                        34.84833843
 One electron energy                 -180.13352421
 Two electron energy                   76.46848293
 Virial ratio                           3.97474847

 !MCSCF STATE 2.7 Dipole moment         0.00000000     0.00000000     0.00000000
 Dipole moment /Debye                   0.00000000     0.00000000     0.00000000

 Results for state 3.7
 =====================

 !MCSCF STATE 3.7 Energy             -103.608395338971
 Nuclear energy                         0.00000000
 Kinetic energy                        34.84833843
 One electron energy                 -180.13352421
 Two electron energy                   76.52512887
 Virial ratio                           3.97312297

 !MCSCF STATE 3.7 Dipole moment         0.00000000     0.00000000     0.00000000
 Dipole moment /Debye                   0.00000000     0.00000000     0.00000000

 State-averaged charge density matrix saved on record  4203.2 (density set 1)


 NATURAL ORBITALS (state averaged)
 =================================

   Orb     Occ        Energy       Coefficients

                                   1 1s      1 1s      1 1s      1 1s      1 1s      1 1s      1 3d0     1 3d2+    1 3d0     1 3d2+ 
                                   1 3d0     1 3d2+    1 3d0     1 3d2+    1 3d0     1 3d2+ 

   3.1  1.40000    -0.308432     0.000000  0.000000  0.000000  0.000000  0.000000  0.000000  1.000001  0.000000 -0.000098  0.000000
                                 0.000027  0.000000 -0.000010  0.000000 -0.000002  0.000000

   4.1  1.40000    -0.308432     0.000000  0.000000  0.000000  0.000000  0.000000  0.000000  0.000000  1.000001  0.000000 -0.000098
                                 0.000000  0.000027  0.000000 -0.000010  0.000000 -0.000002

                                   1 3d2-    1 3d2-    1 3d2-    1 3d2-    1 3d2- 

   1.4  1.40000    -0.308432     1.000001 -0.000098  0.000027 -0.000010 -0.000002

                                   1 3d1+    1 3d1+    1 3d1+    1 3d1+    1 3d1+ 

   1.6  1.40000    -0.308432     1.000001 -0.000098  0.000027 -0.000010 -0.000002

                                   1 3d1-    1 3d1-    1 3d1-    1 3d1-    1 3d1- 

   1.7  1.40000    -0.308432     1.000001 -0.000098  0.000027 -0.000010 -0.000002
 

 EXTRA SYMMETRY OF MOS IN SYMMETRY 1:   0 0 2 3 1 2 3 1 3 2   1 2 3 1 2 3

 Natural orbital dump (state averaged) at molpro section  4203.2    (Orbital set 2)



 **********************************************************************************************************************************
 DATASETS  * FILE   NREC   LENGTH (MB)   RECORD NAMES
              1      20       19.99       500      610      700      900      950      970     1000      129      960     1100   
                                          VAR    BASINP    GEOM    SYMINP    ZMAT    AOBASIS   BASIS     P2S    ABASIS      S 
                                         1400     1410     1420     1200     1210     1080     1600     1650     1700     1380   
                                           T        V       ECP      H0       H01     AOSYM     SMH    MOLCAS    OPER     JKOP   

              2       5        5.27       700     1000      520     4202     4203   
                                         GEOM     BASIS   MCVARS     RHF     MCSCF   

 PROGRAMS   *        TOTAL     MULTI       POP       RHF       INT
 CPU TIMES  *         1.36      0.18      0.00      0.16      0.66
 REAL TIME  *         3.61 SEC
 DISK USED  *       406.18 MB      
 SF USED    *        11.99 MB      
 GA USED    *         0.00 MB       (max)       0.00 MB       (current)
 **********************************************************************************************************************************


 PROGRAM * MULTI (Direct Multiconfiguration SCF)       Authors: P.J. Knowles, H.-J. Werner (1984)     S.T. Elbert (1988)


 Number of closed-shell orbitals:   5 (   2   1   1   0   1   0   0   0 )
 Number of active  orbitals:        5 (   2   0   0   1   0   1   1   0 )
 Number of external orbitals:      39 (  12   5   5   4   5   4   4   0 )

 State symmetry 1

 Number of electrons:     7    Spin symmetry=Quartet   Space symmetry=1
 Number of states:        1
 Number of CSFs:          1   (1 determinants, 10 intermediate states)

 State symmetry 2

 Number of electrons:     7    Spin symmetry=Quartet   Space symmetry=4
 Number of states:        3
 Number of CSFs:          3   (3 determinants, 10 intermediate states)

 State symmetry 3

 Number of electrons:     7    Spin symmetry=Quartet   Space symmetry=6
 Number of states:        3
 Number of CSFs:          3   (3 determinants, 10 intermediate states)

 State symmetry 4

 Number of electrons:     7    Spin symmetry=Quartet   Space symmetry=7
 Number of states:        3
 Number of CSFs:          3   (3 determinants, 10 intermediate states)

 Iteration controls:
             1  2  3  4  5  6  7  8  9 10 11 12 13 14 15 16 17 18 19 20 21 22 23 24 25 26 27 28 29 30 31 32 33 34 35 36 37 38 39
 DIAGCI      T  T  T  T  T  T  T  T  T  T  T  T  T  T  T  T  T  T  T  T  T  T  T  T  T  T  T  T  T  T  T  T  T  T  T  T  T  T  T
 WERNER      T  T  T  T  T  T  T  T  T  T  T  T  T  T  T  T  T  T  T  T  T  T  T  T  T  T  T  T  T  T  T  T  T  T  T  T  T  T  T
 INTERNAL    F  T  T  T  T  T  T  T  T  T  T  T  T  T  T  T  T  T  T  T  T  T  T  T  T  T  T  T  T  T  T  T  T  T  T  T  T  T  T

 Molecular orbitals read from record     4203.2  Type=MCSCF/NATURAL (state averaged)

 EXTRA SYMMETRY OF MOS IN SYMMETRY 1:   1 1 2 3 1 2 3 1 3 2   1 2 3 1 2 3

 Wavefunction dump at record             5202.2

 Convergence thresholds  0.10E-01 (gradient)  0.10E-05 (energy)  0.10E-02 (step length)

 Weight factors for state symmetry  1:    0.10000
 Weight factors for state symmetry  2:    0.10000   0.10000   0.10000
 Weight factors for state symmetry  3:    0.10000   0.10000   0.10000
 Weight factors for state symmetry  4:    0.10000   0.10000   0.10000

 Number of orbital rotations:       79   (     4 Core/Active     39 Core/Virtual   0 Active/Active     36 Active/Virtual)
 Total number of variables:        107


 ITER. MIC  NCI  NEG     ENERGY(VAR)     ENERGY(PROJ)   ENERGY CHANGE     GRAD(0)  GRAD(ORB)   GRAD(CI)     STEP       TIME

   1   33   20    0    -103.64804750    -103.64804819   -0.00000069    0.00176491 0.00000000 0.00000000  0.73D-03      0.05
   2   33   28    0    -103.64804819    -103.64804819   -0.00000000    0.00000022 0.00000000 0.00000000  0.12D-06      0.09

 ** WVFN ****  CONVERGENCE REACHED, FINAL GRADIENT:  0.61D-14



 Results for state 1.1
 =====================

 !MCSCF STATE 1.1 Energy             -103.665040257158
 Nuclear energy                         0.00000000
 Kinetic energy                        34.85059806
 One electron energy                 -180.13768423
 Two electron energy                   76.47264397
 Virial ratio                           3.97455556

 !MCSCF STATE 1.1 Dipole moment         0.00000000     0.00000000     0.00000000
 Dipole moment /Debye                   0.00000000     0.00000000     0.00000000



 Results for state 1.4
 =====================

 !MCSCF STATE 1.4 Energy             -103.665040257158
 Nuclear energy                         0.00000000
 Kinetic energy                        34.85059806
 One electron energy                 -180.13768423
 Two electron energy                   76.47264397
 Virial ratio                           3.97455556

 !MCSCF STATE 1.4 Dipole moment         0.00000000     0.00000000     0.00000000
 Dipole moment /Debye                   0.00000000     0.00000000     0.00000000

 Results for state 2.4
 =====================

 !MCSCF STATE 2.4 Energy             -103.665040257158
 Nuclear energy                         0.00000000
 Kinetic energy                        34.85059806
 One electron energy                 -180.13768423
 Two electron energy                   76.47264397
 Virial ratio                           3.97455556

 !MCSCF STATE 2.4 Dipole moment         0.00000000     0.00000000     0.00000000
 Dipole moment /Debye                   0.00000000     0.00000000     0.00000000

 Results for state 3.4
 =====================

 !MCSCF STATE 3.4 Energy             -103.608400027397
 Nuclear energy                         0.00000000
 Kinetic energy                        34.85059806
 One electron energy                 -180.13768423
 Two electron energy                   76.52928420
 Virial ratio                           3.97293033

 !MCSCF STATE 3.4 Dipole moment         0.00000000     0.00000000     0.00000000
 Dipole moment /Debye                   0.00000000     0.00000000     0.00000000



 Results for state 1.6
 =====================

 !MCSCF STATE 1.6 Energy             -103.665040257158
 Nuclear energy                         0.00000000
 Kinetic energy                        34.85059806
 One electron energy                 -180.13768423
 Two electron energy                   76.47264397
 Virial ratio                           3.97455556

 !MCSCF STATE 1.6 Dipole moment         0.00000000     0.00000000     0.00000000
 Dipole moment /Debye                   0.00000000     0.00000000     0.00000000

 Results for state 2.6
 =====================

 !MCSCF STATE 2.6 Energy             -103.665040257158
 Nuclear energy                         0.00000000
 Kinetic energy                        34.85059806
 One electron energy                 -180.13768423
 Two electron energy                   76.47264397
 Virial ratio                           3.97455556

 !MCSCF STATE 2.6 Dipole moment         0.00000000     0.00000000     0.00000000
 Dipole moment /Debye                   0.00000000     0.00000000     0.00000000

 Results for state 3.6
 =====================

 !MCSCF STATE 3.6 Energy             -103.608400027397
 Nuclear energy                         0.00000000
 Kinetic energy                        34.85059806
 One electron energy                 -180.13768423
 Two electron energy                   76.52928420
 Virial ratio                           3.97293033

 !MCSCF STATE 3.6 Dipole moment         0.00000000     0.00000000     0.00000000
 Dipole moment /Debye                   0.00000000     0.00000000     0.00000000



 Results for state 1.7
 =====================

 !MCSCF STATE 1.7 Energy             -103.665040257158
 Nuclear energy                         0.00000000
 Kinetic energy                        34.85059806
 One electron energy                 -180.13768423
 Two electron energy                   76.47264397
 Virial ratio                           3.97455556

 !MCSCF STATE 1.7 Dipole moment         0.00000000     0.00000000     0.00000000
 Dipole moment /Debye                   0.00000000     0.00000000     0.00000000

 Results for state 2.7
 =====================

 !MCSCF STATE 2.7 Energy             -103.665040257158
 Nuclear energy                         0.00000000
 Kinetic energy                        34.85059806
 One electron energy                 -180.13768423
 Two electron energy                   76.47264397
 Virial ratio                           3.97455556

 !MCSCF STATE 2.7 Dipole moment         0.00000000     0.00000000     0.00000000
 Dipole moment /Debye                   0.00000000     0.00000000     0.00000000

 Results for state 3.7
 =====================

 !MCSCF STATE 3.7 Energy             -103.608400027397
 Nuclear energy                         0.00000000
 Kinetic energy                        34.85059806
 One electron energy                 -180.13768423
 Two electron energy                   76.52928420
 Virial ratio                           3.97293033

 !MCSCF STATE 3.7 Dipole moment         0.00000000     0.00000000     0.00000000
 Dipole moment /Debye                   0.00000000     0.00000000     0.00000000

 State-averaged charge density matrix saved on record  5202.2 (density set 1)


 NATURAL ORBITALS (state averaged)
 =================================

   Orb     Occ        Energy       Coefficients

                                   1 1s      1 1s      1 1s      1 1s      1 1s      1 1s      1 3d0     1 3d2+    1 3d0     1 3d2+ 
                                   1 3d0     1 3d2+    1 3d0     1 3d2+    1 3d0     1 3d2+ 

   1.1  2.00000    -4.225788     1.000000  0.000000  0.000000  0.000000 -0.000000 -0.000000  0.000000  0.000000  0.000000  0.000000
                                 0.000000  0.000000  0.000000  0.000000  0.000000  0.000000

   2.1  2.00000    -0.296846    -0.000000  1.000000 -0.000000  0.000000  0.000000  0.000000  0.000000  0.000000  0.000000  0.000000
                                 0.000000  0.000000  0.000000  0.000000  0.000000  0.000000

   3.1  1.40000    -0.308193     0.000000  0.000000  0.000000  0.000000  0.000000  0.000000  0.000000  1.000000  0.000000 -0.000000
                                 0.000000 -0.000000  0.000000  0.000000  0.000000  0.000000

   4.1  1.40000    -0.308193     0.000000  0.000000  0.000000  0.000000  0.000000  0.000000  1.000000  0.000000 -0.000000  0.000000
                                -0.000000  0.000000  0.000000  0.000000  0.000000  0.000000

                                   1 2px     1 2px     1 2px     1 2px     1 2px     1 2px  

   1.2  2.00000    -2.456013     1.000000  0.000001 -0.000000 -0.000000 -0.000000  0.000000

                                   1 2py     1 2py     1 2py     1 2py     1 2py     1 2py  

   1.3  2.00000    -2.456013     1.000000  0.000001 -0.000000 -0.000000 -0.000000  0.000000

                                   1 3d2-    1 3d2-    1 3d2-    1 3d2-    1 3d2- 

   1.4  1.40000    -0.308193     1.000000 -0.000000 -0.000000  0.000000  0.000000

                                   1 2pz     1 2pz     1 2pz     1 2pz     1 2pz     1 2pz  

   1.5  2.00000    -2.456013     1.000000  0.000001 -0.000000 -0.000000 -0.000000  0.000000

                                   1 3d1+    1 3d1+    1 3d1+    1 3d1+    1 3d1+ 

   1.6  1.40000    -0.308193     1.000000 -0.000000 -0.000000  0.000000  0.000000

                                   1 3d1-    1 3d1-    1 3d1-    1 3d1-    1 3d1- 

   1.7  1.40000    -0.308193     1.000000 -0.000000 -0.000000  0.000000  0.000000
 

 EXTRA SYMMETRY OF MOS IN SYMMETRY 1:   1 1 3 2 1 2 3 1 3 2   1 2 3 1 2 3

 Natural orbital dump (state averaged) at molpro section  5202.2    (Orbital set 2)


 CI vector for state symmetry 1
 ==============================

 22 a a a          1.0000000

 TOTAL ENERGIES                      -103.66504026

 CI vector for state symmetry 2
 ==============================

 a2 2 a a          0.0000000   1.0000000   0.0000000
 aa a 2 2          0.8944272   0.0000000  -0.4472136
 2a 2 a a          0.4472136   0.0000000   0.8944272

 TOTAL ENERGIES                      -103.66504026  -103.66504026  -103.60840003

 CI vector for state symmetry 3
 ==============================

 aa 2 a 2          0.8936922   0.0362516  -0.4472136
 2a a 2 a          0.1883226   0.8743767   0.4472136
 a2 a 2 a          0.4072453  -0.4838918   0.7745967

 TOTAL ENERGIES                      -103.66504026  -103.66504026  -103.60840003

 CI vector for state symmetry 4
 ==============================

 aa 2 2 a          0.8939179  -0.0301797  -0.4472136
 2a a a 2         -0.1942581   0.8730772  -0.4472136
 a2 a a 2          0.4039488   0.4866471   0.7745967

 TOTAL ENERGIES                      -103.66504026  -103.66504026  -103.60840003



 **********************************************************************************************************************************
 DATASETS  * FILE   NREC   LENGTH (MB)   RECORD NAMES
              1      20       20.14       500      610      700      900      950      970     1000      129      960     1100   
                                          VAR    BASINP    GEOM    SYMINP    ZMAT    AOBASIS   BASIS     P2S    ABASIS      S 
                                         1400     1410     1420     1200     1210     1080     1600     1650     1700     1380   
                                           T        V       ECP      H0       H01     AOSYM     SMH    MOLCAS    OPER     JKOP   

              2       6        7.79       700     1000      520     4202     4203     5202   
                                         GEOM     BASIS   MCVARS     RHF     MCSCF    MCSCF   

 PROGRAMS   *        TOTAL     MULTI     MULTI       POP       RHF       INT
 CPU TIMES  *         1.57      0.21      0.18      0.00      0.16      0.66
 REAL TIME  *         4.89 SEC
 DISK USED  *       406.18 MB      
 SF USED    *        12.57 MB      
 GA USED    *         0.00 MB       (max)       0.00 MB       (current)
 **********************************************************************************************************************************


 PROGRAM * RHF-SCF (OPEN SHELL)       Authors: W. Meyer, H.-J. Werner


 NUMBER OF ELECTRONS:      10+    7-    SPACE SYMMETRY=1    SPIN SYMMETRY: Quartet 
 CONVERGENCE THRESHOLDS:    1.00E-05 (Density)    1.00E-07 (Energy)
 MAX. NUMBER OF ITERATIONS:        0
 INTERPOLATION TYPE:            DIIS
 INTERPOLATION STEPS:              2 (START)      1 (STEP)
 LEVEL SHIFTS:                 -0.60 (CLOSED) -0.30 (OPEN) 

 Number of closed-shell orbitals:    7 (   4   1   1   0   1   0   0 )
 Number of open-shell orbitals:      3 (   0   0   0   1   0   1   1 )


 Molecular orbitals read from record     5202.2  Type=MCSCF/NATURAL (state averaged)

 Molecular orbital dump at record        2101.2

 ITERATION    DDIFF          GRAD             ENERGY        2-EL.EN.            DIPOLE MOMENTS         DIIS   ORB.
    1      0.000D+00      0.000D+00      -103.66504026    152.945288    0.00000    0.00000    0.00000    0    start

 Final alpha occupancy:   4   1   1   1   1   1   1
 Final beta  occupancy:   4   1   1   0   1   0   0

 !RHF STATE 1.1 Energy               -103.665040257158
 Nuclear energy                         0.00000000
 One-electron energy                 -180.13768423
 Two-electron energy                   76.47264397
 Virial quotient                       -2.97455556
 !RHF STATE 1.1 Dipole moment           0.00000000     0.00000000     0.00000000
 Dipole moment /Debye                   0.00000000     0.00000000     0.00000000

 ELECTRON ORBITALS
 =================


   Orb  Occ    Energy  Couls-En    Coefficients

                                   1 1s      1 1s      1 1s      1 1s      1 1s      1 1s      1 3d0     1 3d2+    1 3d0     1 3d2+ 
                                   1 3d0     1 3d2+    1 3d0     1 3d2+    1 3d0     1 3d2+ 

   1.1   2    -4.2258  -18.8559  1.000000  0.000000  0.000000  0.000000 -0.000000 -0.000000  0.000000  0.000000  0.000000  0.000000
                                 0.000000  0.000000  0.000000  0.000000  0.000000  0.000000

   2.1   2    -0.2968   -6.2598 -0.000000  1.000000 -0.000000  0.000000  0.000000  0.000000  0.000000  0.000000  0.000000  0.000000
                                 0.000000  0.000000  0.000000  0.000000  0.000000  0.000000

   3.1   2    -0.3082   -9.4256  0.000000  0.000000  0.000000  0.000000  0.000000  0.000000  0.000000  1.000000  0.000000 -0.000000
                                 0.000000 -0.000000  0.000000  0.000000  0.000000  0.000000

   4.1   2    -0.3082   -9.4256  0.000000  0.000000  0.000000  0.000000  0.000000  0.000000  1.000000  0.000000 -0.000000  0.000000
                                -0.000000  0.000000  0.000000  0.000000  0.000000  0.000000

   5.1   0     0.1540   -3.2188  0.000000 -0.016263  0.764455  0.550866 -0.317157  0.108773  0.000000  0.000000  0.000000  0.000000
                                 0.000000  0.000000  0.000000  0.000000  0.000000  0.000000

   6.1   0     0.3327   -3.5435  0.000000  0.000000  0.000000  0.000000  0.000000  0.000000 -0.004357  0.000000  0.684579  0.000000
                                -0.611686  0.000000  0.364467  0.000000  0.156119  0.000000

                                   1 2px     1 2px     1 2px     1 2px     1 2px     1 2px  

   1.2   2    -2.4560  -14.9776  1.000000  0.000001 -0.000000 -0.000000 -0.000000  0.000000

   2.2   0     0.0751   -4.2058  0.000001  0.863467 -0.423778  0.238562 -0.122826 -0.053277

   3.2   0     0.4545   -4.1016 -0.000000  0.488665  0.573790 -0.536675  0.341765  0.164766

                                   1 2py     1 2py     1 2py     1 2py     1 2py     1 2py  

   1.3   2    -2.4560  -14.9776  1.000000  0.000001 -0.000000 -0.000000 -0.000000  0.000000

   2.3   0     0.0751   -4.2058  0.000001  0.863467 -0.423778  0.238562 -0.122826 -0.053277

   3.3   0     0.4545   -4.1016 -0.000000  0.488665  0.573790 -0.536675  0.341765  0.164766

                                   1 3d2-    1 3d2-    1 3d2-    1 3d2-    1 3d2- 

   1.4   +    -0.3082   -9.4256  1.000000 -0.000000 -0.000000  0.000000  0.000000

   2.4   0     0.3327   -3.5435 -0.004357  0.684579 -0.611686  0.364467  0.156119

   3.4   0     1.1888   -3.9029 -0.004411  0.678595  0.340270 -0.564969 -0.323351

                                   1 2pz     1 2pz     1 2pz     1 2pz     1 2pz     1 2pz  

   1.5   2    -2.4560  -14.9776  1.000000  0.000001 -0.000000 -0.000000 -0.000000  0.000000

   2.5   0     0.0751   -4.2058  0.000001  0.863467 -0.423778  0.238562 -0.122826 -0.053277

   3.5   0     0.4545   -4.1016 -0.000000  0.488665  0.573790 -0.536675  0.341765  0.164766

                                   1 3d1+    1 3d1+    1 3d1+    1 3d1+    1 3d1+ 

   1.6   +    -0.3082   -9.4256  1.000000 -0.000000 -0.000000  0.000000  0.000000

   2.6   0     0.3327   -3.5435 -0.004357  0.684579 -0.611686  0.364467  0.156119

   3.6   0     1.1888   -3.9029 -0.004411  0.678595  0.340270 -0.564969 -0.323351

                                   1 3d1-    1 3d1-    1 3d1-    1 3d1-    1 3d1- 

   1.7   +    -0.3082   -9.4256  1.000000 -0.000000 -0.000000  0.000000  0.000000

   2.7   0     0.3327   -3.5435 -0.004357  0.684579 -0.611686  0.364467  0.156119

   3.7   0     1.1888   -3.9029 -0.004411  0.678595  0.340270 -0.564969 -0.323351

 HOMO      4.1    -0.308193 =      -8.3864eV
 LUMO      2.2     0.075117 =       2.0440eV
 LUMO-HOMO         0.383311 =      10.4304eV


 **********************************************************************************************************************************
 DATASETS  * FILE   NREC   LENGTH (MB)   RECORD NAMES
              1      20       20.14       500      610      700      900      950      970     1000      129      960     1100   
                                          VAR    BASINP    GEOM    SYMINP    ZMAT    AOBASIS   BASIS     P2S    ABASIS      S 
                                         1400     1410     1420     1200     1210     1080     1600     1650     1700     1380   
                                           T        V       ECP      H0       H01     AOSYM     SMH    MOLCAS    OPER     JKOP   

              2       7       10.32       700     1000      520     4202     4203     5202     2101   
                                         GEOM     BASIS   MCVARS     RHF     MCSCF    MCSCF     RHF  

 PROGRAMS   *        TOTAL       RHF     MULTI     MULTI       POP       RHF       INT
 CPU TIMES  *         1.61      0.04      0.21      0.18      0.00      0.16      0.66
 REAL TIME  *         4.99 SEC
 DISK USED  *       406.18 MB      
 SF USED    *        12.57 MB      
 GA USED    *         0.00 MB       (max)       0.00 MB       (current)
 **********************************************************************************************************************************


 PROGRAM * CI (Multireference internally contracted CI)     Authors: H.-J. Werner, P.J. Knowles, 1987


 Convergence thresholds:  THRVAR = 1.00D-08  THRDEN = 1.00D-06

 Number of optimized states:  1  Roots:   1
 Number of reference states:  1  Roots:   1

 Reference symmetry:                   1   Quartet 
 Number of electrons:                 17
 Maximum number of shells:             3
 Maximum number of spin couplings:    14

 Reference space:        1 conf        1 CSFs
 N elec internal:       19 conf       19 CSFs
 N-1 el internal:       42 conf       78 CSFs
 N-2 el internal:       18 conf       93 CSFs

 Number of electrons in valence space:                      9
 Maximum number of open shell orbitals in reference space:  3
 Maximum number of open shell orbitals in internal spaces:  7


 Number of core orbitals:           4 (   1   1   1   0   1   0   0 )
 Number of closed-shell orbitals:   3 (   3   0   0   0   0   0   0 )
 Number of active  orbitals:        3 (   0   0   0   1   0   1   1 )
 Number of external orbitals:      39 (  12   5   5   4   5   4   4 )

 Molecular orbitals read from record     2101.2  Type=RHF/CANONICAL (state 1.1)

 Coulomb and exchange operators available. No transformation done.

 Number of p-space configurations:   1

 Reference wavefunction optimized for reference space (refopt=1)

 State     Reference Energy 
   1        -103.66504026

 Number of blocks in overlap matrix:    30   Smallest eigenvalue:  0.10D+01
 Number of N-2 electron functions:      30
 Number of N-1 electron functions:      78

 Number of internal configurations:                    1
 Number of singly external configurations:           408
 Number of doubly external configurations:          3129
 Total number of contracted configurations:         3538
 Total number of uncontracted configurations:      10621

 Diagonal Coupling coefficients finished.               Storage:    6173 words, CPU-Time:      0.00 seconds.
 Energy denominators for pairs finished in 1 passes.    Storage:    7251 words, CPU-time:      0.00 seconds.

  ITER. STATE  ROOT     SQ.NORM     CORR.ENERGY   TOTAL ENERGY   ENERGY CHANGE       DEN1      VAR(S)    VAR(P)      TIME
    1     1     1     1.00000000     0.00000000  -103.66504026     0.00000000    -0.08695686  0.67D-02  0.55D-01     0.18
    2     1     1     1.06485911    -0.08918706  -103.75422731    -0.08918706    -0.00281068  0.10D-02  0.12D-02     0.18
    3     1     1     1.08363332    -0.09275770  -103.75779795    -0.00357064    -0.00017094  0.78D-04  0.65D-04     0.19
    4     1     1     1.08561851    -0.09295892  -103.75799917    -0.00020122    -0.00000893  0.31D-05  0.34D-05     0.20
    5     1     1     1.08549186    -0.09296953  -103.75800979    -0.00001061    -0.00000040  0.13D-06  0.14D-06     0.21
    6     1     1     1.08547015    -0.09297001  -103.75801027    -0.00000048    -0.00000001  0.27D-08  0.50D-08     0.22


 =====================================
 Analysis of CPU times by interactions
 =====================================

       I      S      P

 I   0.0%
 S   0.0%   4.5%
 P  36.4%  13.6%   0.0%

 Initialization:  45.5%
 Other:            0.0%

 Total CPU:        0.2 seconds
 =====================================



 Reference coefficients greater than 0.0500000
 =============================================
 222///           0.9598228

 Coefficients of doubly external configurations greater than 0.0500000
 =====================================================================

 PAIR    I     J   ->   K     L     NP  SYM  REF     COEFFICIENTS

   1    2.1   2.1      2.5   2.5     1   1    1   -0.08203944
   1    2.1   2.1      2.3   2.3     1   1    1   -0.08203912
   1    2.1   2.1      2.2   2.2     1   1    1   -0.08203910



 RESULTS FOR STATE 1.1
 =====================

 Coefficient of reference function:   C(0) = 0.95982279 (fixed)   0.95982279 (relaxed)

 Energy contributions of configuration classes

 CLASS          SQ.NORM        ECORR1        ECORR2
 +++++++++++++++++++++++++++++++++++++++++++++++++++
 Internals    0.00000000    0.00000000    0.00000000
 Singles      0.01052755   -0.00615266   -0.00657002
 Pairs        0.07494260   -0.08681735   -0.08639999
 Total        1.08547015   -0.09297001   -0.09297001
 +++++++++++++++++++++++++++++++++++++++++++++++++++


 Reference energy                    -103.66504026
 Nuclear energy                         0.00000000
 Kinetic energy                        34.75773794
 One electron energy                 -179.83463179
 Two electron energy                   76.07662152
 Virial quotient                       -2.98517730
 Correlation energy                    -0.09297001
 !CI(SD) STATE 1.1 Energy            -103.758010268420

 Properties without orbital relaxation:

 !CI(SD) STATE 1.1 Dipole moment        0.00000000     0.00000000     0.00000000
 Dipole moment /Debye                   0.00000000     0.00000000     0.00000000

 Cluster corrected energies          -103.76595643 (Davidson, fixed reference)
 Cluster corrected energies          -103.76595643 (Davidson, relaxed reference)

 Cluster corrected energies          -103.76345371 (Pople, fixed reference)
 Cluster corrected energies          -103.76345371 (Pople, relaxed reference)


 Natural orbitals
 ================

   Orb     Occ           Coefficients

                         1 1s      1 1s      1 1s      1 1s      1 1s      1 1s      1 3d0     1 3d2+    1 3d0     1 3d2+ 
                         1 3d0     1 3d2+    1 3d0     1 3d2+    1 3d0     1 3d2+ 

   1.1    2.0000000    1.000000  0.000000  0.000000  0.000000 -0.000000 -0.000000  0.000000  0.000000  0.000000  0.000000
                       0.000000  0.000000  0.000000  0.000000  0.000000  0.000000

   2.1    1.9818272    0.000000 -0.000007 -0.000001 -0.000001  0.000000 -0.000000  0.999577  0.005622  0.020453  0.000115
                      -0.011176 -0.000063  0.002439  0.000014  0.001205  0.000007

   3.1    1.9818271    0.000000  0.000000  0.000000  0.000000 -0.000000  0.000000 -0.005622  0.999577 -0.000115  0.020453
                       0.000063 -0.011175 -0.000014  0.002439 -0.000007  0.001205

   4.1    1.9082572   -0.000000  1.000138 -0.014438 -0.006602  0.003195 -0.000652  0.000007 -0.000000  0.000000 -0.000000
                      -0.000000  0.000000  0.000000 -0.000000  0.000000 -0.000000

   5.1    0.0093797    0.000000 -0.000176  1.000002  0.000316 -0.000152  0.000160  0.000001 -0.000000 -0.000015  0.000001
                       0.000002 -0.000000  0.000000  0.000000  0.000000 -0.000000

   6.1    0.0070935   -0.000000  0.000000 -0.000001  0.000000 -0.000000  0.000000  0.000029 -0.027450 -0.001057  0.997865
                       0.000061 -0.057949 -0.000020  0.019289 -0.000012  0.011287

   7.1    0.0070935    0.000000 -0.000000  0.000015 -0.000005  0.000003 -0.000001 -0.027450 -0.000029  0.997866  0.001057
                      -0.057945 -0.000061  0.019286  0.000020  0.011285  0.000012

   8.1    0.0004676    0.000000  0.000000  0.000000 -0.000026  0.000000 -0.000000 -0.000121  0.009914 -0.000718  0.058952
                      -0.012155  0.997432  0.000439 -0.036007  0.000127 -0.010443

   9.1    0.0004676   -0.000000 -0.000000 -0.000001  0.000427 -0.000005  0.000002  0.009914  0.000121  0.058948  0.000718
                       0.997432  0.012155 -0.036004 -0.000439 -0.010441 -0.000127

  10.1    0.0004545   -0.000000 -0.000288 -0.000310  0.999997  0.002703 -0.001706 -0.000004  0.000000 -0.000021  0.000001
                      -0.000427  0.000021  0.000010 -0.000000  0.000003 -0.000000

  11.1    0.0000438    0.000000  0.000000 -0.000000  0.000000  0.000007 -0.000000  0.000001  0.001141  0.000018  0.017261
                      -0.000038 -0.037167 -0.001020 -0.999141 -0.000006 -0.005855

  12.1    0.0000438   -0.000000 -0.000000  0.000000 -0.000005 -0.000056  0.000009  0.001141 -0.000001  0.017258 -0.000018
                      -0.037164  0.000038 -0.999141  0.001020 -0.005849  0.000006

  13.1    0.0000394    0.000000  0.000449  0.000142 -0.002663  0.999671  0.025554 -0.000000 -0.000000 -0.000002 -0.000000
                       0.000005 -0.000000 -0.000056  0.000007  0.000005 -0.000000

  14.1    0.0000084   -0.000000 -0.000000  0.000000 -0.000000 -0.000000  0.000022  0.000032 -0.000889  0.000383 -0.010566
                      -0.000394  0.010861  0.000233 -0.006444 -0.036203  0.999208

  15.1    0.0000084    0.000000  0.000000 -0.000000  0.000001  0.000002 -0.000278 -0.000889 -0.000032 -0.010564 -0.000383
                       0.010860  0.000394 -0.006437 -0.000233  0.999208  0.036203

  16.1    0.0000078   -0.000000 -0.000609 -0.000155  0.001779 -0.025552  0.999672 -0.000000  0.000000 -0.000002  0.000000
                       0.000000 -0.000000  0.000008 -0.000001  0.000279 -0.000012

                         1 2px     1 2px     1 2px     1 2px     1 2px     1 2px  

   1.2    2.0000000    1.000000  0.000001 -0.000000 -0.000000 -0.000000  0.000000

   2.2    0.0358494    0.000001  1.000000 -0.000120 -0.000052  0.000047  0.000015

   3.2    0.0008851   -0.000000  0.000120  1.000000  0.000257 -0.000251 -0.000061

   4.2    0.0000569    0.000001  0.000052 -0.000257  0.999999  0.000940 -0.001016

   5.2    0.0000068    0.000001  0.000046 -0.000250  0.000952 -0.999926  0.012130

   6.2    0.0000014   -0.000001 -0.000015  0.000064  0.001005  0.012131  0.999926

                         1 2py     1 2py     1 2py     1 2py     1 2py     1 2py  

   1.3    2.0000000    1.000000  0.000001 -0.000000 -0.000000 -0.000000  0.000000

   2.3    0.0358494    0.000001  1.000000 -0.000120 -0.000052  0.000047  0.000015

   3.3    0.0008851   -0.000000  0.000120  1.000000  0.000257 -0.000251 -0.000061

   4.3    0.0000569    0.000001  0.000052 -0.000257  0.999999  0.000940 -0.001016

   5.3    0.0000068    0.000001  0.000046 -0.000250  0.000952 -0.999926  0.012130

   6.3    0.0000014   -0.000001 -0.000015  0.000064  0.001005  0.012131  0.999926

                         1 3d2-    1 3d2-    1 3d2-    1 3d2-    1 3d2- 

   1.4    0.9943673    1.000020 -0.006340  0.000300  0.000338 -0.000225

   2.4    0.0029519    0.000008  1.000000  0.000250 -0.000032  0.000105

   3.4    0.0001855   -0.000042 -0.000250  0.999994  0.002924  0.001777

   4.4    0.0000188   -0.000079 -0.000033  0.002903 -0.999931  0.011367

   5.4    0.0000033    0.000121 -0.000105 -0.001810  0.011362  0.999934

                         1 2pz     1 2pz     1 2pz     1 2pz     1 2pz     1 2pz  

   1.5    2.0000000    1.000000  0.000001 -0.000000 -0.000000 -0.000000  0.000000

   2.5    0.0358501    0.000001  1.000000 -0.000122 -0.000052  0.000047  0.000015

   3.5    0.0008851   -0.000000  0.000122  1.000000  0.000260 -0.000252 -0.000062

   4.5    0.0000569    0.000001  0.000052 -0.000259  0.999999  0.000938 -0.001014

   5.5    0.0000068    0.000001  0.000046 -0.000251  0.000950 -0.999926  0.012137

   6.5    0.0000014   -0.000001 -0.000015  0.000065  0.001003  0.012138  0.999926

                         1 3d1+    1 3d1+    1 3d1+    1 3d1+    1 3d1+ 

   1.6    0.9943674    1.000020 -0.006340  0.000300  0.000338 -0.000225

   2.6    0.0029520    0.000008  1.000000  0.000244 -0.000029  0.000106

   3.6    0.0001855   -0.000042 -0.000244  0.999994  0.002916  0.001773

   4.6    0.0000188   -0.000079 -0.000030  0.002896 -0.999931  0.011352

   5.6    0.0000033    0.000121 -0.000107 -0.001806  0.011346  0.999934

                         1 3d1-    1 3d1-    1 3d1-    1 3d1-    1 3d1- 

   1.7    0.9943674    1.000020 -0.006340  0.000300  0.000338 -0.000225

   2.7    0.0029520    0.000008  1.000000  0.000244 -0.000029  0.000106

   3.7    0.0001855   -0.000042 -0.000244  0.999994  0.002916  0.001773

   4.7    0.0000188   -0.000079 -0.000030  0.002896 -0.999931  0.011352

   5.7    0.0000033    0.000121 -0.000107 -0.001806  0.011346  0.999934

 Electronic charge:   17.000000


 **********************************************************************************************************************************
 DATASETS  * FILE   NREC   LENGTH (MB)   RECORD NAMES
              1      20       20.14       500      610      700      900      950      970     1000      129      960     1100   
                                          VAR    BASINP    GEOM    SYMINP    ZMAT    AOBASIS   BASIS     P2S    ABASIS      S 
                                         1400     1410     1420     1200     1210     1080     1600     1650     1700     1380   
                                           T        V       ECP      H0       H01     AOSYM     SMH    MOLCAS    OPER     JKOP   

              2       7       10.32       700     1000      520     4202     4203     5202     2101   
                                         GEOM     BASIS   MCVARS     RHF     MCSCF    MCSCF     RHF  

 PROGRAMS   *        TOTAL        CI       RHF     MULTI     MULTI       POP       RHF       INT
 CPU TIMES  *         1.87      0.27      0.04      0.21      0.18      0.00      0.16      0.66
 REAL TIME  *         5.67 SEC
 DISK USED  *       406.18 MB      
 SF USED    *        12.57 MB      
 GA USED    *         0.00 MB       (max)       0.00 MB       (current)
 **********************************************************************************************************************************

 CI/USERDEF energy=   -103.758010268420

        CI              RHF-SCF         MULTI           MULTI           RHF-SCF 
   -103.75801027   -103.66504026   -103.60840003   -103.60839534   -103.66600073
 **********************************************************************************************************************************
 Molpro calculation terminated
 Variable memory released
