
 Primary working directories    : /global/cscratch1/sd/bkincaid
 Secondary working directories  : /global/cscratch1/sd/bkincaid
 Wavefunction directory         : /global/homes/b/bkincaid/wfu/
 Main file repository           : /global/cscratch1/sd/bkincaid/

 SHA1      : 19cd028119e0e09f93f0674bd8af7968d9b3eff6
 NAME      : 2015.1.36
 ARCHNAME  : linux/x86_64
 FC        : /opt/cray/pe/craype/2.5.14/bin/ftn
 BLASLIB   : -L/opt/intel/compilers_and_libraries_2018.1.163/linux/mkl/lib/intel64 -Wl,-_start-group -lmkl_intel_ilp64 -lmkl_intel_thread -lmkl_core -Wl,-_end-group -liomp5
 id        : lbl

 Nodes     nprocs
 nid00767    11
 Number of processes for MPI-2 version of Molpro:   nprocs(total)=   12   nprocs(compute)=   11   nprocs(helper)=    1

 Using customized tuning parameters: mindgm=7; mindgv=16; mindgc=1; mindgr=1; noblas=0; minvec=7
 default implementation of scratch files=sf  

 ***,Calculation for IrO groundstate
 memory,1024,m
 gthresh,twoint=1.0E-15
 gthresh,throvl=1.0E-15
 
 set,dkroll=1,dkho=10,dkhp=4
 
 basis={
 Including file /global/u1/b/bkincaid/molpro/Ir/molecules/tz/IrO/ae/1.700-debug/tz.basis
 Including file /global/u1/b/bkincaid/molpro/Ir/molecules/tz/IrO/ae/1.700-debug/O-aug-cc-CVTZ.basis
 }
 
 ne = 85
 
 A1=20
 B1=10
 B2=10
 A2=4
 
 do i=1,1
 if(i.eq.1) then
 z(i) = 1.700
 endif
 
 geometry={
 2
 IrO
 Ir 0.0 0.0 0.0
 O 0.0 0.0 z(i)
 }
 {rhf
 wf,nelec=ne-3,spin=0,sym=1
         occ,A1,B1-1,B2-1,A2-1
         closed,A1,B1-1,B2-1,A2-1
         print,orbitals=2
 }
 {rhf,nitord=20
 wf,nelec=ne,spin=3,sym=1
         occ,A1,B1,B2,A2
         closed,A1,B1-1,B2-1,A2-1
         print,orbitals=2
 }
 scf(i)=energy
 _CC_NORM_MAX=2.0
                                                                                 !{rccsd(t);maxit,100;core}
                                                                                 !ccsd(i)=energy
 enddo
 
 table,z,scf                                                                     !,ccsd
 save
 type,csv
 

 Variables initialized (889), CPU time= 0.01 sec
 Commands  initialized (702), CPU time= 0.01 sec, 572 directives.
 Default parameters read. Elapsed time= 0.15 sec

 Checking input...
 Passed
1


                                         ***  PROGRAM SYSTEM MOLPRO  ***
                                       Copyright, TTI GmbH Stuttgart, 2015
                                    Version 2015.1 linked Dec 29 2018 15:55:43


 **********************************************************************************************************************************
 LABEL *   Calculation for IrO groundstate                                               
  64 bit mpp version                                                                     DATE: 10-Jun-21          TIME: 13:12:46  
 **********************************************************************************************************************************

 SHA1:             19cd028119e0e09f93f0674bd8af7968d9b3eff6
 **********************************************************************************************************************************

 THRESHOLDS:

 ZERO    =  1.00D-12  ONEINT  =  1.00D-12  TWOINT  =  1.00D-15  PREFAC  =  1.00D-14  LOCALI  =  1.00D-09  EORDER  =  1.00D-04
 ENERGY  =  0.00D+00  ETEST   =  0.00D+00  EDENS   =  0.00D+00  THRDEDEF=  1.00D-06  GRADIENT=  1.00D-02  STEP    =  1.00D-03
 ORBITAL =  1.00D-05  CIVEC   =  1.00D-05  COEFF   =  1.00D-04  PRINTCI =  5.00D-02  PUNCHCI =  9.90D+01  OPTGRAD =  3.00D-04
 OPTENERG=  1.00D-06  OPTSTEP =  3.00D-04  THRGRAD =  1.00D-10  COMPRESS=  1.00D-11  VARMIN  =  1.00D-07  VARMAX  =  1.00D-03
 THRDOUB =  0.00D+00  THRDIV  =  1.00D-05  THRRED  =  1.00D-07  THRPSP  =  1.00D+00  THRDC   =  1.00D-10  THRCS   =  1.00D-10
 THRNRM  =  1.00D-08  THREQ   =  0.00D+00  THRDE   =  1.00D+00  THRREF  =  1.00D-05  SPARFAC =  1.00D+00  THRDLP  =  1.00D-07
 THRDIA  =  1.00D-10  THRDLS  =  1.00D-07  THRGPS  =  0.00D+00  THRKEX  =  0.00D+00  THRDIS  =  2.00D-01  THRVAR  =  1.00D-10
 THRLOC  =  1.00D-06  THRGAP  =  1.00D-06  THRLOCT = -1.00D+00  THRGAPT = -1.00D+00  THRORB  =  1.00D-06  THRMLTP =  0.00D+00
 THRCPQCI=  1.00D-10  KEXTA   =  0.00D+00  THRCOARS=  0.00D+00  SYMTOL  =  1.00D-06  GRADTOL =  1.00D-06  THROVL  =  1.00D-08
 THRORTH =  1.00D-08  GRID    =  1.00D-06  GRIDMAX =  1.00D-03  DTMAX   =  0.00D+00  THROCCDE=  1.00D-01  THROCCDE=  1.00D-01



 THRESHOLDS:

 ZERO    =  1.00D-12  ONEINT  =  1.00D-12  TWOINT  =  1.00D-15  PREFAC  =  1.00D-14  LOCALI  =  1.00D-09  EORDER  =  1.00D-04
 ENERGY  =  0.00D+00  ETEST   =  0.00D+00  EDENS   =  0.00D+00  THRDEDEF=  1.00D-06  GRADIENT=  1.00D-02  STEP    =  1.00D-03
 ORBITAL =  1.00D-05  CIVEC   =  1.00D-05  COEFF   =  1.00D-04  PRINTCI =  5.00D-02  PUNCHCI =  9.90D+01  OPTGRAD =  3.00D-04
 OPTENERG=  1.00D-06  OPTSTEP =  3.00D-04  THRGRAD =  1.00D-10  COMPRESS=  1.00D-11  VARMIN  =  1.00D-07  VARMAX  =  1.00D-03
 THRDOUB =  0.00D+00  THRDIV  =  1.00D-05  THRRED  =  1.00D-07  THRPSP  =  1.00D+00  THRDC   =  1.00D-10  THRCS   =  1.00D-10
 THRNRM  =  1.00D-08  THREQ   =  0.00D+00  THRDE   =  1.00D+00  THRREF  =  1.00D-05  SPARFAC =  1.00D+00  THRDLP  =  1.00D-07
 THRDIA  =  1.00D-10  THRDLS  =  1.00D-07  THRGPS  =  0.00D+00  THRKEX  =  0.00D+00  THRDIS  =  2.00D-01  THRVAR  =  1.00D-10
 THRLOC  =  1.00D-06  THRGAP  =  1.00D-06  THRLOCT = -1.00D+00  THRGAPT = -1.00D+00  THRORB  =  1.00D-06  THRMLTP =  0.00D+00
 THRCPQCI=  1.00D-10  KEXTA   =  0.00D+00  THRCOARS=  0.00D+00  SYMTOL  =  1.00D-06  GRADTOL =  1.00D-06  THROVL  =  1.00D-15
 THRORTH =  1.00D-08  GRID    =  1.00D-06  GRIDMAX =  1.00D-03  DTMAX   =  0.00D+00  THROCCDE=  1.00D-01  THROCCDE=  1.00D-01


 SETTING DKROLL         =         1.00000000                                  
 SETTING DKHO           =        10.00000000                                  
 SETTING DKHP           =         4.00000000                                  

 Variable memory set to 1024000000 words,  buffer space   230000 words

 SETTING BASIS          =    USERDEF
 SETTING NE             =        85.00000000                                  
 SETTING A1             =        20.00000000                                  
 SETTING B1             =        10.00000000                                  
 SETTING B2             =        10.00000000                                  
 SETTING A2             =         4.00000000                                  

 DO I                   =         1.00000000   
 SETTING Z(1)           =         1.70000000                                  

Geometry recognized as XYZ



 Recomputing integrals since basis changed


 Using spherical harmonics



 PROGRAM * SEWARD (Integral evaluation for generally contracted gaussian basis sets)     Author: Roland Lindh, 1990

 Geometry written to block  1 of record 700


 Point group  C2v 



 ATOMIC COORDINATES

 NR  ATOM    CHARGE       X              Y              Z

   1  IR     77.00    0.000000000    0.000000000    0.000000000
   2  O       8.00    0.000000000    0.000000000    3.212534412

 Bond lengths in Bohr (Angstrom)

 1-2  3.212534412
     ( 1.700000000)

 NUCLEAR CHARGE:                   85
 NUMBER OF PRIMITIVE AOS:         541
 NUMBER OF SYMMETRY AOS:          446
 NUMBER OF CONTRACTIONS:          446   ( 185A1  + 106B1  + 106B2  +  49A2  )
 NUMBER OF CORE ORBITALS:          35   (  16A1  +   8B1  +   8B2  +   3A2  )
 NUMBER OF VALENCE ORBITALS:       10   (   5A1  +   2B1  +   2B2  +   1A2  )


 NUCLEAR REPULSION ENERGY  191.74891878

 One-electron integrals computed with SEWARD

 10nd-order Douglas-Kroll-Hess method activated. McWeeny DKH parametrization is used.

 Computing Douglas-Kroll / X2C integrals

 AO integral compression algorithm  1   Integral accuracy      1.0D-15

     4539.023 MB (compressed) written to integral file ( 38.7%)

     Node minimum: 214.958 MB, node maximum: 838.337 MB


 NUMBER OF SORTED TWO-ELECTRON INTEGRALS:  115711532.     BUFFER LENGTH:  32768
 NUMBER OF SEGMENTS:   4  SEGMENT LENGTH:   31989761      RECORD LENGTH: 524288

 Memory used in sort:      32.55 MW

 SORT1 READ  1465035727. AND WROTE    45262639. INTEGRALS IN    131 RECORDS. CPU TIME:    21.29 SEC, REAL TIME:    28.62 SEC
 SORT2 READ   494355169. AND WROTE  1273302750. INTEGRALS IN   9075 RECORDS. CPU TIME:     1.43 SEC, REAL TIME:     2.63 SEC

 Node minimum:   115641882.  Node maximum:   115920125. integrals

 OPERATOR DM      FOR CENTER  0  COORDINATES:    0.000000    0.000000    0.000000

 EXTRA SYMMETRY OF AOS IN SYMMETRY 1:   1 1 1 1 1 1 1 1 1 1   1 1 1 1 1 1 1 1 1 1   1 1 1 1 1 1 1 1 1 1   1 1 1 1 1 1 1 1 1 1
                                        1 1 1 1 1 1 1 1 1 1   1 1 1 1 1 1 1 1 1 1   1 1 1 1 1 1 1 1 1 1   1 1 1 1 1 1 1 1 1 1
                                        1 1 1 1 1 1 1 1 1 1   1 1 1 1 1 1 1 1 1 1   1 1 1 1 1 1 1 1 1 1   1 1 1 1 1 1 1 1 1 1
                                        1 1 1 1 1 1 1 1 1 1   1 1 1 1 1 1 1 1 1 1   1 1 1 1 2 1 1 2 1 1   2 1 1 1 1 1 1 1 1 1
                                        1 1 1 1 1 1 1 1 1 1   1 1 1 1 1 1 1 1 1 1   1 1 1 1 1
 EXTRA SYMMETRY OF AOS IN SYMMETRY 2:   1 1 1 1 1 1 1 1 1 1   1 1 1 1 1 1 1 1 1 1   1 1 1 1 1 1 1 1 1 1   1 1 1 1 1 1 1 1 1 1
                                        1 1 1 1 1 1 1 1 1 1   1 1 1 1 1 2 1 2 1 2   1 2 1 2 1 2 1 2 1 2   1 2 1 2 1 2 1 2 1 2
                                        1 2 1 2 1 2 1 2 1 2   1 1 1 1 1 1 1 1 1 1   1 1 1 2 1 2
 EXTRA SYMMETRY OF AOS IN SYMMETRY 3:   1 1 1 1 1 1 1 1 1 1   1 1 1 1 1 1 1 1 1 1   1 1 1 1 1 1 1 1 1 1   1 1 1 1 1 1 1 1 1 1
                                        1 1 1 1 1 1 1 1 1 1   1 1 1 1 1 2 1 2 1 2   1 2 1 2 1 2 1 2 1 2   1 2 1 2 1 2 1 2 1 2
                                        1 2 1 2 1 2 1 2 1 2   1 1 1 1 1 1 1 1 1 1   1 1 1 2 1 2
 EXTRA SYMMETRY OF AOS IN SYMMETRY 4:   1 1 1 1 1 1 1 1 1 1   1 1 1 1 1 1 1 1 1 1   1 1 1 1 1 1 1 1 1 1   1 1 1 1 1 1 1 1 2 1
                                        2 1 2 1 1 1 1 1 1

 Eigenvalues of metric

         1 0.164E-06 0.352E-06 0.765E-06 0.805E-06 0.141E-05 0.480E-05 0.508E-05 0.115E-04
         2 0.172E-06 0.801E-06 0.511E-05 0.116E-04 0.264E-04 0.516E-04 0.547E-04 0.555E-04
         3 0.172E-06 0.801E-06 0.511E-05 0.116E-04 0.264E-04 0.516E-04 0.547E-04 0.555E-04
         4 0.805E-06 0.267E-04 0.542E-04 0.166E-03 0.628E-03 0.978E-03 0.214E-02 0.552E-02


 **********************************************************************************************************************************
 DATASETS  * FILE   NREC   LENGTH (MB)   RECORD NAMES
              1      22       23.93       500      610      700      900      950      970     1000      129      960     1700   
                                          VAR    BASINP    GEOM    SYMINP    ZMAT    AOBASIS   BASIS     P2S    ABASIS    OPER   
                                         1101     1401     1411     1412     1650     1100     1400     1410     1200     1210   
                                          SR      EKINR    POTR     PVPR    MOLCAS      S      EKIN      POT      H0       H01  
                                         1080     1600   
                                         AOSYM     SMH  

 PROGRAMS   *        TOTAL       INT
 CPU TIMES  *       173.16    172.73
 REAL TIME  *       184.08 SEC
 DISK USED  *        10.58 GB      
 GA USED    *         0.00 MB       (max)       0.00 MB       (current)
 **********************************************************************************************************************************


 PROGRAM * RHF-SCF (CLOSED SHELL)       Authors: W. Meyer, H.-J. Werner


 NUMBER OF ELECTRONS:      41+   41-    SPACE SYMMETRY=1    SPIN SYMMETRY: Singlet 
 CONVERGENCE THRESHOLDS:    1.00E-05 (Density)    1.70E-07 (Energy)
 MAX. NUMBER OF ITERATIONS:       60
 INTERPOLATION TYPE:            DIIS
 INTERPOLATION STEPS:              2 (START)      1 (STEP)
 LEVEL SHIFTS:                  0.00 (CLOSED)  0.00 (OPEN) 

 Number of closed-shell orbitals:   41 (  20   9   9   3 )


 Orbital guess generated from atomic densities. Full valence occupancy:   21  10  10   4

 Molecular orbital dump at record        2100.2

 ITERATION    DDIFF          GRAD             ENERGY        2-EL.EN.            DIPOLE MOMENTS         DIIS   ORB.
    1      0.000D+00      0.000D+00    -17888.58982984  12956.109394    0.00000    0.00000  -11.05713    0    start
    2      0.000D+00      0.334D-01    -17888.61820107  14022.239079    0.00000    0.00000   15.95507    1    diag
    3      0.197D+01      0.659D-01    -17898.07123674  13701.469716    0.00000    0.00000    5.90266    2    diag
    4      0.288D+00      0.229D-01    -17899.47483089  13576.445691    0.00000    0.00000    2.90463    3    diag
    5      0.391D-01      0.802D-02    -17899.64416340  13529.511422    0.00000    0.00000    1.90114    4    diag
    6      0.683D-02      0.296D-02    -17899.67331764  13500.924655    0.00000    0.00000    0.76680    5    diag
    7      0.189D-02      0.118D-02    -17899.67789511  13504.690212    0.00000    0.00000    1.09737    6    diag
    8      0.492D-03      0.232D-03    -17899.67807119  13502.004490    0.00000    0.00000    0.96246    7    diag
    9      0.210D-03      0.266D-03    -17899.67830552  13502.820246    0.00000    0.00000    0.99086    8    diag
   10      0.178D-03      0.104D-03    -17899.67835293  13503.345222    0.00000    0.00000    1.01200    9    orth
   11      0.111D-03      0.898D-05    -17899.67835375  13503.325328    0.00000    0.00000    1.01027    9    diag
   12      0.178D-04      0.263D-05    -17899.67835385  13503.325861    0.00000    0.00000    1.01046    9    diag
   13      0.561D-05      0.101D-05    -17899.67835387  13503.322389    0.00000    0.00000    1.01028    0    orth

 Final occupancy:  20   9   9   3

 !RHF STATE 1.1 Energy               -17899.6783538664    
 Nuclear energy                       191.74891878
 One-electron energy               -24843.08846732
 Two-electron energy                 6751.66119467
 Virial quotient                       -0.67995253
 !RHF STATE 1.1 Dipole moment           0.00000000     0.00000000     1.01028016
 Dipole moment /Debye                   0.00000000     0.00000000     2.56770785

 ELECTRON ORBITALS
 =================


   Orb  Occ    Energy  Couls-En    Coefficients

                                   1 1s      1 1s      1 1s      1 1s      1 1s      1 1s      1 1s      1 1s      1 1s      1 1s   
                                   1 1s      1 1s      1 1s      1 1s      1 1s      1 1s      1 1s      1 1s      1 1s      1 1s   
                                   1 1s      1 1s      1 1s      1 1s      1 1s      1 1s      1 1s      1 1s      1 1s      1 1s   
                                   1 1s      1 1s      1 1s      1 1s      1 1s      1 1s      1 1s      1 2pz     1 2pz     1 2pz  
                                   1 2pz     1 2pz     1 2pz     1 2pz     1 2pz     1 2pz     1 2pz     1 2pz     1 2pz     1 2pz  
                                   1 2pz     1 2pz     1 2pz     1 2pz     1 2pz     1 2pz     1 2pz     1 2pz     1 2pz     1 2pz  
                                   1 2pz     1 2pz     1 2pz     1 2pz     1 2pz     1 2pz     1 2pz     1 2pz     1 2pz     1 3d0  
                                   1 3d2+    1 3d0     1 3d2+    1 3d0     1 3d2+    1 3d0     1 3d2+    1 3d0     1 3d2+    1 3d0  
                                   1 3d2+    1 3d0     1 3d2+    1 3d0     1 3d2+    1 3d0     1 3d2+    1 3d0     1 3d2+    1 3d0  
                                   1 3d2+    1 3d0     1 3d2+    1 3d0     1 3d2+    1 3d0     1 3d2+    1 3d0     1 3d2+    1 3d0  
                                   1 3d2+    1 3d0     1 3d2+    1 3d0     1 3d2+    1 3d0     1 3d2+    1 3d0     1 3d2+    1 3d0  
                                   1 3d2+    1 3d0     1 3d2+    1 4f0     1 4f2+    1 4f0     1 4f2+    1 4f0     1 4f2+    1 4f0  
                                   1 4f2+    1 4f0     1 4f2+    1 4f0     1 4f2+    1 4f0     1 4f2+    1 4f0     1 4f2+    1 4f0  
                                   1 4f2+    1 4f0     1 4f2+    1 4f0     1 4f2+    1 4f0     1 4f2+    1 4f0     1 4f2+    1 4f0  
                                   1 4f2+    1 4f0     1 4f2+    1 5g0     1 5g4+    1 5g2+    1 5g0     1 5g4+    1 5g2+    1 5g0  
                                   1 5g4+    1 5g2+    2 1s      2 1s      2 1s      2 1s      2 1s      2 1s      2 1s      2 1s   
                                   2 1s      2 1s      2 1s      2 1s      2 1s      2 2pz     2 2pz     2 2pz     2 2pz     2 2pz  
                                   2 2pz     2 2pz     2 2pz     2 3d0     2 3d2+    2 3d0     2 3d2+    2 3d0     2 3d2+    2 3d0  
                                   2 3d2+    2 4f0     2 4f2+    2 4f0     2 4f2+ 

   1.1   2 -2814.3516-6061.3719  0.000014  0.000038  0.000104  0.000238  0.000499  0.000967  0.001786  0.003190  0.005597  0.009730
                                 0.016892  0.029390  0.051246  0.088886  0.149607  0.231171  0.289996  0.001232  0.238663  0.091364
                                 0.007976  0.001180 -0.001213  0.002509 -0.003703  0.002248 -0.000668  0.000607 -0.001084  0.000866
                                -0.000233  0.000202 -0.000110  0.000008 -0.000003  0.000000 -0.000000 -0.000000 -0.000000 -0.000000
                                -0.000000 -0.000000 -0.000000 -0.000000 -0.000000 -0.000000 -0.000000 -0.000000 -0.000000 -0.000000
                                 0.000000 -0.000000  0.000000  0.000000 -0.000000  0.000000 -0.000000  0.000000 -0.000002  0.000004
                                -0.000004  0.000004 -0.000001 -0.000001  0.000003 -0.000003  0.000002 -0.000001  0.000000 -0.000000
                                 0.000000 -0.000000 -0.000000 -0.000000  0.000000  0.000000  0.000000 -0.000000  0.000000 -0.000000
                                -0.000000 -0.000000  0.000000  0.000000 -0.000000 -0.000000  0.000000  0.000000 -0.000000 -0.000001
                                -0.000000  0.000003  0.000000 -0.000013 -0.000000  0.000018  0.000000 -0.000016 -0.000000  0.000011
                                 0.000000 -0.000005 -0.000000  0.000009  0.000000 -0.000007 -0.000000  0.000001  0.000000  0.000000
                                -0.000000 -0.000000  0.000000 -0.000000 -0.000000 -0.000000  0.000000 -0.000000  0.000000 -0.000000
                                -0.000000 -0.000000  0.000000  0.000000 -0.000000 -0.000000  0.000000  0.000000 -0.000000 -0.000001
                                 0.000000  0.000002 -0.000000 -0.000003  0.000000  0.000003  0.000000 -0.000002 -0.000000  0.000001
                                 0.000000 -0.000000 -0.000000 -0.000000  0.000000 -0.000000  0.000000 -0.000000 -0.000000 -0.000000
                                 0.000000  0.000000  0.000000 -0.000000  0.000000 -0.000000  0.000000  0.000001  0.000001  0.000000
                                -0.000000 -0.000001 -0.000001 -0.000001  0.000001 -0.000000 -0.000000  0.000000 -0.000000  0.000001
                                 0.000000  0.000000 -0.000000  0.000000  0.000000  0.000000 -0.000000 -0.000000 -0.000000 -0.000000
                                 0.000000 -0.000000 -0.000000 -0.000000  0.000000

   2.1   2  -498.6496-1327.3867 -0.000005 -0.000015 -0.000040 -0.000091 -0.000192 -0.000372 -0.000688 -0.001231 -0.002168 -0.003790
                                -0.006638 -0.011706 -0.020849 -0.037387 -0.066458 -0.112361 -0.162873 -0.000165 -0.151906  0.044805
                                 0.409151  0.493672  0.184950  0.020354 -0.009374  0.007318 -0.002843  0.002644 -0.005135  0.004176
                                -0.001158  0.001026 -0.000562  0.000040 -0.000018  0.000002 -0.000001 -0.000000 -0.000000 -0.000000
                                -0.000000 -0.000000 -0.000000 -0.000000 -0.000000 -0.000000 -0.000000 -0.000001 -0.000002 -0.000005
                                -0.000000 -0.000010 -0.000014 -0.000013 -0.000006 -0.000001 -0.000001  0.000001 -0.000010  0.000017
                                -0.000021  0.000018 -0.000006 -0.000004  0.000016 -0.000016  0.000011 -0.000006  0.000000 -0.000000
                                -0.000000 -0.000000  0.000000 -0.000000 -0.000000 -0.000000  0.000000 -0.000000 -0.000000 -0.000001
                                -0.000000 -0.000006 -0.000000 -0.000003  0.000000 -0.000002 -0.000000 -0.000000  0.000000 -0.000003
                                -0.000000  0.000012  0.000000 -0.000059 -0.000000  0.000084  0.000000 -0.000078 -0.000000  0.000053
                                 0.000000 -0.000024 -0.000000  0.000044  0.000000 -0.000034 -0.000000  0.000005  0.000000  0.000001
                                 0.000000 -0.000001 -0.000000 -0.000000  0.000000 -0.000000  0.000000 -0.000000 -0.000000  0.000000
                                -0.000000 -0.000001  0.000000  0.000000  0.000000 -0.000001  0.000000  0.000001 -0.000000 -0.000005
                                 0.000000  0.000011 -0.000000 -0.000015  0.000000  0.000016 -0.000000 -0.000012  0.000000  0.000006
                                -0.000000 -0.000001  0.000000 -0.000000  0.000000 -0.000000  0.000001  0.000000  0.000000 -0.000001
                                -0.000000 -0.000000  0.000000 -0.000000  0.000000 -0.000000  0.000000  0.000005  0.000006  0.000002
                                -0.000002 -0.000006 -0.000007 -0.000004  0.000006 -0.000000 -0.000000  0.000000 -0.000001  0.000003
                                 0.000000  0.000000 -0.000002  0.000000 -0.000000  0.000001 -0.000000 -0.000000  0.000000 -0.000001
                                -0.000000 -0.000000 -0.000000 -0.000001  0.000000

   3.1   2  -434.6883-1211.2697 -0.000000 -0.000000 -0.000000 -0.000000 -0.000000 -0.000000 -0.000000 -0.000000 -0.000000 -0.000000
                                -0.000000 -0.000001 -0.000001 -0.000002 -0.000003 -0.000005 -0.000008  0.000000 -0.000007  0.000003
                                 0.000023  0.000023  0.000004 -0.000004  0.000002 -0.000001  0.000001 -0.000000  0.000002 -0.000002
                                 0.000001 -0.000001  0.000001  0.000000  0.000000 -0.000000  0.000000  0.000003  0.000008  0.000024
                                 0.000062  0.000153  0.000367  0.000873  0.002085  0.005048  0.012348  0.030033  0.070112  0.147678
                                -0.000315  0.257469  0.326976  0.249421  0.089030  0.009865  0.000451 -0.000271  0.000443 -0.000613
                                 0.000431 -0.000293  0.000080 -0.000021  0.000016 -0.000005  0.000001 -0.000000  0.000000 -0.000000
                                 0.000000 -0.000000 -0.000000 -0.000000 -0.000000 -0.000000  0.000000 -0.000001 -0.000000 -0.000002
                                 0.000000 -0.000003 -0.000000 -0.000003  0.000000 -0.000001 -0.000000 -0.000001 -0.000000 -0.000000
                                -0.000000 -0.000001  0.000000  0.000003  0.000000 -0.000004 -0.000000  0.000003  0.000000 -0.000002
                                -0.000000  0.000001 -0.000000 -0.000001  0.000000  0.000001 -0.000000 -0.000000  0.000000  0.000000
                                -0.000000 -0.000000  0.000000  0.000000  0.000000 -0.000001 -0.000000 -0.000001 -0.000000  0.000001
                                 0.000000 -0.000003 -0.000000 -0.000001 -0.000000 -0.000001 -0.000000  0.000001  0.000000 -0.000001
                                 0.000000  0.000002  0.000000 -0.000001  0.000000  0.000001 -0.000000 -0.000000  0.000000  0.000000
                                -0.000000  0.000000  0.000000  0.000000 -0.000000 -0.000000 -0.000000  0.000000 -0.000000  0.000000
                                -0.000000  0.000000  0.000000 -0.000000  0.000000 -0.000000  0.000000  0.000000  0.000000  0.000000
                                 0.000000 -0.000000 -0.000000 -0.000000  0.000000  0.000000  0.000000 -0.000000  0.000000  0.000000
                                -0.000000  0.000000 -0.000000 -0.000000  0.000000 -0.000000 -0.000000  0.000000 -0.000000 -0.000000
                                -0.000000  0.000000 -0.000000  0.000000  0.000000

   4.1   2  -119.9353 -472.0967  0.000003  0.000007  0.000019  0.000044  0.000092  0.000177  0.000328  0.000588  0.001036  0.001813
                                 0.003180  0.005620  0.010045  0.018112  0.032505  0.055829  0.083248 -0.000086  0.079917 -0.039622
                                -0.341930 -0.547916 -0.085058  0.718972  0.018527  0.538101  0.080481  0.008707 -0.013309  0.011827
                                -0.003821  0.003452 -0.001958  0.000136 -0.000065  0.000007 -0.000002  0.000000  0.000000  0.000000
                                 0.000000  0.000000  0.000000  0.000000  0.000000  0.000001  0.000002  0.000005  0.000012  0.000025
                                 0.000001  0.000045  0.000061  0.000031 -0.000044 -0.000159 -0.000147 -0.000012 -0.000096  0.000141
                                -0.000151  0.000123 -0.000040 -0.000008  0.000058 -0.000062  0.000036 -0.000022  0.000001 -0.000000
                                 0.000000 -0.000000  0.000000 -0.000000 -0.000000 -0.000000 -0.000000 -0.000001 -0.000000 -0.000003
                                -0.000000 -0.000005 -0.000000 -0.000019 -0.000000 -0.000034 -0.000000 -0.000094 -0.000000 -0.000070
                                -0.000000  0.000055 -0.000000 -0.000248  0.000000  0.000329 -0.000000 -0.000294  0.000000  0.000193
                                -0.000000 -0.000091  0.000000  0.000164 -0.000000 -0.000126  0.000000  0.000015 -0.000000  0.000004
                                 0.000000 -0.000005 -0.000000 -0.000000  0.000000  0.000000  0.000000  0.000001 -0.000000  0.000000
                                 0.000000 -0.000007  0.000000 -0.000001  0.000000  0.000002  0.000000  0.000000  0.000000 -0.000013
                                -0.000000  0.000030  0.000000 -0.000050 -0.000000  0.000054  0.000000 -0.000043 -0.000000  0.000021
                                 0.000000 -0.000003 -0.000000 -0.000008 -0.000013 -0.000000  0.000010  0.000011 -0.000000 -0.000006
                                -0.000004  0.000000  0.000000 -0.000000  0.000000 -0.000000  0.000001  0.000015  0.000019  0.000008
                                -0.000008 -0.000016 -0.000022 -0.000010  0.000023 -0.000000 -0.000001  0.000001 -0.000005  0.000009
                                 0.000000  0.000000 -0.000006  0.000000 -0.000000  0.000006 -0.000000 -0.000000  0.000000 -0.000003
                                 0.000000 -0.000001  0.000000 -0.000003 -0.000000

   5.1   2  -100.8372 -435.2682  0.000000  0.000000  0.000000  0.000000  0.000000  0.000000  0.000000  0.000000  0.000000  0.000001
                                 0.000001  0.000002  0.000004  0.000007  0.000012  0.000020  0.000031 -0.000001  0.000030 -0.000015
                                -0.000130 -0.000216 -0.000002  0.000364 -0.000078  0.000186 -0.000011  0.000003  0.000000 -0.000008
                                 0.000018 -0.000046  0.000040 -0.000014  0.000002 -0.000006  0.000001 -0.000001 -0.000004 -0.000012
                                -0.000032 -0.000079 -0.000189 -0.000450 -0.001078 -0.002625 -0.006472 -0.015962 -0.038052 -0.083092
                                 0.000810 -0.151994 -0.196312 -0.091911  0.227276  0.497352  0.337385  0.075632  0.016681 -0.015196
                                 0.013985 -0.010046  0.002998 -0.001083  0.000779 -0.000294  0.000022 -0.000008  0.000001 -0.000000
                                 0.000000 -0.000000 -0.000000 -0.000000 -0.000000 -0.000001  0.000000 -0.000003  0.000000 -0.000009
                                 0.000000 -0.000023  0.000000 -0.000046  0.000000 -0.000070  0.000000 -0.000111  0.000000 -0.000067
                                -0.000000 -0.000007  0.000000  0.000015 -0.000000 -0.000038  0.000000  0.000050 -0.000000 -0.000044
                                 0.000000  0.000022 -0.000000 -0.000052  0.000000  0.000045 -0.000000 -0.000011  0.000000  0.000003
                                 0.000000 -0.000001  0.000000 -0.000000 -0.000000  0.000001  0.000000 -0.000001 -0.000000 -0.000013
                                 0.000000 -0.000059 -0.000000 -0.000026  0.000000  0.000013 -0.000000 -0.000014  0.000000  0.000005
                                -0.000000 -0.000023  0.000000  0.000014 -0.000000 -0.000016  0.000000  0.000009 -0.000000 -0.000008
                                 0.000000  0.000002 -0.000000 -0.000005  0.000000  0.000000  0.000007 -0.000000 -0.000000 -0.000002
                                 0.000000  0.000000 -0.000000 -0.000000  0.000000 -0.000000  0.000000  0.000004  0.000005  0.000003
                                -0.000001 -0.000000 -0.000006 -0.000003  0.000009 -0.000000 -0.000000 -0.000000 -0.000002 -0.000004
                                 0.000000  0.000000 -0.000003 -0.000000 -0.000000  0.000000 -0.000000  0.000000  0.000000  0.000002
                                 0.000000  0.000000  0.000000  0.000000  0.000000

   6.1   2   -79.0376 -400.3741 -0.000000 -0.000000  0.000000 -0.000000  0.000000 -0.000000  0.000000 -0.000000  0.000000  0.000000
                                 0.000000  0.000000 -0.000000  0.000000 -0.000000  0.000000  0.000000 -0.000000  0.000000 -0.000000
                                 0.000000 -0.000000  0.000000 -0.000000  0.000000 -0.000000  0.000000 -0.000000  0.000000 -0.000000
                                 0.000000 -0.000000  0.000000  0.000000  0.000000  0.000000  0.000000  0.000000  0.000000 -0.000000
                                -0.000000  0.000000 -0.000000  0.000000 -0.000000  0.000000 -0.000000  0.000000 -0.000000  0.000000
                                -0.000000  0.000000 -0.000000  0.000000 -0.000000  0.000000 -0.000000 -0.000000  0.000000 -0.000000
                                 0.000000 -0.000000  0.000000 -0.000000  0.000000 -0.000000  0.000000  0.000000 -0.000000  0.000000
                                 0.000023  0.000000  0.000139  0.000000  0.000775  0.000000  0.003570  0.000000  0.013715  0.000000
                                 0.042431  0.000000  0.107410  0.000000  0.212913  0.000000  0.317020  0.000000  0.314215  0.000000
                                 0.165360  0.000000  0.039819 -0.000000 -0.003043  0.000000  0.006406 -0.000000 -0.001677  0.000000
                                 0.001202 -0.000000 -0.000150  0.000000  0.000210 -0.000000 -0.000130  0.000000  0.000012  0.000000
                                -0.000003  0.000000  0.000001 -0.000000 -0.000000 -0.000000 -0.000001  0.000000 -0.000002  0.000000
                                -0.000008 -0.000000 -0.000017 -0.000000 -0.000017  0.000000 -0.000008 -0.000000  0.000001  0.000000
                                 0.000000 -0.000000  0.000001  0.000000 -0.000000 -0.000000  0.000001  0.000000 -0.000000 -0.000000
                                 0.000000  0.000000 -0.000000  0.000000 -0.000000 -0.000002  0.000000  0.000000  0.000005 -0.000000
                                -0.000000 -0.000002  0.000000 -0.000000  0.000000 -0.000000  0.000000  0.000000  0.000000  0.000000
                                -0.000000 -0.000000 -0.000000 -0.000000 -0.000000 -0.000000 -0.000000  0.000000 -0.000000  0.000000
                                 0.000000  0.000000  0.000000 -0.000000 -0.000000  0.000000 -0.000000  0.000000  0.000000 -0.000000
                                 0.000000 -0.000000  0.000000  0.000000 -0.000000

   7.1   2   -79.0245 -400.3680  0.000000  0.000000  0.000000  0.000000  0.000000  0.000000  0.000000  0.000000  0.000000  0.000000
                                 0.000001  0.000001  0.000002  0.000004  0.000008  0.000013  0.000021 -0.000001  0.000021 -0.000012
                                -0.000092 -0.000158  0.000012  0.000404 -0.000175  0.000115 -0.000058  0.000032 -0.000150  0.000145
                                -0.000076  0.000093 -0.000051 -0.000007 -0.000014 -0.000004  0.000001 -0.000000 -0.000000 -0.000000
                                -0.000000 -0.000000 -0.000000 -0.000000 -0.000000 -0.000001 -0.000002 -0.000005 -0.000011 -0.000025
                                 0.000002 -0.000047 -0.000058 -0.000027  0.000092  0.000157  0.000056  0.000035 -0.000091  0.000138
                                -0.000150  0.000126 -0.000048  0.000006  0.000017 -0.000021 -0.000008 -0.000009  0.000000  0.000023
                                -0.000000  0.000139 -0.000000  0.000775 -0.000000  0.003570 -0.000000  0.013715 -0.000000  0.042432
                                -0.000000  0.107413 -0.000000  0.212916 -0.000000  0.317037 -0.000000  0.314213 -0.000000  0.165340
                                -0.000000  0.039837 -0.000000 -0.003152  0.000000  0.006536 -0.000000 -0.001789  0.000000  0.001275
                                -0.000000 -0.000178  0.000000  0.000260 -0.000000 -0.000163  0.000000  0.000008 -0.000000 -0.000009
                                 0.000000 -0.000001 -0.000000 -0.000000 -0.000000 -0.000001  0.000000 -0.000004 -0.000000 -0.000011
                                 0.000000 -0.000034 -0.000000 -0.000032  0.000000 -0.000011 -0.000000 -0.000002  0.000000 -0.000000
                                -0.000000  0.000006  0.000000 -0.000013 -0.000000  0.000019  0.000000 -0.000014 -0.000000  0.000003
                                 0.000000 -0.000003 -0.000000 -0.000028  0.000016 -0.000000  0.000037 -0.000015  0.000000 -0.000017
                                 0.000006 -0.000000 -0.000000  0.000000 -0.000000  0.000000 -0.000000 -0.000000  0.000001  0.000001
                                -0.000002  0.000018 -0.000000  0.000000  0.000013 -0.000000 -0.000000  0.000002 -0.000006 -0.000010
                                 0.000000  0.000000 -0.000003  0.000000 -0.000000  0.000004  0.000000 -0.000000 -0.000000  0.000001
                                 0.000000 -0.000001  0.000000 -0.000001 -0.000000

   8.1   2   -27.7770 -206.0843 -0.000001 -0.000003 -0.000009 -0.000022 -0.000045 -0.000088 -0.000163 -0.000292 -0.000514 -0.000900
                                -0.001579 -0.002793 -0.004995 -0.009023 -0.016218 -0.028005 -0.041784 -0.000421 -0.040147  0.021872
                                 0.196052  0.334867  0.051152 -0.765187 -0.019128 -0.738205  0.498126  0.939850 -0.087661  0.274613
                                -0.043148  0.045022 -0.024356  0.001714 -0.000948  0.000073 -0.000030 -0.000000 -0.000000 -0.000000
                                -0.000000 -0.000000 -0.000000 -0.000000 -0.000001 -0.000002 -0.000004 -0.000011 -0.000026 -0.000056
                                -0.000002 -0.000102 -0.000139 -0.000049  0.000211  0.000553  0.000326 -0.000358 -0.001046  0.000243
                                -0.000828  0.000412 -0.000140 -0.000376  0.001006 -0.000933  0.000369 -0.000320  0.000010  0.000000
                                -0.000000  0.000000 -0.000000  0.000000  0.000000  0.000001 -0.000000  0.000005  0.000000  0.000016
                                -0.000000  0.000034  0.000000  0.000085  0.000000  0.000100  0.000000  0.000175  0.000000 -0.000049
                                -0.000000  0.000118  0.000000 -0.001479 -0.000000  0.001698  0.000000 -0.002531 -0.000000  0.001573
                                 0.000000 -0.000882 -0.000000  0.001729  0.000000 -0.001338 -0.000000  0.000113  0.000000  0.000020
                                -0.000000 -0.000072  0.000000 -0.000000 -0.000000 -0.000000 -0.000000 -0.000002 -0.000000 -0.000005
                                -0.000000 -0.000009 -0.000000 -0.000006 -0.000000 -0.000029 -0.000000 -0.000059  0.000000 -0.000158
                                -0.000000  0.000392 -0.000000 -0.000613 -0.000000  0.000682  0.000000 -0.000543 -0.000000  0.000243
                                 0.000000 -0.000043 -0.000000 -0.000281 -0.000542 -0.000000  0.000388  0.000661  0.000000 -0.000174
                                -0.000208 -0.000000  0.000000 -0.000000  0.000000 -0.000000  0.000006  0.000109  0.000172  0.000084
                                -0.000098 -0.000082 -0.000184 -0.000073  0.000376 -0.000002 -0.000006  0.000029 -0.000076  0.000046
                                 0.000005  0.000001 -0.000100  0.000002  0.000000  0.000087 -0.000000 -0.000000 -0.000000 -0.000019
                                 0.000000 -0.000006 -0.000000 -0.000042  0.000000

   9.1   2   -21.7962  -77.7191 -0.000000 -0.000000 -0.000000 -0.000000 -0.000000 -0.000000 -0.000000 -0.000000 -0.000000 -0.000000
                                -0.000000 -0.000000  0.000000 -0.000000  0.000000 -0.000003  0.000017 -0.000038  0.000037 -0.000037
                                 0.000073 -0.000157  0.000481 -0.002579  0.005956 -0.005543  0.004071 -0.009186  0.033417 -0.036398
                                 0.024759 -0.044349  0.033299 -0.008893 -0.010093 -0.000529  0.000049  0.000000  0.000000  0.000000
                                 0.000000  0.000000  0.000000  0.000000 -0.000000  0.000000 -0.000000  0.000000 -0.000001  0.000010
                                -0.000035  0.000039 -0.000028  0.000046 -0.000088  0.000179 -0.000442  0.001409 -0.012659  0.022833
                                -0.033164  0.033087 -0.015342  0.011519 -0.015820  0.010991 -0.012504 -0.003398  0.000085  0.000000
                                -0.000000 -0.000000  0.000000  0.000000  0.000000 -0.000000 -0.000000  0.000000  0.000000 -0.000000
                                -0.000000  0.000002  0.000000 -0.000004 -0.000000  0.000013  0.000000 -0.000028 -0.000000  0.000080
                                 0.000000 -0.000411 -0.000000  0.001980  0.000000 -0.002857 -0.000000  0.002794  0.000000 -0.002048
                                -0.000000  0.001679  0.000000 -0.005274 -0.000000  0.004759  0.000000 -0.001355 -0.000000 -0.005240
                                 0.000000 -0.000040  0.000000  0.000000 -0.000000 -0.000000 -0.000000  0.000001 -0.000000 -0.000002
                                -0.000000  0.000005 -0.000000 -0.000015 -0.000000  0.000032 -0.000000 -0.000077 -0.000000  0.000224
                                 0.000000 -0.000178 -0.000000 -0.000245  0.000000  0.000169  0.000000  0.000341 -0.000000 -0.000158
                                 0.000000 -0.001613  0.000000  0.000048  0.000000 -0.000000 -0.000267 -0.000000  0.000000  0.000422
                                 0.000000 -0.000000  0.000743  0.004248  0.020684  0.080085  0.229179  0.401145  0.316892 -0.017614
                                 0.049319  0.019953  0.039745  0.023480  0.006192  0.000002 -0.000509 -0.000800  0.001200 -0.010012
                                -0.000342 -0.000052 -0.001715  0.000371 -0.000000  0.000116  0.000000 -0.000212  0.000000  0.002598
                                -0.000000  0.000161 -0.000000 -0.000224  0.000000

  10.1   2   -21.3701 -188.8299 -0.000000 -0.000000 -0.000000 -0.000000 -0.000000 -0.000000 -0.000000 -0.000000 -0.000001 -0.000001
                                -0.000003 -0.000004 -0.000008 -0.000014 -0.000026 -0.000045 -0.000067 -0.000000 -0.000064  0.000035
                                 0.000318  0.000548  0.000071 -0.001414  0.000126 -0.001293  0.001295  0.001355 -0.000686  0.000795
                                -0.000292  0.000154 -0.000055 -0.000111 -0.000038 -0.000038  0.000007  0.000001  0.000002  0.000006
                                 0.000016  0.000039  0.000093  0.000222  0.000532  0.001297  0.003204  0.007925  0.019000  0.041783
                                -0.000295  0.077281  0.100679  0.035819 -0.175945 -0.409597 -0.201624  0.354762  0.581904 -0.006138
                                 0.298657 -0.024058  0.045520 -0.002123  0.002993 -0.000997  0.000032 -0.000055  0.000001  0.000000
                                 0.000000  0.000000  0.000000  0.000000 -0.000000  0.000002  0.000000  0.000008 -0.000000  0.000025
                                -0.000000  0.000063 -0.000000  0.000127 -0.000000  0.000182 -0.000000  0.000171 -0.000000 -0.000069
                                -0.000000 -0.000391 -0.000000  0.000003  0.000000 -0.000652 -0.000000 -0.000045  0.000000 -0.000221
                                -0.000000 -0.000001  0.000000 -0.000048 -0.000000  0.000040  0.000000 -0.000083 -0.000000 -0.000010
                                 0.000000 -0.000007 -0.000000 -0.000000 -0.000000 -0.000002  0.000000 -0.000006  0.000000 -0.000022
                                 0.000000 -0.000023  0.000000 -0.000094  0.000000 -0.000197 -0.000000 -0.000580 -0.000000 -0.000324
                                -0.000000  0.000249  0.000000 -0.000075 -0.000000  0.000119  0.000000 -0.000022  0.000000 -0.000010
                                -0.000000  0.000001  0.000000 -0.000137  0.000002  0.000000  0.000209 -0.000002 -0.000000 -0.000104
                                 0.000001  0.000000 -0.000000 -0.000000  0.000000 -0.000000  0.000001  0.000031  0.000051 -0.000007
                                -0.000025  0.000080 -0.000053 -0.000021  0.000083 -0.000002 -0.000002  0.000028 -0.000008 -0.000064
                                 0.000005  0.000001 -0.000020 -0.000007  0.000000  0.000010  0.000000 -0.000000 -0.000000  0.000019
                                -0.000000  0.000002 -0.000000 -0.000000  0.000000

  11.1   2   -13.2535 -167.8404 -0.000000 -0.000000 -0.000000 -0.000000  0.000000 -0.000000  0.000000 -0.000000 -0.000000 -0.000000
                                -0.000000 -0.000000 -0.000000 -0.000000 -0.000000 -0.000000 -0.000000  0.000000 -0.000000  0.000000
                                 0.000000  0.000000 -0.000000  0.000000 -0.000000  0.000000 -0.000000  0.000000 -0.000000  0.000000
                                -0.000000 -0.000000  0.000000 -0.000000 -0.000000  0.000000 -0.000000 -0.000000  0.000000 -0.000000
                                 0.000000 -0.000000  0.000000 -0.000000 -0.000000 -0.000000 -0.000000 -0.000000 -0.000000 -0.000000
                                 0.000000 -0.000000  0.000000 -0.000000  0.000000 -0.000000  0.000000 -0.000000  0.000000 -0.000000
                                 0.000000 -0.000000  0.000000 -0.000000  0.000000 -0.000000 -0.000000 -0.000000 -0.000000 -0.000000
                                -0.000012 -0.000000 -0.000071 -0.000000 -0.000397 -0.000000 -0.001832 -0.000000 -0.007093 -0.000000
                                -0.022137 -0.000000 -0.057080 -0.000000 -0.113778 -0.000000 -0.165002 -0.000000 -0.123839  0.000000
                                 0.109279  0.000000  0.364766  0.000000  0.029016 -0.000000  0.382284  0.000000  0.029117 -0.000000
                                 0.196304  0.000000  0.044888 -0.000000 -0.006905  0.000000  0.006278 -0.000000 -0.000234 -0.000000
                                 0.000076 -0.000000 -0.000018  0.000000 -0.000000 -0.000000 -0.000001 -0.000000 -0.000005 -0.000000
                                -0.000017 -0.000000 -0.000051 -0.000000 -0.000132 -0.000000 -0.000230 -0.000000 -0.000192  0.000000
                                 0.000008 -0.000000 -0.000162  0.000000  0.000018 -0.000000 -0.000095 -0.000000  0.000038 -0.000000
                                -0.000024 -0.000000  0.000001  0.000000  0.000000 -0.000262 -0.000000 -0.000000  0.000293  0.000000
                                 0.000000 -0.000176  0.000000  0.000000  0.000000 -0.000000  0.000000  0.000000 -0.000000 -0.000000
                                 0.000000  0.000000  0.000000 -0.000000  0.000000  0.000000  0.000000  0.000000 -0.000000 -0.000000
                                -0.000000 -0.000000 -0.000000 -0.000000  0.000001  0.000000  0.000014 -0.000000  0.000000  0.000000
                                 0.000003  0.000000 -0.000002 -0.000000 -0.000015

  12.1   2   -13.2301 -167.8369 -0.000000 -0.000000 -0.000000 -0.000000 -0.000000 -0.000000 -0.000000 -0.000001 -0.000001 -0.000002
                                -0.000003 -0.000005 -0.000009 -0.000017 -0.000030 -0.000052 -0.000077 -0.000002 -0.000074  0.000041
                                 0.000381  0.000648  0.000134 -0.002015  0.000455 -0.002006  0.002119  0.003985 -0.002760 -0.000278
                                -0.000723 -0.000859  0.001802 -0.001378 -0.000584 -0.000217  0.000027  0.000000  0.000000  0.000000
                                 0.000000  0.000000  0.000000  0.000000  0.000001  0.000002  0.000005  0.000012  0.000028  0.000062
                                -0.000001  0.000115  0.000148  0.000052 -0.000279 -0.000641 -0.000250  0.000662  0.001434 -0.000858
                                 0.000999 -0.000941  0.000658 -0.001337  0.002262 -0.001418 -0.001075 -0.000264 -0.000049 -0.000012
                                 0.000000 -0.000071  0.000000 -0.000397  0.000000 -0.001832  0.000000 -0.007092  0.000000 -0.022132
                                 0.000000 -0.057069  0.000000 -0.113752  0.000000 -0.164978  0.000000 -0.123795  0.000000  0.109259
                                -0.000000  0.364701 -0.000000  0.028993  0.000000  0.382287 -0.000000  0.028541 -0.000000  0.196872
                                -0.000000  0.045228 -0.000000 -0.007321  0.000000  0.006873 -0.000000 -0.001023  0.000000 -0.000233
                                 0.000000 -0.000058  0.000000 -0.000000  0.000000 -0.000002  0.000000 -0.000010  0.000000 -0.000038
                                 0.000000 -0.000102  0.000000 -0.000248  0.000000 -0.000418  0.000000 -0.000480  0.000000 -0.000172
                                 0.000000  0.000052 -0.000000 -0.000284  0.000000  0.000320  0.000000 -0.000204 -0.000000 -0.000261
                                 0.000000 -0.000071  0.000000 -0.001927  0.000958 -0.000000  0.002489 -0.001148  0.000000 -0.001026
                                 0.000289 -0.000000  0.000000  0.000000  0.000000  0.000000  0.000000  0.000016  0.000083 -0.000009
                                -0.000119  0.001364 -0.000066 -0.000007  0.000723 -0.000010 -0.000031  0.000117 -0.000348 -0.000909
                                 0.000024  0.000004 -0.000135  0.000002  0.000000  0.000205  0.000000 -0.000001  0.000000  0.000201
                                -0.000000 -0.000032 -0.000000 -0.000007  0.000000

  13.1   2    -5.3717  -92.2770  0.000001  0.000001  0.000004  0.000009  0.000019  0.000037  0.000069  0.000124  0.000219  0.000383
                                 0.000672  0.001188  0.002125  0.003840  0.006906  0.011936  0.017833  0.000190  0.017156 -0.009571
                                -0.086220 -0.149900 -0.023279  0.392147  0.015627  0.391031 -0.356356 -0.922514 -0.072529 -0.063530
                                 0.859689  0.086861  0.469047  0.027549 -0.011630  0.000981 -0.000350  0.000000  0.000000  0.000000
                                 0.000000  0.000000  0.000000  0.000001  0.000001  0.000003  0.000008  0.000019  0.000046  0.000097
                                 0.000010  0.000172  0.000250  0.000067 -0.000413 -0.001125 -0.000354  0.000734  0.006237 -0.007833
                                 0.014412 -0.015586  0.009129 -0.012964  0.006711 -0.006062  0.001052 -0.003048  0.000023 -0.000000
                                -0.000000 -0.000000  0.000000 -0.000000  0.000000 -0.000000  0.000000 -0.000000  0.000000 -0.000000
                                 0.000000 -0.000001  0.000000 -0.000000  0.000000 -0.000011  0.000000 -0.000021 -0.000000 -0.000122
                                 0.000000  0.000392 -0.000000 -0.002533  0.000000  0.003630 -0.000000 -0.002820  0.000000  0.001867
                                -0.000000 -0.000034  0.000000  0.000643 -0.000000  0.001347  0.000000  0.000028 -0.000000 -0.000451
                                 0.000000 -0.000627  0.000000  0.000000  0.000000  0.000003  0.000000  0.000012  0.000000  0.000051
                                 0.000000  0.000116  0.000000  0.000266  0.000000  0.000251  0.000000  0.000492  0.000000 -0.000724
                                 0.000000  0.002378 -0.000000 -0.003100  0.000000  0.003222 -0.000000 -0.001457  0.000000  0.000610
                                 0.000000 -0.000358  0.000000 -0.000008  0.000005 -0.000000 -0.000118 -0.000430  0.000000  0.001130
                                 0.002398 -0.000000 -0.000001 -0.000008 -0.000039 -0.000154 -0.000470 -0.000955 -0.001042  0.003842
                                 0.000581  0.002386 -0.000243 -0.000072  0.004243 -0.000042 -0.000471 -0.001537 -0.003115 -0.001220
                                -0.000061 -0.000024 -0.001094  0.000386  0.000000  0.001168  0.000000  0.000017  0.000000  0.000074
                                -0.000000 -0.000162 -0.000000 -0.000210  0.000000

  14.1   2    -4.1730 -140.8360  0.000000  0.000000  0.000000  0.000000  0.000000  0.000000  0.000000  0.000000  0.000000  0.000000
                                 0.000000  0.000000  0.000000  0.000000  0.000000  0.000000  0.000000 -0.000000  0.000000 -0.000000
                                 0.000000 -0.000000  0.000000 -0.000000  0.000000 -0.000000  0.000000 -0.000000  0.000000 -0.000000
                                 0.000000 -0.000000  0.000000 -0.000000 -0.000000 -0.000000  0.000000 -0.000000  0.000000  0.000000
                                 0.000000  0.000000  0.000000  0.000000  0.000000  0.000000  0.000000  0.000000  0.000000 -0.000000
                                 0.000000 -0.000000  0.000000 -0.000000  0.000000 -0.000000  0.000000 -0.000000  0.000000 -0.000000
                                 0.000000 -0.000000  0.000000 -0.000000  0.000000  0.000000 -0.000000 -0.000000 -0.000000 -0.000000
                                -0.000000 -0.000000 -0.000000 -0.000000 -0.000000 -0.000000 -0.000002 -0.000000 -0.000007 -0.000000
                                -0.000021 -0.000000 -0.000053 -0.000000 -0.000106 -0.000000 -0.000152  0.000000 -0.000107 -0.000000
                                 0.000125  0.000000  0.000357 -0.000000  0.000115  0.000000  0.000270 -0.000000  0.000171  0.000000
                                 0.000180 -0.000000 -0.000259  0.000000 -0.000729 -0.000000 -0.000307  0.000000  0.000029 -0.000000
                                 0.000025  0.000000 -0.000003 -0.000000  0.000217 -0.000000  0.002022 -0.000000  0.011526 -0.000000
                                 0.042007 -0.000000  0.112649 -0.000000  0.222774 -0.000000  0.305483 -0.000000  0.311446 -0.000000
                                 0.222380 -0.000000  0.006277  0.000000  0.095936 -0.000000  0.003722  0.000000  0.018306 -0.000000
                                -0.001054 -0.000000  0.000528 -0.000000 -0.000000 -0.001016  0.000000  0.000000  0.000707 -0.000000
                                -0.000000 -0.000351  0.000000  0.000000  0.000000 -0.000000  0.000000  0.000000 -0.000000 -0.000000
                                 0.000000  0.000000  0.000000 -0.000000  0.000000 -0.000000  0.000000  0.000000  0.000000 -0.000000
                                 0.000000  0.000000 -0.000000 -0.000000  0.000058  0.000000  0.000383  0.000000  0.000004  0.000000
                                 0.000100  0.000000 -0.000071 -0.000000 -0.000245

  15.1   2    -4.1627 -140.8118 -0.000000 -0.000000 -0.000000 -0.000000 -0.000000 -0.000000 -0.000000 -0.000000 -0.000000 -0.000001
                                -0.000001 -0.000002 -0.000004 -0.000007 -0.000013 -0.000021 -0.000036  0.000006 -0.000038  0.000024
                                 0.000145  0.000301 -0.000040 -0.000221 -0.001164  0.000324 -0.000183  0.003815 -0.007079  0.007195
                                -0.005037  0.001783  0.001171 -0.005170  0.000195 -0.000161  0.000028 -0.000000 -0.000000 -0.000000
                                -0.000000 -0.000000 -0.000000 -0.000000 -0.000000 -0.000000 -0.000000 -0.000001 -0.000003 -0.000005
                                -0.000001 -0.000009 -0.000015 -0.000001  0.000026  0.000040 -0.000003  0.000065  0.000405 -0.000753
                                 0.000984 -0.003711  0.002984 -0.002817  0.011356 -0.005231 -0.002343  0.000289 -0.000053 -0.000000
                                -0.000000 -0.000000 -0.000000 -0.000001 -0.000000 -0.000003 -0.000000 -0.000011 -0.000000 -0.000032
                                -0.000000 -0.000086 -0.000000 -0.000163 -0.000000 -0.000252 -0.000000 -0.000148 -0.000000  0.000127
                                 0.000000  0.001017 -0.000000 -0.002044  0.000000  0.003775 -0.000000 -0.003339  0.000000  0.002703
                                -0.000000 -0.001159  0.000000 -0.000360 -0.000000  0.000768  0.000000 -0.002417 -0.000000 -0.000212
                                -0.000000  0.000162 -0.000000  0.000217  0.000000  0.002022  0.000000  0.011525  0.000000  0.042000
                                 0.000000  0.112633  0.000000  0.222742  0.000000  0.305427  0.000000  0.311291  0.000000  0.221769
                                 0.000000  0.007398  0.000000  0.094320  0.000000  0.006059  0.000000  0.017485  0.000000 -0.001579
                                -0.000000  0.000714  0.000000 -0.001875 -0.000005 -0.000000  0.002092  0.000003  0.000000 -0.001277
                                -0.000000  0.000000 -0.000001 -0.000005 -0.000024 -0.000095 -0.000299 -0.000713 -0.000678  0.002876
                                 0.000315  0.002776 -0.000088  0.000037  0.000607 -0.000045 -0.000444 -0.001149 -0.003050 -0.002390
                                -0.000025 -0.000016 -0.000160  0.000362 -0.000000  0.001416  0.000000  0.000013 -0.000000  0.000700
                                 0.000000 -0.000382  0.000000 -0.000264 -0.000000

  16.1   2    -3.6069  -80.3304  0.000000  0.000000  0.000000  0.000000  0.000000  0.000000  0.000000  0.000001  0.000001  0.000002
                                 0.000003  0.000005  0.000009  0.000017  0.000030  0.000053  0.000073  0.000014  0.000063 -0.000030
                                -0.000408 -0.000614 -0.000272  0.002810 -0.002234  0.003923 -0.003439 -0.001752 -0.009223  0.008257
                                 0.009780 -0.000071 -0.007945 -0.007770 -0.005431 -0.003933  0.000643 -0.000000 -0.000001 -0.000002
                                -0.000006 -0.000015 -0.000036 -0.000086 -0.000207 -0.000506 -0.001250 -0.003094 -0.007422 -0.016379
                                 0.000196 -0.030425 -0.039498 -0.013156  0.075383  0.178278  0.076258 -0.215236 -0.334074 -0.082414
                                -0.043636 -0.089018  0.425390  0.510295  0.086912  0.208710  0.010717 -0.005845 -0.000169  0.000000
                                -0.000000  0.000000 -0.000000  0.000000 -0.000000  0.000001  0.000000  0.000004 -0.000000  0.000013
                                 0.000000  0.000029 -0.000000  0.000069  0.000000  0.000074 -0.000000  0.000094  0.000000 -0.000216
                                -0.000000  0.000435  0.000000 -0.003459 -0.000000  0.004685  0.000000 -0.004319 -0.000000  0.002626
                                 0.000000  0.001598 -0.000000 -0.007240  0.000000  0.006150 -0.000000 -0.002795 -0.000000 -0.000715
                                -0.000000 -0.000931 -0.000000 -0.000002  0.000000 -0.000016  0.000000 -0.000098  0.000000 -0.000342
                                 0.000000 -0.000974  0.000000 -0.001825  0.000000 -0.002756  0.000000 -0.002212  0.000000 -0.003376
                                -0.000000  0.004448  0.000000 -0.006514  0.000000  0.007708 -0.000000  0.000515  0.000000  0.001069
                                -0.000000  0.000289 -0.000000 -0.000316 -0.000021  0.000000  0.000279  0.000023 -0.000000 -0.000085
                                -0.000017  0.000000 -0.000012 -0.000067 -0.000333 -0.001310 -0.004126 -0.010178 -0.012293  0.036051
                                 0.009335  0.021189  0.000847  0.000606  0.009998 -0.000387 -0.004216 -0.013711 -0.023889 -0.013464
                                -0.000448 -0.000190 -0.001954  0.002120 -0.000000  0.006640 -0.000000  0.000105 -0.000000  0.003199
                                 0.000000 -0.001057  0.000000 -0.001195 -0.000000

  17.1   2    -2.2998  -37.2581 -0.000000 -0.000000 -0.000000 -0.000001 -0.000002 -0.000003 -0.000006 -0.000010 -0.000017 -0.000030
                                -0.000053 -0.000095 -0.000169 -0.000306 -0.000547 -0.000958 -0.001360 -0.000142 -0.001242  0.000640
                                 0.007119  0.011454  0.003501 -0.040873  0.019826 -0.052024  0.045653  0.044162  0.160300 -0.169197
                                 0.037463 -0.316346  0.182996  0.022430 -0.086360 -0.007953  0.000679  0.000000  0.000000  0.000000
                                 0.000001  0.000003  0.000006  0.000015  0.000036  0.000088  0.000217  0.000540  0.001290  0.002881
                                -0.000127  0.005409  0.006809  0.002405 -0.013457 -0.030795 -0.014469  0.042573  0.022557  0.084515
                                -0.099603  0.128235 -0.143885 -0.048670 -0.120518  0.059455 -0.049795 -0.036623  0.000518  0.000001
                                 0.000000  0.000004  0.000000  0.000021  0.000000  0.000097  0.000000  0.000379  0.000000  0.001180
                                 0.000000  0.003060  0.000000  0.006083  0.000000  0.008837  0.000000  0.006069 -0.000000 -0.007976
                                 0.000000 -0.024665 -0.000000  0.003861  0.000000 -0.033062 -0.000000  0.007886  0.000000 -0.007396
                                -0.000000  0.051150  0.000000 -0.027298 -0.000000  0.097682  0.000000  0.050695 -0.000000 -0.026005
                                 0.000000 -0.004180 -0.000000 -0.000004  0.000000 -0.000034  0.000000 -0.000201  0.000000 -0.000709
                                 0.000000 -0.001963  0.000000 -0.003715  0.000000 -0.005330  0.000000 -0.004368  0.000000 -0.006772
                                 0.000000  0.010188 -0.000000 -0.013623  0.000000  0.014999 -0.000000 -0.000513  0.000000  0.007460
                                -0.000000 -0.009170  0.000000  0.002124 -0.000061  0.000000 -0.003126  0.000315 -0.000000  0.004765
                                -0.000430  0.000000 -0.000165 -0.000945 -0.004672 -0.018398 -0.058364 -0.147893 -0.186073  0.592655
                                 0.168529  0.364262  0.017129  0.010178  0.059510 -0.001232 -0.012648 -0.040580 -0.078397 -0.097357
                                -0.001062 -0.000517 -0.014062  0.003655 -0.000000  0.016331  0.000000  0.000415 -0.000000  0.020111
                                -0.000000 -0.000964  0.000000 -0.002177 -0.000000

  18.1   2    -1.6826  -40.5226  0.000000  0.000000  0.000000  0.000000  0.000001  0.000002  0.000004  0.000006  0.000011  0.000020
                                 0.000035  0.000062  0.000111  0.000200  0.000360  0.000621  0.000939 -0.000010  0.000914 -0.000521
                                -0.004474 -0.007957 -0.000949  0.019498  0.004095  0.018163 -0.018069 -0.056016 -0.010729  0.009903
                                 0.036307  0.106991 -0.037661 -0.031190  0.076611  0.051098 -0.007007 -0.000000 -0.000000 -0.000000
                                -0.000001 -0.000001 -0.000003 -0.000008 -0.000019 -0.000046 -0.000113 -0.000280 -0.000675 -0.001473
                                -0.000025 -0.002711 -0.003617 -0.001127  0.006779  0.016579  0.006212 -0.017801 -0.060633  0.049962
                                -0.112710  0.121458 -0.031918  0.136009 -0.067966  0.042289 -0.008727  0.058845  0.009347 -0.000002
                                -0.000000 -0.000012 -0.000000 -0.000064 -0.000000 -0.000298 -0.000000 -0.001155 -0.000000 -0.003615
                                -0.000000 -0.009337 -0.000000 -0.018657 -0.000000 -0.026881 -0.000000 -0.018808 -0.000000  0.025815
                                -0.000000  0.070500  0.000000  0.017878 -0.000000  0.057296  0.000000  0.021407 -0.000000 -0.012978
                                 0.000000 -0.150325 -0.000000  0.033319  0.000000 -0.267167 -0.000000 -0.174641  0.000000 -0.028722
                                -0.000000  0.016488  0.000000  0.000003 -0.000000  0.000023 -0.000000  0.000151 -0.000000  0.000484
                                -0.000000  0.001483 -0.000000  0.002468 -0.000000  0.004295 -0.000000  0.001564 -0.000000  0.013887
                                -0.000000 -0.029509  0.000000  0.039068 -0.000000 -0.034563  0.000000  0.009823 -0.000000 -0.007680
                                 0.000000  0.000374 -0.000000 -0.002811  0.000719 -0.000000  0.005612 -0.001207  0.000000 -0.006606
                                 0.001371 -0.000000 -0.000051 -0.000292 -0.001443 -0.005684 -0.018126 -0.046850 -0.060231  0.207108
                                 0.061902  0.123588  0.006495  0.003580 -0.128082  0.007073  0.077983  0.261918  0.398911  0.176376
                                 0.007569  0.003265  0.021072 -0.008529 -0.000000 -0.027400 -0.000000 -0.000263 -0.000000 -0.016655
                                -0.000000  0.000468  0.000000  0.003488  0.000000

  19.1   2    -1.5444  -60.5300  0.000000  0.000000  0.000000  0.000000  0.000000  0.000000  0.000000  0.000000  0.000000  0.000000
                                 0.000000  0.000000  0.000000  0.000000  0.000000  0.000000  0.000000 -0.000000  0.000000 -0.000000
                                -0.000000 -0.000000  0.000000  0.000000  0.000000 -0.000000 -0.000000 -0.000000  0.000000 -0.000000
                                 0.000000 -0.000000  0.000000 -0.000000 -0.000000  0.000000 -0.000000  0.000000 -0.000000  0.000000
                                 0.000000  0.000000  0.000000  0.000000  0.000000  0.000000  0.000000  0.000000  0.000000  0.000000
                                -0.000000  0.000000  0.000000  0.000000 -0.000000 -0.000000 -0.000000  0.000000 -0.000000  0.000000
                                -0.000000  0.000000 -0.000000  0.000000 -0.000000  0.000000  0.000000  0.000000  0.000000 -0.000000
                                 0.000004  0.000000  0.000022 -0.000000  0.000122  0.000000  0.000562  0.000000  0.002180  0.000000
                                 0.006805  0.000000  0.017632  0.000000  0.035098  0.000000  0.050866  0.000000  0.034936 -0.000000
                                -0.047600  0.000000 -0.140106 -0.000000 -0.002086  0.000000 -0.151526 -0.000000 -0.008250  0.000000
                                 0.011387 -0.000000  0.280747  0.000000  0.002641 -0.000000  0.444568  0.000000  0.353385 -0.000000
                                 0.081188  0.000000 -0.001938  0.000000  0.000001  0.000000  0.000006  0.000000  0.000038  0.000000
                                 0.000136  0.000000  0.000376  0.000000  0.000731  0.000000  0.001037  0.000000  0.000865  0.000000
                                 0.000639 -0.000000 -0.001441 -0.000000  0.001713  0.000000 -0.004465 -0.000000 -0.001490  0.000000
                                -0.001979 -0.000000 -0.000138 -0.000000 -0.000000 -0.000689  0.000000 -0.000000 -0.001401 -0.000000
                                -0.000000  0.000643 -0.000000 -0.000000 -0.000000 -0.000000 -0.000000 -0.000000 -0.000000  0.000000
                                 0.000000  0.000000 -0.000000 -0.000000 -0.000000  0.000000  0.000000  0.000000  0.000000  0.000000
                                 0.000000  0.000000 -0.000000 -0.000000  0.000954 -0.000000  0.005389 -0.000000  0.000056  0.000000
                                 0.003418 -0.000000 -0.000837 -0.000000 -0.003217

  20.1   2    -1.3803  -50.5952  0.000000  0.000000  0.000001  0.000002  0.000004  0.000007  0.000014  0.000024  0.000043  0.000075
                                 0.000132  0.000234  0.000418  0.000756  0.001360  0.002352  0.003509  0.000049  0.003370 -0.001882
                                -0.017103 -0.029719 -0.004845  0.081045  0.000273  0.083007 -0.078466 -0.208653 -0.055293  0.035877
                                 0.247003  0.138326  0.148624 -0.428818 -0.072683  0.039397 -0.006435 -0.000000 -0.000000 -0.000000
                                -0.000001 -0.000002 -0.000005 -0.000011 -0.000027 -0.000067 -0.000165 -0.000409 -0.000978 -0.002175
                                 0.000069 -0.004068 -0.005183 -0.001779  0.010172  0.023619  0.010517 -0.031484 -0.032125 -0.038647
                                 0.035116 -0.055161  0.097809  0.051752  0.105538 -0.057918 -0.095857  0.024463  0.005464  0.000003
                                -0.000000  0.000017 -0.000000  0.000093 -0.000000  0.000429 -0.000000  0.001667 -0.000000  0.005196
                                -0.000000  0.013480 -0.000000  0.026794 -0.000000  0.038919 -0.000000  0.026526  0.000000 -0.036121
                                -0.000000 -0.109097  0.000000  0.007084 -0.000000 -0.128237  0.000000  0.004564 -0.000000  0.003302
                                 0.000000  0.218481 -0.000000 -0.005130  0.000000  0.356651 -0.000000  0.260599  0.000000  0.079194
                                -0.000000  0.008060 -0.000000  0.000004  0.000000  0.000036  0.000000  0.000214  0.000000  0.000750
                                 0.000000  0.002095  0.000000  0.003931  0.000000  0.005696  0.000000  0.004302  0.000000  0.007281
                                -0.000000 -0.013090  0.000000  0.013141 -0.000000 -0.018176  0.000000 -0.002302 -0.000000 -0.026091
                                 0.000000 -0.003288 -0.000000 -0.004598 -0.001931  0.000000  0.005608  0.001696 -0.000000 -0.006451
                                -0.001809  0.000000  0.000002  0.000010  0.000048  0.000192  0.000580  0.001141  0.001355 -0.001523
                                 0.000418 -0.013601  0.000354  0.000112 -0.076096  0.004655  0.050905  0.170946  0.262230  0.144742
                                 0.004706  0.002080  0.014266  0.000688 -0.000000  0.002955 -0.000000  0.000041 -0.000000 -0.004606
                                 0.000000 -0.003259  0.000000 -0.003192 -0.000000

  21.1   0    -0.8089  -36.5877  0.000000  0.000000  0.000001  0.000002  0.000005  0.000010  0.000018  0.000033  0.000058  0.000101
                                 0.000177  0.000313  0.000560  0.001010  0.001822  0.003134  0.004774 -0.000111  0.004678 -0.002689
                                -0.022543 -0.040502 -0.004173  0.095596  0.030532  0.082377 -0.082230 -0.336315  0.162475 -0.226291
                                 0.540904 -0.296537  0.635754 -0.487261 -0.741309 -0.037626 -0.001325  0.000000  0.000000  0.000000
                                 0.000001  0.000003  0.000007  0.000016  0.000039  0.000096  0.000238  0.000588  0.001417  0.003100
                                 0.000035  0.005717  0.007587  0.002388 -0.014331 -0.034812 -0.013404  0.039659  0.101924 -0.046985
                                 0.113137 -0.099986 -0.037682 -0.193878  0.014295 -0.048433  0.251932  0.088298 -0.006541 -0.000001
                                -0.000000 -0.000006 -0.000000 -0.000034 -0.000000 -0.000155 -0.000000 -0.000606 -0.000000 -0.001884
                                -0.000000 -0.004902 -0.000000 -0.009705 -0.000000 -0.014185 -0.000000 -0.009493 -0.000000  0.012747
                                 0.000000  0.041880  0.000000 -0.013975 -0.000000  0.063496  0.000000 -0.017851 -0.000000  0.009348
                                 0.000000 -0.085615 -0.000000  0.003089  0.000000 -0.125172 -0.000000 -0.097340 -0.000000 -0.066766
                                -0.000000 -0.014031 -0.000000 -0.000004 -0.000000 -0.000034 -0.000000 -0.000204 -0.000000 -0.000711
                                -0.000000 -0.001999 -0.000000 -0.003717 -0.000000 -0.005458 -0.000000 -0.003929 -0.000000 -0.008076
                                -0.000000  0.015939 -0.000000 -0.019700 -0.000000  0.026345 -0.000000 -0.002487 -0.000000  0.026057
                                -0.000000  0.007716 -0.000000  0.002508 -0.000334  0.000000 -0.004443 -0.001445 -0.000000  0.005893
                                 0.001183  0.000000 -0.000024 -0.000138 -0.000679 -0.002691 -0.008464 -0.020150 -0.025028  0.113720
                                 0.024497  0.125938 -0.000748  0.000371  0.057940 -0.002744 -0.029763 -0.099497 -0.161452 -0.111543
                                -0.002606 -0.001185 -0.015144 -0.001343  0.000000 -0.003658  0.000000 -0.000049 -0.000000 -0.006149
                                 0.000000  0.001212 -0.000000  0.001650  0.000000

  22.1   0    -0.5079  -25.9142  0.000000  0.000000  0.000000  0.000000  0.000001  0.000001  0.000002  0.000004  0.000006  0.000011
                                 0.000019  0.000034  0.000060  0.000110  0.000195  0.000345  0.000463  0.000100  0.000396 -0.000181
                                -0.002633 -0.003891 -0.001870  0.018025 -0.014907  0.026054 -0.022040 -0.004556 -0.100050  0.103711
                                -0.030744  0.151754 -0.094464  0.213930 -0.324077 -0.423889  0.012421 -0.000000 -0.000000 -0.000000
                                -0.000001 -0.000002 -0.000005 -0.000011 -0.000026 -0.000063 -0.000156 -0.000385 -0.000926 -0.002036
                                 0.000003 -0.003769 -0.004944 -0.001592  0.009451  0.022687  0.009086 -0.027290 -0.054727  0.006563
                                -0.032277  0.018589  0.051582  0.127786 -0.070149  0.153482 -0.165391 -0.898907 -0.217098 -0.000001
                                -0.000000 -0.000006 -0.000000 -0.000035 -0.000000 -0.000160 -0.000000 -0.000623 -0.000000 -0.001945
                                -0.000000 -0.005039 -0.000000 -0.010034 -0.000000 -0.014531 -0.000000 -0.009954  0.000000  0.013877
                                -0.000000  0.039994  0.000000  0.003620 -0.000000  0.038358  0.000000  0.010111 -0.000000 -0.012325
                                 0.000000 -0.078532 -0.000000 -0.025209  0.000000 -0.118994 -0.000000 -0.089684  0.000000  0.023965
                                -0.000000  0.014644  0.000000 -0.000007 -0.000000 -0.000063 -0.000000 -0.000364 -0.000000 -0.001318
                                -0.000000 -0.003564 -0.000000 -0.006950 -0.000000 -0.009384 -0.000000 -0.008535  0.000000 -0.004398
                                -0.000000  0.004020  0.000000  0.003800 -0.000000  0.008150  0.000000  0.033013 -0.000000  0.037372
                                 0.000000  0.053221 -0.000000  0.005096  0.000522  0.000000 -0.008905 -0.001350 -0.000000  0.012427
                                 0.001003  0.000000 -0.000047 -0.000271 -0.001335 -0.005293 -0.016656 -0.039546 -0.049035  0.256890
                                 0.050231  0.364925 -0.002269  0.000559  0.112350 -0.001867 -0.019303 -0.062117 -0.118214 -0.037935
                                -0.001324 -0.000699  0.022686  0.001445  0.000000  0.003593  0.000000  0.000095 -0.000000 -0.018997
                                 0.000000 -0.000571  0.000000  0.003926 -0.000000

                                   1 2px     1 2px     1 2px     1 2px     1 2px     1 2px     1 2px     1 2px     1 2px     1 2px  
                                   1 2px     1 2px     1 2px     1 2px     1 2px     1 2px     1 2px     1 2px     1 2px     1 2px  
                                   1 2px     1 2px     1 2px     1 2px     1 2px     1 2px     1 2px     1 2px     1 2px     1 2px  
                                   1 2px     1 2px     1 3d1+    1 3d1+    1 3d1+    1 3d1+    1 3d1+    1 3d1+    1 3d1+    1 3d1+ 
                                   1 3d1+    1 3d1+    1 3d1+    1 3d1+    1 3d1+    1 3d1+    1 3d1+    1 3d1+    1 3d1+    1 3d1+ 
                                   1 3d1+    1 3d1+    1 3d1+    1 3d1+    1 4f1+    1 4f3+    1 4f1+    1 4f3+    1 4f1+    1 4f3+ 
                                   1 4f1+    1 4f3+    1 4f1+    1 4f3+    1 4f1+    1 4f3+    1 4f1+    1 4f3+    1 4f1+    1 4f3+ 
                                   1 4f1+    1 4f3+    1 4f1+    1 4f3+    1 4f1+    1 4f3+    1 4f1+    1 4f3+    1 4f1+    1 4f3+ 
                                   1 4f1+    1 4f3+    1 4f1+    1 4f3+    1 5g1+    1 5g3+    1 5g1+    1 5g3+    1 5g1+    1 5g3+ 
                                   2 2px     2 2px     2 2px     2 2px     2 2px     2 2px     2 2px     2 2px     2 3d1+    2 3d1+ 
                                   2 3d1+    2 3d1+    2 4f1+    2 4f3+    2 4f1+    2 4f3+ 

   1.2   2  -434.6923-1211.2726  0.000003  0.000008  0.000024  0.000062  0.000153  0.000367  0.000873  0.002085  0.005048  0.012348
                                 0.030033  0.070112  0.147676 -0.000313  0.257464  0.326979  0.249424  0.089025  0.009866  0.000453
                                -0.000266  0.000434 -0.000599  0.000416 -0.000281  0.000075 -0.000020  0.000014 -0.000004  0.000000
                                -0.000000  0.000000 -0.000000 -0.000000 -0.000000 -0.000000 -0.000000 -0.000001 -0.000001 -0.000002
                                -0.000002 -0.000000  0.000000 -0.000000  0.000000 -0.000001  0.000000 -0.000000  0.000000 -0.000000
                                 0.000000 -0.000000  0.000000 -0.000000 -0.000000  0.000000 -0.000002  0.000001 -0.000004  0.000004
                                -0.000002  0.000003 -0.000000 -0.000002  0.000001 -0.000002 -0.000000 -0.000001  0.000000  0.000001
                                -0.000001  0.000000  0.000001  0.000001 -0.000001 -0.000000  0.000001  0.000001 -0.000000  0.000000
                                 0.000000  0.000000 -0.000000  0.000000 -0.000000  0.000000  0.000000 -0.000000 -0.000000  0.000000
                                 0.000000  0.000000  0.000000  0.000000  0.000000 -0.000000 -0.000000  0.000000 -0.000000 -0.000000
                                -0.000000 -0.000000  0.000000  0.000000  0.000000  0.000000

   2.2   2  -100.8501 -435.2717 -0.000001 -0.000004 -0.000012 -0.000032 -0.000079 -0.000189 -0.000450 -0.001078 -0.002625 -0.006472
                                -0.015961 -0.038050 -0.083085  0.000803 -0.151977 -0.196309 -0.091907  0.227218  0.497338  0.337482
                                 0.075558  0.016773 -0.015281  0.013967 -0.009952  0.002939 -0.001010  0.000701 -0.000259  0.000023
                                -0.000007  0.000002 -0.000000 -0.000000 -0.000000 -0.000001 -0.000003 -0.000009 -0.000023 -0.000045
                                -0.000068 -0.000081 -0.000045 -0.000011  0.000003 -0.000005  0.000005 -0.000003  0.000002 -0.000003
                                 0.000002 -0.000001  0.000001 -0.000000 -0.000000 -0.000000  0.000000  0.000000 -0.000002  0.000001
                                -0.000010 -0.000002 -0.000032 -0.000024 -0.000028  0.000009 -0.000007  0.000024 -0.000003 -0.000011
                                 0.000007 -0.000003 -0.000008 -0.000017  0.000008  0.000005 -0.000003 -0.000010  0.000001  0.000001
                                -0.000000 -0.000001  0.000000  0.000000 -0.000003 -0.000000  0.000003  0.000000 -0.000002 -0.000000
                                 0.000000 -0.000000 -0.000001 -0.000001 -0.000001 -0.000000 -0.000000  0.000000  0.000000  0.000000
                                 0.000000  0.000001 -0.000000 -0.000000  0.000000 -0.000000

   3.2   2   -79.0231 -400.3560 -0.000000 -0.000000 -0.000000 -0.000000 -0.000000 -0.000000 -0.000000 -0.000000 -0.000001 -0.000001
                                -0.000003 -0.000008 -0.000018  0.000001 -0.000033 -0.000043 -0.000022  0.000052  0.000112  0.000080
                                 0.000029 -0.000013  0.000021 -0.000021  0.000012 -0.000006 -0.000001  0.000003 -0.000001 -0.000002
                                -0.000000  0.000000  0.000023  0.000139  0.000775  0.003570  0.013713  0.042424  0.107392  0.212878
                                 0.316995  0.314251  0.165409  0.039813 -0.003032  0.006396 -0.001673  0.001206 -0.000147  0.000209
                                -0.000127  0.000010 -0.000005  0.000001 -0.000000  0.000000 -0.000001  0.000000 -0.000004  0.000000
                                -0.000014  0.000000 -0.000034  0.000000 -0.000024 -0.000000 -0.000005 -0.000001 -0.000003  0.000000
                                -0.000001  0.000000 -0.000000  0.000000 -0.000003  0.000000  0.000003  0.000000 -0.000002  0.000000
                                -0.000001  0.000000 -0.000001 -0.000000 -0.000022 -0.000010  0.000028  0.000009 -0.000011 -0.000003
                                 0.000000  0.000000 -0.000000  0.000000  0.000004 -0.000000 -0.000000 -0.000000  0.000000 -0.000002
                                -0.000000 -0.000002  0.000000 -0.000000  0.000001  0.000000

   4.2   2   -21.3903 -188.7880  0.000001  0.000002  0.000006  0.000016  0.000039  0.000093  0.000222  0.000532  0.001296  0.003203
                                 0.007921  0.018992  0.041761 -0.000288  0.077235  0.100639  0.035798 -0.175820 -0.409338 -0.201671
                                 0.354399  0.579976 -0.003868  0.297802 -0.022722  0.044887 -0.001998  0.002658 -0.000805  0.000068
                                -0.000029  0.000006  0.000000  0.000000  0.000000  0.000002  0.000007  0.000023  0.000061  0.000121
                                 0.000176  0.000146 -0.000121 -0.000419 -0.000111 -0.000372  0.000005 -0.000093 -0.000025 -0.000032
                                 0.000026 -0.000030 -0.000010 -0.000002 -0.000000  0.000000 -0.000001 -0.000000 -0.000004  0.000000
                                -0.000014 -0.000003 -0.000033  0.000028 -0.000134  0.000092 -0.000262  0.000155 -0.000324 -0.000194
                                -0.000024 -0.000376  0.000024  0.000294 -0.000002 -0.000145  0.000020  0.000148 -0.000010 -0.000018
                                -0.000012  0.000020 -0.000005 -0.000001 -0.000156  0.000004  0.000205 -0.000004 -0.000084  0.000001
                                 0.000001  0.000005  0.000006  0.000016  0.000029 -0.000001 -0.000000  0.000004  0.000003 -0.000014
                                -0.000000 -0.000016 -0.000000  0.000000  0.000013 -0.000000

   5.2   2   -13.2276 -167.7335  0.000000  0.000000  0.000000  0.000000  0.000000  0.000000  0.000000  0.000000  0.000001  0.000003
                                 0.000007  0.000017  0.000038 -0.000000  0.000070  0.000091  0.000034 -0.000160 -0.000369 -0.000188
                                 0.000287  0.000616 -0.000320  0.000775 -0.000195  0.000289 -0.000489  0.000421 -0.000270 -0.000183
                                -0.000043 -0.000007 -0.000011 -0.000071 -0.000396 -0.001829 -0.007082 -0.022102 -0.056991 -0.113599
                                -0.164759 -0.123701  0.108868  0.364011  0.028551  0.382526  0.028527  0.197936  0.045660 -0.007336
                                 0.006572 -0.000496 -0.000032 -0.000038 -0.000000 -0.000000 -0.000001 -0.000000 -0.000004 -0.000000
                                -0.000016 -0.000000 -0.000045 -0.000001 -0.000125 -0.000002 -0.000252 -0.000003 -0.000329 -0.000001
                                -0.000232  0.000004  0.000102 -0.000002 -0.000321  0.000005  0.000204 -0.000003 -0.000093  0.000002
                                -0.000105 -0.000001 -0.000059 -0.000001 -0.001505 -0.000586  0.001883  0.000703 -0.000735 -0.000178
                                 0.000003  0.000012 -0.000017  0.000031  0.000238 -0.000007 -0.000001  0.000039  0.000017 -0.000098
                                -0.000001 -0.000158  0.000006 -0.000002  0.000096  0.000007

   6.2   2    -4.1876 -140.8365 -0.000000 -0.000000 -0.000000 -0.000000 -0.000000 -0.000000 -0.000001 -0.000002 -0.000004 -0.000011
                                -0.000027 -0.000066 -0.000145  0.000000 -0.000268 -0.000352 -0.000115  0.000662  0.001543  0.000648
                                -0.001603 -0.002915 -0.000037 -0.002485  0.000020  0.001765  0.006983  0.000681  0.005082  0.000542
                                -0.000053  0.000021 -0.000000 -0.000000 -0.000000 -0.000000 -0.000002 -0.000005 -0.000012 -0.000025
                                -0.000036 -0.000025  0.000036  0.000086  0.000073 -0.000010  0.000122 -0.000095 -0.000032 -0.000322
[...]
                                -0.000000  0.000000  0.000001  0.000001  0.000001  0.000000  0.000000 -0.000000 -0.000000 -0.000000
                                 0.000000  0.000000  0.000000  0.000000 -0.000000 -0.000000

   4.3   2   -20.2905 -187.6963  0.000001  0.000002  0.000006  0.000016  0.000039  0.000093  0.000222  0.000532  0.001296  0.003203
                                 0.007922  0.018994  0.041767 -0.000290  0.077247  0.100648  0.035808 -0.175846 -0.409410 -0.201662
                                 0.354455  0.580385 -0.004218  0.297901 -0.023024  0.044954 -0.001906  0.002613 -0.000778  0.000098
                                -0.000024  0.000006  0.000000  0.000000  0.000000  0.000001  0.000002  0.000007  0.000019  0.000038
                                 0.000052  0.000050 -0.000016 -0.000087 -0.000034 -0.000184 -0.000061 -0.000035 -0.000007  0.000025
                                -0.000032  0.000013  0.000019  0.000000  0.000000 -0.000000  0.000000  0.000000 -0.000000 -0.000000
                                 0.000001  0.000001 -0.000000 -0.000012  0.000006 -0.000040  0.000008 -0.000066 -0.000003  0.000081
                                 0.000164  0.000161 -0.000076 -0.000123  0.000106  0.000063 -0.000056 -0.000063  0.000022  0.000007
                                 0.000005 -0.000010  0.000010 -0.000001  0.000120 -0.000001 -0.000172  0.000001  0.000064 -0.000000
                                -0.000000 -0.000001  0.000001 -0.000004 -0.000032  0.000000  0.000000 -0.000002 -0.000001  0.000011
                                 0.000000  0.000019 -0.000002 -0.000000 -0.000010  0.000000

   5.3   2   -12.1438 -166.6552  0.000000  0.000000  0.000000  0.000000  0.000000  0.000000  0.000000  0.000000  0.000001  0.000002
                                 0.000004  0.000009  0.000021 -0.000001  0.000039  0.000050  0.000018 -0.000094 -0.000219 -0.000088
                                 0.000255  0.000535 -0.000360  0.000214 -0.000156  0.000092 -0.000093  0.000035 -0.000052  0.000034
                                 0.000003 -0.000006 -0.000011 -0.000071 -0.000396 -0.001829 -0.007083 -0.022105 -0.056997 -0.113611
                                -0.164776 -0.123717  0.108900  0.364061  0.028631  0.382416  0.028680  0.197684  0.045609 -0.007026
                                 0.006349 -0.000233  0.000124 -0.000025 -0.000000  0.000000 -0.000000  0.000000 -0.000002  0.000000
                                -0.000005  0.000000 -0.000018  0.000000 -0.000043  0.000001 -0.000086  0.000002 -0.000084  0.000000
                                 0.000056 -0.000002 -0.000166  0.000001  0.000035 -0.000002 -0.000115  0.000002  0.000027 -0.000001
                                -0.000002  0.000000  0.000018  0.000000  0.000418  0.000248 -0.000357 -0.000293  0.000140  0.000069
                                -0.000000 -0.000004 -0.000010 -0.000018 -0.000080  0.000000 -0.000000  0.000007 -0.000003  0.000018
                                 0.000000  0.000037  0.000001  0.000001 -0.000021 -0.000003

   6.3   2    -3.0851 -139.6938 -0.000000 -0.000000 -0.000000 -0.000000 -0.000000 -0.000000 -0.000001 -0.000002 -0.000005 -0.000011
                                -0.000028 -0.000067 -0.000149  0.000005 -0.000279 -0.000356 -0.000123  0.000691  0.001587  0.000724
                                -0.002020 -0.001501 -0.003417  0.003455 -0.005364  0.006493  0.002923  0.003095  0.000147 -0.000311
                                 0.000101  0.000073 -0.000000 -0.000000 -0.000000 -0.000001 -0.000006 -0.000018 -0.000047 -0.000094
                                -0.000133 -0.000096  0.000129  0.000291  0.000361 -0.000195  0.000650 -0.000371  0.000033 -0.002116
                                 0.000850 -0.000757  0.000146  0.000129  0.000208 -0.000060  0.001942 -0.000560  0.011066 -0.003190
                                 0.040333 -0.011626  0.108157 -0.031176  0.213891 -0.061648  0.293308 -0.084527  0.299181 -0.086248
                                 0.213763 -0.061663  0.006292 -0.001636  0.092052 -0.026468  0.003964 -0.001003  0.018430 -0.005022
                                -0.001152  0.000183  0.000954 -0.000187 -0.000375  0.000203  0.000220 -0.000228 -0.000399  0.000164
                                 0.000027  0.000223  0.000554  0.001302  0.000087 -0.000001  0.000005 -0.000224 -0.000153 -0.000698
                                -0.000008  0.000051  0.000216 -0.000001  0.000160 -0.000006

   7.3   2    -3.0814 -139.6927  0.000000  0.000000  0.000000  0.000000  0.000000  0.000000  0.000000  0.000000  0.000001  0.000003
                                 0.000007  0.000017  0.000037  0.000001  0.000068  0.000092  0.000028 -0.000167 -0.000402 -0.000150
                                 0.000318  0.001333 -0.001178  0.002606 -0.001999  0.001020 -0.002893  0.000968 -0.002847 -0.000653
                                 0.000025  0.000013 -0.000000 -0.000000 -0.000000 -0.000000 -0.000002 -0.000005 -0.000012 -0.000025
                                -0.000035 -0.000025  0.000034  0.000076  0.000100 -0.000059  0.000178 -0.000103  0.000012 -0.000586
                                 0.000264 -0.000168  0.000066  0.000038  0.000060  0.000208  0.000559  0.001943  0.003187  0.011073
                                 0.011616  0.040358  0.031152  0.108229  0.061612  0.214038  0.084491  0.293487  0.086131  0.299285
                                 0.061457  0.213650  0.001876  0.005925  0.026526  0.091872  0.001331  0.004131  0.005431  0.017849
                                -0.000213 -0.000289  0.000310  0.000744 -0.000108 -0.000709  0.000066  0.000803 -0.000121 -0.000583
                                 0.000007  0.000057  0.000139  0.000331 -0.000007 -0.000000  0.000001 -0.000066 -0.000041 -0.000184
                                -0.000002  0.000021  0.000058  0.000006  0.000042  0.000008

   8.3   2    -2.5207  -79.0175 -0.000000 -0.000001 -0.000002 -0.000006 -0.000015 -0.000036 -0.000086 -0.000207 -0.000504 -0.001247
                                -0.003086 -0.007405 -0.016329  0.000162 -0.030311 -0.039426 -0.013081  0.075092  0.177962  0.075690
                                -0.213209 -0.346367 -0.055488 -0.090865 -0.035259  0.391190  0.537383  0.035758  0.253208  0.031165
                                -0.000745  0.000601 -0.000000 -0.000000 -0.000001 -0.000003 -0.000013 -0.000042 -0.000108 -0.000218
                                -0.000307 -0.000231  0.000309  0.000645  0.000948 -0.000553  0.001733 -0.001249  0.000421 -0.003111
                                -0.001265 -0.004649 -0.001023 -0.000128 -0.000002  0.000002 -0.000016  0.000018 -0.000093  0.000101
                                -0.000338  0.000365 -0.000912  0.000995 -0.001787  0.001967 -0.002484  0.002752 -0.002383  0.002700
                                -0.002238  0.001380  0.001193 -0.000557 -0.001166 -0.000199  0.001139 -0.001990  0.001150 -0.001727
                                -0.001212 -0.001733 -0.000176 -0.000569  0.000267  0.000031 -0.000596 -0.000063  0.000229  0.000084
                                 0.000099  0.000976  0.002925  0.005519  0.002133  0.000064  0.000036 -0.000056 -0.000557 -0.002115
                                -0.000025 -0.000224  0.000552 -0.000006  0.000451  0.000004

   9.3   2    -0.5400  -36.7319  0.000000  0.000000  0.000000  0.000000  0.000001  0.000002  0.000005  0.000013  0.000032  0.000079
                                 0.000196  0.000468  0.001040 -0.000030  0.001942  0.002482  0.000848 -0.004847 -0.011288 -0.005018
                                 0.014900  0.014959  0.019010 -0.018507  0.028415 -0.045356 -0.025142 -0.044181  0.020536 -0.000891
                                 0.014095 -0.000734  0.000002  0.000009  0.000053  0.000243  0.000945  0.002946  0.007639  0.015191
                                 0.022051  0.015128 -0.020244 -0.061236  0.004342 -0.073673  0.006488 -0.004900  0.121535 -0.018789
                                 0.201154  0.166348  0.046472  0.007427 -0.000003  0.000000 -0.000028  0.000000 -0.000167  0.000002
                                -0.000583  0.000006 -0.001639  0.000015 -0.003049  0.000030 -0.004474  0.000036 -0.003334  0.000045
                                -0.006201  0.000029  0.010650  0.000044 -0.012503 -0.000084  0.014190  0.000057  0.004362 -0.000148
                                 0.012162 -0.000026 -0.011897 -0.000166  0.005266 -0.000237 -0.009850  0.000353  0.014076 -0.000410
                                 0.006521  0.070259  0.231640  0.370382  0.313383  0.006473  0.002892  0.034329 -0.006150 -0.028020
                                -0.000307 -0.035260  0.003600  0.000005  0.008963 -0.000038

  10.3   +    -0.4514  -50.2479  0.000000  0.000000  0.000000  0.000001  0.000001  0.000004  0.000008  0.000020  0.000050  0.000122
                                 0.000303  0.000728  0.001606 -0.000021  0.002986  0.003874  0.001281 -0.007469 -0.017677 -0.007464
                                 0.022209  0.033423  0.011139 -0.000617  0.014991 -0.056447 -0.065740 -0.028406  0.003172  0.083404
                                 0.063390 -0.003836 -0.000003 -0.000018 -0.000101 -0.000467 -0.001814 -0.005662 -0.014668 -0.029202
                                -0.042313 -0.029106  0.039508  0.116357  0.002259  0.124876  0.007724 -0.008631 -0.229700 -0.008732
                                -0.362111 -0.312199 -0.151830 -0.024380 -0.000003  0.000000 -0.000032  0.000000 -0.000181  0.000003
                                -0.000657  0.000010 -0.001775  0.000025 -0.003469  0.000053 -0.004700  0.000067 -0.004394  0.000075
                                -0.002277  0.000068  0.001364 -0.000088 -0.000417 -0.000119  0.007383 -0.000022  0.008284  0.000127
                                 0.020715  0.000480  0.014588  0.000356  0.000745 -0.001089 -0.000779  0.001290  0.000951 -0.002590
                                 0.004316  0.046846  0.156295  0.246479  0.232160  0.004351  0.001929  0.050837  0.001401 -0.000162
                                 0.000038 -0.012603 -0.001156  0.000012  0.001564 -0.000045

  11.3   0     0.0442  -16.5206  0.000000  0.000000  0.000000  0.000001  0.000002  0.000004  0.000009  0.000022  0.000051  0.000132
                                 0.000306  0.000807  0.001396  0.001021  0.001964  0.004919 -0.000023 -0.005192 -0.024162  0.006076
                                -0.022750  0.477177 -0.810055  1.299753 -1.382333  0.693267 -0.786829  0.955156 -0.653176  0.382799
                                -0.217594  1.244278  0.000000  0.000003  0.000016  0.000071  0.000281  0.000860  0.002278  0.004412
                                 0.006667  0.004031 -0.004836 -0.024932  0.037120 -0.076299  0.060057 -0.044309  0.064675 -0.065925
                                 0.118285  0.028229  0.054679 -0.032487  0.000002  0.000000  0.000011  0.000000  0.000078  0.000003
                                 0.000237  0.000009  0.000771  0.000030  0.001198  0.000048  0.002322  0.000093  0.000391  0.000019
                                 0.009302  0.000482 -0.022064 -0.001115  0.034179  0.001589 -0.040108 -0.001850  0.028853  0.001835
                                -0.030228 -0.000483  0.020198  0.002065 -0.000532  0.000089  0.000968 -0.000016 -0.001016  0.000228
                                -0.001672 -0.016713 -0.052045 -0.090063 -0.082840 -0.001025 -0.000585 -0.299618 -0.000463 -0.004890
                                -0.000045  0.023811  0.000501  0.000019 -0.001438 -0.000083

  12.3   0     0.1648  -19.3610  0.000000  0.000000  0.000000  0.000001  0.000003  0.000006  0.000015  0.000036  0.000092  0.000210
                                 0.000581  0.001173  0.003769 -0.003231  0.008938  0.004327  0.006491 -0.021521 -0.014526 -0.056043
                                 0.181283 -1.297024  2.543783 -3.993700  4.316321 -2.409468  2.090369 -3.052623  1.914988 -0.804453
                                 2.049379 -1.534149  0.000001  0.000003  0.000020  0.000084  0.000366  0.001018  0.002995  0.005081
                                 0.009325  0.002480  0.001465 -0.072833  0.270165 -0.436829  0.443284 -0.332449  0.256109 -0.501895
                                 0.525574 -0.100883  0.268245 -0.600503  0.000001  0.000000  0.000009  0.000000  0.000047  0.000003
                                 0.000193  0.000010  0.000457  0.000033  0.001052  0.000051  0.001086  0.000110  0.001873  0.000004
                                -0.003322  0.000705  0.009345 -0.001652 -0.015704  0.002281  0.012963 -0.002626 -0.012579  0.002720
                                 0.001327 -0.000264  0.034218  0.003497  0.001072  0.000059 -0.002456  0.000100  0.002483  0.000170
                                -0.000673 -0.010006 -0.040922 -0.046639 -0.168479 -0.001877 -0.000593  0.229167 -0.001670 -0.012673
                                -0.000125  0.039002  0.000418  0.000028 -0.001562 -0.000115

                                   1 3d2-    1 3d2-    1 3d2-    1 3d2-    1 3d2-    1 3d2-    1 3d2-    1 3d2-    1 3d2-    1 3d2- 
                                   1 3d2-    1 3d2-    1 3d2-    1 3d2-    1 3d2-    1 3d2-    1 3d2-    1 3d2-    1 3d2-    1 3d2- 
                                   1 3d2-    1 3d2-    1 4f2-    1 4f2-    1 4f2-    1 4f2-    1 4f2-    1 4f2-    1 4f2-    1 4f2- 
                                   1 4f2-    1 4f2-    1 4f2-    1 4f2-    1 4f2-    1 4f2-    1 4f2-    1 5g2-    1 5g4-    1 5g2- 
                                   1 5g4-    1 5g2-    1 5g4-    2 3d2-    2 3d2-    2 3d2-    2 3d2-    2 4f2-    2 4f2- 

   1.4   2   -77.9328 -399.2598  0.000023  0.000139  0.000775  0.003570  0.013712  0.042423  0.107387  0.212869  0.316984  0.314265
                                 0.165423  0.039798 -0.002992  0.006356 -0.001645  0.001194 -0.000145  0.000207 -0.000131  0.000009
                                -0.000004  0.000001 -0.000000 -0.000000 -0.000001 -0.000002 -0.000011 -0.000007 -0.000001 -0.000003
                                 0.000002 -0.000003  0.000003 -0.000002  0.000001 -0.000000  0.000000 -0.000001  0.000000  0.000001
                                -0.000000 -0.000000  0.000000  0.000000  0.000000  0.000000  0.000000 -0.000000 -0.000000

   2.4   2   -12.1405 -166.6152 -0.000011 -0.000071 -0.000396 -0.001829 -0.007082 -0.022101 -0.056985 -0.113590 -0.164743 -0.123705
                                 0.108834  0.363926  0.028515  0.382571  0.028859  0.197728  0.045440 -0.007024  0.006368 -0.000195
                                 0.000105 -0.000017 -0.000000 -0.000001 -0.000003 -0.000013 -0.000032 -0.000072 -0.000119 -0.000193
                                -0.000080  0.000017 -0.000027 -0.000007 -0.000012 -0.000005 -0.000000  0.000195  0.000000 -0.000118
                                -0.000000  0.000048  0.000000  0.000000 -0.000002 -0.000000 -0.000005 -0.000001  0.000005

   3.4   2    -3.0849 -139.7137 -0.000000 -0.000000 -0.000000 -0.000001 -0.000005 -0.000016 -0.000040 -0.000080 -0.000115 -0.000086
                                 0.000106  0.000289  0.000171  0.000063  0.000169 -0.000095 -0.000010 -0.000231 -0.000320 -0.000371
                                -0.000063  0.000000  0.000217  0.002022  0.011520  0.041987  0.112598  0.222660  0.305330  0.311456
                                 0.222707  0.006041  0.096126  0.003637  0.018636 -0.000795  0.000750 -0.000539 -0.000000  0.000478
                                 0.000000 -0.000553 -0.000000  0.000029  0.000204  0.000002 -0.000039 -0.000047 -0.000110

   4.4   +    -0.5452  -56.9304  0.000003  0.000020  0.000115  0.000529  0.002054  0.006408  0.016605  0.033048  0.047907  0.032925
                                -0.044537 -0.132193  0.000812 -0.146238 -0.003380  0.005158  0.259866  0.004234  0.411356  0.350714
                                 0.155957  0.018385  0.000001  0.000008  0.000046  0.000172  0.000454  0.000905  0.001175  0.001221
                                 0.000067  0.001148 -0.001584 -0.000212 -0.005324 -0.007364 -0.011904  0.002891 -0.000000 -0.004701
                                 0.000000  0.006967 -0.000000  0.001070  0.004203  0.000052  0.003269 -0.000741 -0.001975

   5.4   0     0.1926  -16.3023 -0.000001 -0.000003 -0.000025 -0.000086 -0.000455 -0.001023 -0.003797 -0.004735 -0.013146  0.003527
                                -0.020378  0.186935 -0.864602  1.346522 -1.417748  1.063955 -0.720926  1.583364 -1.500151  0.432853
                                -0.651225  1.321555 -0.000000  0.000006 -0.000009  0.000101 -0.000101  0.000689 -0.001047  0.004067
                                -0.023865  0.061305 -0.100387  0.109052 -0.094716  0.069158 -0.049045 -0.000223 -0.000000  0.000163
                                -0.000000 -0.000728 -0.000000 -0.000262  0.011598  0.000092 -0.015466  0.001052 -0.002698

   6.4   0     0.5537  -22.5075  0.000000  0.000002  0.000006  0.000041  0.000104  0.000509  0.000790  0.002881  0.001258  0.006684
                                -0.016452  0.066721 -0.404619  0.608622 -0.667998  0.504252 -0.301769  0.774301 -0.669506  0.287290
                                -0.369179  0.154124  0.000000 -0.000172 -0.000218 -0.003231 -0.001962 -0.019854  0.009147 -0.083221
                                 0.435159 -1.135078  1.888860 -2.076590  1.918623 -1.420436  1.353327 -0.003900  0.000000  0.008802
                                -0.000000 -0.007336  0.000000  0.013688 -0.003547  0.000187  0.145635 -0.004666  0.001638

 HOMO     20.1    -0.354872 =      -9.6566eV
 LUMO     21.1    -0.017976 =      -0.4892eV
 LUMO-HOMO         0.336896 =       9.1674eV


 **********************************************************************************************************************************
 DATASETS  * FILE   NREC   LENGTH (MB)   RECORD NAMES
              1      22       23.93       500      610      700      900      950      970     1000      129      960     1700   
                                          VAR    BASINP    GEOM    SYMINP    ZMAT    AOBASIS   BASIS     P2S    ABASIS    OPER   
                                         1101     1401     1411     1412     1650     1100     1400     1410     1200     1210   
                                          SR      EKINR    POTR     PVPR    MOLCAS      S      EKIN      POT      H0       H01  
                                         1080     1600   
                                         AOSYM     SMH  

              2       5        9.37       700     1000      520     2100     2101   
                                         GEOM     BASIS   MCVARS     RHF      RHF  

 PROGRAMS   *        TOTAL       RHF       RHF       INT
 CPU TIMES  *       192.37     11.45      7.76    172.73
 REAL TIME  *       205.25 SEC
 DISK USED  *        11.05 GB      
 SF USED    *         0.24 MB      
 GA USED    *         0.00 MB       (max)       0.00 MB       (current)
 **********************************************************************************************************************************
 SETTING SCF(1)         =    -17901.81329222  AU                              
 SETTING _CC_NORM_MAX   =         2.00000000                                  
 Output type csv         
                                                                                                                                                                                                                                                                

     Z,SCF
   1.7,   -17901.81329
                                                  

 RHF/USERDEF energy= -17901.813292215655

        RHF-SCF         RHF-SCF 
 -17901.81329222 -17899.67835387
 **********************************************************************************************************************************
 Molpro calculation terminated
 Variable memory released
