
 Primary working directories    : /global/cscratch1/sd/bkincaid
 Secondary working directories  : /global/cscratch1/sd/bkincaid
 Wavefunction directory         : /global/homes/b/bkincaid/wfu/
 Main file repository           : /global/cscratch1/sd/bkincaid/

 SHA1      : 19cd028119e0e09f93f0674bd8af7968d9b3eff6
 NAME      : 2015.1.36
 ARCHNAME  : linux/x86_64
 FC        : /opt/cray/pe/craype/2.5.14/bin/ftn
 BLASLIB   : -L/opt/intel/compilers_and_libraries_2018.1.163/linux/mkl/lib/intel64 -Wl,-_start-group -lmkl_intel_ilp64 -lmkl_intel_thread -lmkl_core -Wl,-_end-group -liomp5
 id        : lbl

 Nodes     nprocs
 nid12969    11
 Number of processes for MPI-2 version of Molpro:   nprocs(total)=   12   nprocs(compute)=   11   nprocs(helper)=    1

 Using customized tuning parameters: mindgm=7; mindgv=16; mindgc=1; mindgr=1; noblas=0; minvec=7
 default implementation of scratch files=sf  

 ***,Calculation for IrO groundstate
 memory,1024,m
 gthresh,twoint=1.0E-15
 gthresh,throvl=1.0E-15
                                                                                 !symmetry,nosym
 
 basis={
 Including file /global/u1/b/bkincaid/molpro/Ir/molecules/tz/IrO/ecps/bk1.9/bk1.9
 
 Including file /global/u1/b/bkincaid/molpro/Ir/molecules/tz/IrO/ecps/bk1.9/tz.basis
 
 ecp,O,2,1,0
 3
 1,  12.30997,  6.000000
 3,  14.76962,  73.85984
 2,  13.71419, -47.87600
 1
 2,  13.65512,  85.86406
 
 Including file /global/u1/b/bkincaid/molpro/Ir/molecules/tz/IrO/ecps/bk1.9/O-aug-cc-CVTZ.basis
 }
 
 ne = 23
 
 A1=6
 B1=2
 B2=3
 A2=1
 
 
 do i=1,1
         if(i.eq.1) then
                 z(i) = 1.500
         else if(i.eq.2) then
                 z(i) = 1.600
         else if(i.eq.3) then
                 z(i) = 1.700
         else if(i.eq.4) then
                 z(i) = 1.800
         else if(i.eq.5) then
                 z(i) = 1.900
         endif
 
 geometry={
 2
 IrO
 Ir 0.0 0.0 0.0
 O 0.0 0.0 z(i)
 }
 
 
 {rhf,maxdis=35,iptyp='DIIS',nitord=30,maxit=60; shift,-1.0,-0.5
 wf,nelec=ne,spin=1,sym=4
 occ,A1,B1,B2,A2
 closed,A1,B1,B2,A2-1
 print,orbitals=2
         }
 scf(i)=energy
 {rccsd(t),shifts=0.2,shiftp=0.2,thrdis=1.0;diis,1,1,15,1;maxit,100;core}
 ccsd(i)=energy
 enddo
 
 table,z,scf,ccsd
 save
 type,csv
 

 Variables initialized (889), CPU time= 0.00 sec
 Commands  initialized (702), CPU time= 0.01 sec, 572 directives.
 Default parameters read. Elapsed time= 0.16 sec

 Checking input...
 Passed
1


                                         ***  PROGRAM SYSTEM MOLPRO  ***
                                       Copyright, TTI GmbH Stuttgart, 2015
                                    Version 2015.1 linked Dec 29 2018 15:55:43


 **********************************************************************************************************************************
 LABEL *   Calculation for IrO groundstate                                               
  64 bit mpp version                                                                     DATE: 14-Mar-21          TIME: 13:57:28  
 **********************************************************************************************************************************

 SHA1:             19cd028119e0e09f93f0674bd8af7968d9b3eff6
 **********************************************************************************************************************************

 THRESHOLDS:

 ZERO    =  1.00D-12  ONEINT  =  1.00D-12  TWOINT  =  1.00D-15  PREFAC  =  1.00D-14  LOCALI  =  1.00D-09  EORDER  =  1.00D-04
 ENERGY  =  0.00D+00  ETEST   =  0.00D+00  EDENS   =  0.00D+00  THRDEDEF=  1.00D-06  GRADIENT=  1.00D-02  STEP    =  1.00D-03
 ORBITAL =  1.00D-05  CIVEC   =  1.00D-05  COEFF   =  1.00D-04  PRINTCI =  5.00D-02  PUNCHCI =  9.90D+01  OPTGRAD =  3.00D-04
 OPTENERG=  1.00D-06  OPTSTEP =  3.00D-04  THRGRAD =  1.00D-10  COMPRESS=  1.00D-11  VARMIN  =  1.00D-07  VARMAX  =  1.00D-03
 THRDOUB =  0.00D+00  THRDIV  =  1.00D-05  THRRED  =  1.00D-07  THRPSP  =  1.00D+00  THRDC   =  1.00D-10  THRCS   =  1.00D-10
 THRNRM  =  1.00D-08  THREQ   =  0.00D+00  THRDE   =  1.00D+00  THRREF  =  1.00D-05  SPARFAC =  1.00D+00  THRDLP  =  1.00D-07
 THRDIA  =  1.00D-10  THRDLS  =  1.00D-07  THRGPS  =  0.00D+00  THRKEX  =  0.00D+00  THRDIS  =  2.00D-01  THRVAR  =  1.00D-10
 THRLOC  =  1.00D-06  THRGAP  =  1.00D-06  THRLOCT = -1.00D+00  THRGAPT = -1.00D+00  THRORB  =  1.00D-06  THRMLTP =  0.00D+00
 THRCPQCI=  1.00D-10  KEXTA   =  0.00D+00  THRCOARS=  0.00D+00  SYMTOL  =  1.00D-06  GRADTOL =  1.00D-06  THROVL  =  1.00D-08
 THRORTH =  1.00D-08  GRID    =  1.00D-06  GRIDMAX =  1.00D-03  DTMAX   =  0.00D+00  THROCCDE=  1.00D-01  THROCCDE=  1.00D-01



 THRESHOLDS:

 ZERO    =  1.00D-12  ONEINT  =  1.00D-12  TWOINT  =  1.00D-15  PREFAC  =  1.00D-14  LOCALI  =  1.00D-09  EORDER  =  1.00D-04
 ENERGY  =  0.00D+00  ETEST   =  0.00D+00  EDENS   =  0.00D+00  THRDEDEF=  1.00D-06  GRADIENT=  1.00D-02  STEP    =  1.00D-03
 ORBITAL =  1.00D-05  CIVEC   =  1.00D-05  COEFF   =  1.00D-04  PRINTCI =  5.00D-02  PUNCHCI =  9.90D+01  OPTGRAD =  3.00D-04
 OPTENERG=  1.00D-06  OPTSTEP =  3.00D-04  THRGRAD =  1.00D-10  COMPRESS=  1.00D-11  VARMIN  =  1.00D-07  VARMAX  =  1.00D-03
 THRDOUB =  0.00D+00  THRDIV  =  1.00D-05  THRRED  =  1.00D-07  THRPSP  =  1.00D+00  THRDC   =  1.00D-10  THRCS   =  1.00D-10
 THRNRM  =  1.00D-08  THREQ   =  0.00D+00  THRDE   =  1.00D+00  THRREF  =  1.00D-05  SPARFAC =  1.00D+00  THRDLP  =  1.00D-07
 THRDIA  =  1.00D-10  THRDLS  =  1.00D-07  THRGPS  =  0.00D+00  THRKEX  =  0.00D+00  THRDIS  =  2.00D-01  THRVAR  =  1.00D-10
 THRLOC  =  1.00D-06  THRGAP  =  1.00D-06  THRLOCT = -1.00D+00  THRGAPT = -1.00D+00  THRORB  =  1.00D-06  THRMLTP =  0.00D+00
 THRCPQCI=  1.00D-10  KEXTA   =  0.00D+00  THRCOARS=  0.00D+00  SYMTOL  =  1.00D-06  GRADTOL =  1.00D-06  THROVL  =  1.00D-15
 THRORTH =  1.00D-08  GRID    =  1.00D-06  GRIDMAX =  1.00D-03  DTMAX   =  0.00D+00  THROCCDE=  1.00D-01  THROCCDE=  1.00D-01



 Variable memory set to 1024000000 words,  buffer space   230000 words

 SETTING BASIS          =    USERDEF
 SETTING NE             =        23.00000000                                  
 SETTING A1             =         6.00000000                                  
 SETTING B1             =         2.00000000                                  
 SETTING B2             =         3.00000000                                  
 SETTING A2             =         1.00000000                                  

 DO I                   =         1.00000000   
 SETTING Z(1)           =         1.50000000                                  

Geometry recognized as XYZ



 Recomputing integrals since basis changed


 Using spherical harmonics



 PROGRAM * SEWARD (Integral evaluation for generally contracted gaussian basis sets)     Author: Roland Lindh, 1990

 Geometry written to block  1 of record 700


 Point group  C2v 



 ATOMIC COORDINATES

 NR  ATOM    CHARGE       X              Y              Z

   1  IR     17.00    0.000000000    0.000000000    0.000000000
   2  O       6.00    0.000000000    0.000000000    2.834589187

 Bond lengths in Bohr (Angstrom)

 1-2  2.834589187
     ( 1.500000000)

 NUCLEAR CHARGE:                   23
 NUMBER OF PRIMITIVE AOS:         556
 NUMBER OF SYMMETRY AOS:          455
 NUMBER OF CONTRACTIONS:          455   ( 186A1  + 109B1  + 109B2  +  51A2  )
 NUMBER OF CORE ORBITALS:           4   (   2A1  +   1B1  +   1B2  +   0A2  )
 NUMBER OF VALENCE ORBITALS:       10   (   5A1  +   2B1  +   2B2  +   1A2  )


 NUCLEAR REPULSION ENERGY   35.98405034

 EXTRA SYMMETRY OF AOS IN SYMMETRY 1:   1 1 1 1 1 1 1 1 1 1   1 1 1 1 1 1 1 1 1 1   1 1 1 1 1 1 1 1 1 1   1 1 1 1 1 1 1 1 1 1
                                        1 1 1 1 1 1 1 1 1 1   1 1 1 1 1 1 1 1 1 1   1 1 1 1 1 1 1 2 1 2   1 2 1 2 1 2 1 2 1 2
                                        1 2 1 2 1 2 1 2 1 2   1 2 1 2 1 2 1 2 1 2   1 2 1 2 1 2 1 2 1 2   1 2 1 2 1 2 1 2 1 2
                                        1 2 1 2 1 2 1 2 1 2   1 2 1 2 1 2 1 2 1 2   1 2 1 2 1 3 2 1 3 2   1 3 2 1 1 1 1 1 1 1
                                        1 1 1 1 1 1 1 1 1 1   1 1 1 1 1 2 1 2 1 2   1 2 1 2 1 2
 EXTRA SYMMETRY OF AOS IN SYMMETRY 2:   1 1 1 1 1 1 1 1 1 1   1 1 1 1 1 1 1 1 1 1   1 1 1 1 1 1 1 1 1 1   1 1 1 1 1 1 1 1 1 1
                                        1 1 1 1 1 1 1 1 1 1   1 1 1 1 2 1 2 1 2 1   2 1 2 1 2 1 2 1 2 1   2 1 2 1 2 1 2 1 2 1
                                        2 1 2 1 2 1 2 1 2 1   2 1 2 1 1 1 1 1 1 1   1 1 1 1 1 1 2 1 2
 EXTRA SYMMETRY OF AOS IN SYMMETRY 3:   1 1 1 1 1 1 1 1 1 1   1 1 1 1 1 1 1 1 1 1   1 1 1 1 1 1 1 1 1 1   1 1 1 1 1 1 1 1 1 1
                                        1 1 1 1 1 1 1 1 1 1   1 1 1 1 2 1 2 1 2 1   2 1 2 1 2 1 2 1 2 1   2 1 2 1 2 1 2 1 2 1
                                        2 1 2 1 2 1 2 1 2 1   2 1 2 1 1 1 1 1 1 1   1 1 1 1 1 1 2 1 2
 EXTRA SYMMETRY OF AOS IN SYMMETRY 4:   1 1 1 1 1 1 1 1 1 1   1 1 1 1 1 1 1 1 1 1   1 1 1 1 1 1 1 1 1 1   1 1 1 1 1 1 1 1 1 1
                                        2 1 2 1 2 1 1 1 1 1   1

 Eigenvalues of metric

         1 0.666E-07 0.913E-06 0.334E-05 0.942E-05 0.155E-04 0.157E-04 0.247E-04 0.409E-04
         2 0.898E-07 0.370E-05 0.152E-04 0.517E-04 0.539E-04 0.125E-03 0.139E-03 0.432E-03
         3 0.898E-07 0.370E-05 0.152E-04 0.517E-04 0.539E-04 0.125E-03 0.139E-03 0.432E-03
         4 0.155E-04 0.538E-04 0.146E-03 0.607E-03 0.970E-03 0.207E-02 0.546E-02 0.578E-02


 Contracted 2-electron integrals neglected if value below      1.0D-15

 Warning: maximum contribution to expansion of local PP integrals   0.5D+07
 AO integral compression algorithm  1   Integral accuracy      1.0D-15

     4915.986 MB (compressed) written to integral file ( 38.4%)

     Node minimum: 272.105 MB, node maximum: 913.834 MB


 NUMBER OF SORTED TWO-ELECTRON INTEGRALS:  125132898.     BUFFER LENGTH:  32768
 NUMBER OF SEGMENTS:   4  SEGMENT LENGTH:   31982049      RECORD LENGTH: 524288

 Memory used in sort:      32.54 MW

 SORT1 READ  1600176772. AND WROTE    49745475. INTEGRALS IN    144 RECORDS. CPU TIME:    23.06 SEC, REAL TIME:    31.56 SEC
 SORT2 READ   545769642. AND WROTE  1376419418. INTEGRALS IN  17710 RECORDS. CPU TIME:     2.30 SEC, REAL TIME:     3.34 SEC

 Node minimum:   125060912.  Node maximum:   125200036. integrals

 OPERATOR DM      FOR CENTER  0  COORDINATES:    0.000000    0.000000    0.000000


 **********************************************************************************************************************************
 DATASETS  * FILE   NREC   LENGTH (MB)   RECORD NAMES
              1      19       22.49       500      610      700      900      950      970     1000      129      960     1100   
                                          VAR    BASINP    GEOM    SYMINP    ZMAT    AOBASIS   BASIS     P2S    ABASIS      S 
                                         1400     1410     1420     1200     1210     1080     1600     1650     1700   
                                           T        V       ECP      H0       H01     AOSYM     SMH    MOLCAS    OPER   

 PROGRAMS   *        TOTAL       INT
 CPU TIMES  *       205.46    205.33
 REAL TIME  *       218.47 SEC
 DISK USED  *        11.46 GB      
 GA USED    *         0.00 MB       (max)       0.00 MB       (current)
 **********************************************************************************************************************************


 PROGRAM * RHF-SCF (OPEN SHELL)       Authors: W. Meyer, H.-J. Werner


 NUMBER OF ELECTRONS:      12+   11-    SPACE SYMMETRY=4    SPIN SYMMETRY: Doublet 
 CONVERGENCE THRESHOLDS:    1.00E-05 (Density)    1.00E-07 (Energy)
 MAX. NUMBER OF ITERATIONS:       60
 INTERPOLATION TYPE:            DIIS
 INTERPOLATION STEPS:              2 (START)      1 (STEP)
 LEVEL SHIFTS:                 -1.00 (CLOSED) -0.50 (OPEN) 

 Number of closed-shell orbitals:   11 (   6   2   3   0 )
 Number of open-shell orbitals:      1 (   0   0   0   1 )


 Orbital guess generated from atomic densities. Full valence occupancy:    7   3   3   1

 Molecular orbital dump at record        2100.2

 ITERATION    DDIFF          GRAD             ENERGY        2-EL.EN.            DIPOLE MOMENTS         DIIS   ORB.
    1      0.000D+00      0.000D+00      -119.37715449    246.578136    0.00000    0.00000   -1.62757    0    start
    2      0.000D+00      0.486D-02      -119.40221802    245.256562    0.00000    0.00000   -1.20442    1    diag,B
    3      0.354D-02      0.155D-02      -119.40726741    245.185880    0.00000    0.00000   -1.16152    2    diag,B
    4      0.226D-02      0.836D-03      -119.41003908    245.033332    0.00000    0.00000   -1.08059    3    diag,B
    5      0.325D-02      0.518D-03      -119.41182743    244.870037    0.00000    0.00000   -1.02766    4    diag,B
    6      0.310D-02      0.325D-03      -119.41283492    244.719861    0.00000    0.00000   -0.97113    5    diag,B
    7      0.201D-02      0.188D-03      -119.41323030    244.605881    0.00000    0.00000   -0.92791    6    diag,B
    8      0.828D-03      0.103D-03      -119.41334812    244.553026    0.00000    0.00000   -0.90011    7    diag,B
    9      0.756D-03      0.576D-04      -119.41338594    244.525695    0.00000    0.00000   -0.88463    8    diag,B
   10      0.381D-03      0.311D-04      -119.41339672    244.514043    0.00000    0.00000   -0.87792    9    orth
   11      0.245D-03      0.193D-04      -119.41340144    244.507027    0.00000    0.00000   -0.87463   10    diag,B
   12      0.203D-03      0.116D-04      -119.41340334    244.503718    0.00000    0.00000   -0.87280   11    diag,B
   13      0.102D-03      0.610D-05      -119.41340382    244.502510    0.00000    0.00000   -0.87177   12    diag,B
   14      0.632D-04      0.356D-05      -119.41340394    244.502136    0.00000    0.00000   -0.87121   13    diag,B
   15      0.343D-04      0.217D-05      -119.41340398    244.501899    0.00000    0.00000   -0.87080   14    diag,B
   16      0.169D-04      0.156D-05      -119.41340399    244.501807    0.00000    0.00000   -0.87064   15    diag,B
   17      0.592D-05      0.109D-05      -119.41340400    244.501768    0.00000    0.00000   -0.87058    0    orth

 Final alpha occupancy:   6   2   3   1
 Final beta  occupancy:   6   2   3   0

 !RHF STATE 1.4 Energy               -119.413403996398
 Nuclear energy                        35.98405034
 One-electron energy                 -277.64833839
 Two-electron energy                  122.25088405
 Virial quotient                       -2.53243004
 !RHF STATE 1.4 Dipole moment           0.00000000     0.00000000    -0.87058251
 Dipole moment /Debye                   0.00000000     0.00000000    -2.21265510

 ELECTRON ORBITALS
 =================


   Orb  Occ    Energy  Couls-En    Coefficients

                                   1 1s      1 1s      1 1s      1 1s      1 1s      1 1s      1 1s      1 1s      1 1s      1 1s   
                                   1 1s      1 1s      1 1s      1 1s      1 1s      1 1s      1 1s      1 1s      1 1s      1 1s   
                                   1 1s      1 1s      1 1s      1 1s      1 1s      1 1s      1 1s      1 1s      1 1s      1 1s   
                                   1 1s      1 1s      1 1s      1 1s      1 1s      1 2pz     1 2pz     1 2pz     1 2pz     1 2pz  
                                   1 2pz     1 2pz     1 2pz     1 2pz     1 2pz     1 2pz     1 2pz     1 2pz     1 2pz     1 2pz  
                                   1 2pz     1 2pz     1 2pz     1 2pz     1 2pz     1 2pz     1 2pz     1 2pz     1 2pz     1 2pz  
                                   1 2pz     1 2pz     1 2pz     1 2pz     1 2pz     1 2pz     1 3d0     1 3d2+    1 3d0     1 3d2+ 
                                   1 3d0     1 3d2+    1 3d0     1 3d2+    1 3d0     1 3d2+    1 3d0     1 3d2+    1 3d0     1 3d2+ 
                                   1 3d0     1 3d2+    1 3d0     1 3d2+    1 3d0     1 3d2+    1 3d0     1 3d2+    1 3d0     1 3d2+ 
                                   1 3d0     1 3d2+    1 3d0     1 3d2+    1 3d0     1 3d2+    1 3d0     1 3d2+    1 3d0     1 3d2+ 
                                   1 3d0     1 3d2+    1 3d0     1 3d2+    1 3d0     1 3d2+    1 3d0     1 3d2+    1 3d0     1 3d2+ 
                                   1 4f0     1 4f2+    1 4f0     1 4f2+    1 4f0     1 4f2+    1 4f0     1 4f2+    1 4f0     1 4f2+ 
                                   1 4f0     1 4f2+    1 4f0     1 4f2+    1 4f0     1 4f2+    1 4f0     1 4f2+    1 4f0     1 4f2+ 
                                   1 4f0     1 4f2+    1 4f0     1 4f2+    1 4f0     1 4f2+    1 4f0     1 4f2+    1 4f0     1 4f2+ 
                                   1 4f0     1 4f2+    1 4f0     1 4f2+    1 5g0     1 5g4+    1 5g2+    1 5g0     1 5g4+    1 5g2+ 
                                   1 5g0     1 5g4+    1 5g2+    2 1s      2 1s      2 1s      2 1s      2 1s      2 1s      2 1s   
                                   2 1s      2 1s      2 1s      2 1s      2 1s      2 1s      2 2pz     2 2pz     2 2pz     2 2pz  
                                   2 2pz     2 2pz     2 2pz     2 2pz     2 3d0     2 3d2+    2 3d0     2 3d2+    2 3d0     2 3d2+ 
                                   2 3d0     2 3d2+    2 4f0     2 4f2+    2 4f0     2 4f2+ 

   1.1   2    -4.3016  -21.1039 -0.000000  0.000000 -0.000000  0.000000 -0.000000  0.000000 -0.000000  0.000000 -0.000000  0.000000
                                -0.000001  0.000003 -0.000009  0.000023 -0.000058  0.000145 -0.000360  0.000884 -0.002143  0.005118
                                -0.012061  0.028045 -0.058553  0.038078  0.369606 -1.101742  0.668396 -0.685575  1.059653 -0.160029
                                 0.616265  0.011135 -0.014702 -0.002169  0.000268  0.000000 -0.000000  0.000000 -0.000000  0.000000
                                -0.000000  0.000000 -0.000000  0.000000 -0.000000  0.000000 -0.000000  0.000000 -0.000000  0.000000
                                -0.000001  0.000004 -0.000017  0.000058  0.000115 -0.000944  0.002396 -0.005268  0.010073 -0.250879
                                 0.253862 -0.008786 -0.010843 -0.005187 -0.000560  0.000189  0.000000 -0.000000 -0.000000  0.000000
                                 0.000000 -0.000000 -0.000000  0.000000  0.000000 -0.000000 -0.000001  0.000000  0.000002 -0.000001
                                -0.000004  0.000002  0.000009 -0.000004 -0.000018  0.000010  0.000026 -0.000034  0.000042  0.000190
                                 0.000180 -0.000580 -0.003327 -0.000735  0.003385  0.000852  0.001012  0.003177  0.003493  0.000261
                                 0.003789  0.001503 -0.005787 -0.000212 -0.004145 -0.000116 -0.000825  0.000001  0.000037 -0.000002
                                 0.000000 -0.000000 -0.000000  0.000000  0.000000 -0.000000 -0.000002  0.000000  0.000004 -0.000001
                                -0.000015 -0.000003  0.000022 -0.000018 -0.000144 -0.000059  0.000554  0.000159 -0.000663 -0.000225
                                -0.001359 -0.000531  0.002047 -0.000702 -0.000919  0.000251 -0.002079  0.000060 -0.001055  0.000094
                                 0.000263 -0.000038 -0.000090  0.000015  0.000037  0.000049 -0.000114  0.000637  0.000766 -0.000709
                                -0.001135  0.000370 -0.000439 -0.000000  0.000000 -0.000001  0.000008 -0.000078 -0.001116 -0.003294
                                 0.011415  0.001850  0.017434  0.000179  0.001064  0.010952 -0.000132 -0.001408 -0.004186 -0.010709
                                -0.008441 -0.000119  0.000034 -0.001989  0.001429  0.000053  0.003745  0.000475  0.000053  0.000002
                                 0.000879  0.000154 -0.000993 -0.000132 -0.000146 -0.000271

   2.1   2    -2.5496  -17.3316  0.000000 -0.000000  0.000000 -0.000000  0.000000 -0.000000  0.000000 -0.000000  0.000000 -0.000000
                                 0.000000 -0.000000  0.000000 -0.000000  0.000000 -0.000001  0.000002 -0.000005  0.000013 -0.000033
                                 0.000087 -0.000230  0.000475  0.000930 -0.012756  0.042593 -0.094478  0.108001 -0.089582  0.093572
                                -0.064842 -0.039919 -0.033098 -0.013377  0.001938  0.000000 -0.000000  0.000000 -0.000000  0.000000
                                -0.000000  0.000000 -0.000000  0.000001 -0.000002  0.000006 -0.000017  0.000046 -0.000120  0.000298
                                -0.000742  0.001950 -0.005946  0.016996  0.002579 -0.107319 -0.220173  0.085609  0.349818 -0.533492
                                 1.085081  0.221026 -0.006038 -0.019383 -0.002143  0.000565  0.000000  0.000000 -0.000000 -0.000000
                                 0.000000  0.000000 -0.000000 -0.000000  0.000002  0.000000 -0.000005 -0.000000  0.000016  0.000000
                                -0.000040 -0.000001  0.000092  0.000002 -0.000198 -0.000004  0.000425  0.000015 -0.001036 -0.000102
                                 0.005188  0.000409 -0.017427  0.000162  0.017802 -0.000318 -0.014874 -0.001667  0.030122 -0.001013
                                -0.015853 -0.001232 -0.010113  0.001286 -0.009526  0.001032 -0.003445  0.000058 -0.000094  0.000012
                                 0.000000  0.000000 -0.000000 -0.000000  0.000002  0.000000 -0.000006 -0.000000  0.000020  0.000001
                                -0.000021 -0.000011  0.000201 -0.000018 -0.000110 -0.000068  0.000795  0.000004  0.000251 -0.000252
                                -0.003721  0.000376  0.014112 -0.001798 -0.007008 -0.000252 -0.002074 -0.001807 -0.003434 -0.000387
                                 0.000886  0.000045 -0.000606 -0.000017  0.000731 -0.000009  0.000087  0.001390 -0.000020  0.000119
                                -0.001760  0.000010  0.000736 -0.000000  0.000001 -0.000008  0.000050 -0.000517 -0.007621 -0.024391
                                 0.078010  0.019008  0.072179  0.000550  0.007309  0.039667 -0.000816 -0.008688 -0.027274 -0.054413
                                -0.038044 -0.000675  0.000211 -0.006004  0.005504  0.000123  0.016951  0.000957  0.000215 -0.000009
                                 0.006227  0.000443 -0.003258 -0.000396 -0.002611 -0.000510

   3.1   2    -1.3390  -12.6274  0.000000 -0.000000  0.000000 -0.000000  0.000000 -0.000000  0.000000 -0.000000  0.000000 -0.000000
                                 0.000000 -0.000000  0.000001 -0.000003  0.000008 -0.000019  0.000047 -0.000116  0.000282 -0.000674
                                 0.001595 -0.003737  0.007934 -0.005688 -0.049587  0.157746 -0.108386  0.113234 -0.182361 -0.050314
                                -0.011847 -0.014634 -0.092927 -0.025893  0.004188 -0.000000  0.000000 -0.000000  0.000000 -0.000000
                                 0.000000 -0.000000  0.000000 -0.000000  0.000000 -0.000001  0.000003 -0.000008  0.000021 -0.000054
                                 0.000142 -0.000410  0.001421 -0.004398 -0.002458  0.038407  0.036992  0.006696 -0.124962 -0.279688
                                 0.119815 -0.078681 -0.062425 -0.045185 -0.002612  0.001162 -0.000000 -0.000000  0.000000  0.000000
                                -0.000000 -0.000000  0.000000  0.000000 -0.000000 -0.000000  0.000000  0.000000 -0.000001 -0.000000
                                 0.000003  0.000001 -0.000012 -0.000001  0.000063  0.000002 -0.000384 -0.000001  0.003088 -0.000027
                                -0.007391  0.000013 -0.027090  0.000667  0.025133 -0.000634  0.042117 -0.000533  0.027839 -0.001919
                                 0.079784  0.001070  0.050176 -0.000159 -0.018465 -0.000096 -0.006990 -0.000293  0.001143  0.000009
                                 0.000000 -0.000000 -0.000000  0.000000  0.000000 -0.000000 -0.000001  0.000001  0.000009 -0.000001
                                 0.000066  0.000011  0.000276  0.000013  0.000537  0.000086 -0.000580 -0.000167  0.003955  0.000416
                                -0.007485 -0.000380  0.023660  0.001458 -0.005878  0.001592  0.007665  0.001939 -0.006000  0.001215
                                 0.000398 -0.000411  0.000438  0.000121  0.001805  0.000039  0.000013  0.004135 -0.000089  0.001340
                                -0.000173 -0.000137  0.000443 -0.000001  0.000006 -0.000047  0.000312 -0.003253 -0.048593 -0.159417
                                 0.550163  0.148619  0.431596 -0.003349  0.047017  0.106724 -0.001134 -0.011021 -0.031903 -0.076732
                                -0.090053 -0.000474  0.000307 -0.020959  0.003956 -0.000505  0.022235  0.000092  0.000152 -0.000130
                                 0.016612 -0.001494 -0.002765 -0.000458 -0.004061 -0.001074

   4.1   2    -0.6672  -11.1576 -0.000000  0.000000 -0.000000  0.000000 -0.000000  0.000000 -0.000000  0.000000 -0.000000  0.000000
                                -0.000000  0.000000 -0.000000  0.000001 -0.000003  0.000007 -0.000018  0.000044 -0.000106  0.000259
                                -0.000629  0.001535 -0.003269 -0.000053  0.039968 -0.134866  0.231297 -0.262448  0.259357 -0.187282
                                 0.150146  0.019383  0.100999  0.053692 -0.008931 -0.000000  0.000000 -0.000000  0.000000 -0.000000
                                 0.000000 -0.000000  0.000000 -0.000000  0.000000 -0.000000  0.000001 -0.000003  0.000007 -0.000015
                                 0.000025 -0.000008 -0.000244  0.001187  0.003239 -0.024394  0.019077 -0.042166  0.062501  1.121258
                                -1.068925  0.085297  0.032895  0.058954  0.009984 -0.003383 -0.000000 -0.000000  0.000000  0.000000
                                -0.000000 -0.000000  0.000000  0.000000 -0.000001 -0.000000  0.000004  0.000001 -0.000012 -0.000004
                                 0.000028  0.000011 -0.000052 -0.000027  0.000029  0.000069  0.000502 -0.000228 -0.006274  0.001256
                                 0.013368 -0.003779  0.078356 -0.004253 -0.076605  0.003725 -0.087812  0.018403 -0.106521  0.001810
                                -0.149388  0.028028 -0.165831  0.024223 -0.042310  0.009435  0.013723  0.000530 -0.000729 -0.000016
                                -0.000000  0.000000  0.000001 -0.000000 -0.000004  0.000000  0.000014 -0.000001 -0.000047  0.000001
                                 0.000014 -0.000008 -0.000586 -0.000002  0.000009 -0.000066 -0.001740  0.000213 -0.003266 -0.000550
                                 0.016214  0.000874 -0.045260 -0.001736  0.024561  0.000057 -0.017014 -0.001608  0.001427 -0.000776
                                 0.000637 -0.000066  0.001724 -0.000069 -0.002125  0.000194 -0.000364 -0.007122  0.000371 -0.001221
                                 0.001081  0.000667 -0.000569 -0.000000  0.000002 -0.000013  0.000084 -0.000869 -0.013709 -0.043708
                                 0.139947  0.047154  0.140667  0.001979  0.012761 -0.089945  0.007065  0.074467  0.241253  0.393770
                                 0.256853  0.004587 -0.001847  0.029226 -0.012142 -0.000423 -0.039818 -0.001072 -0.000484 -0.000050
                                -0.018235 -0.001008  0.005880  0.001383  0.007361  0.000638

   5.1   2    -0.4867  -11.4847  0.000000 -0.000000  0.000000 -0.000000  0.000000 -0.000000  0.000000 -0.000000  0.000000 -0.000000
                                 0.000000 -0.000000  0.000000 -0.000001  0.000003 -0.000007  0.000017 -0.000042  0.000103 -0.000246
                                 0.000584 -0.001372  0.002926 -0.002101 -0.018647  0.060465 -0.044157  0.046263 -0.079174  0.012355
                                -0.050410  0.058103  0.031167 -0.002613  0.000877  0.000000 -0.000000  0.000000 -0.000000  0.000000
                                -0.000000  0.000000 -0.000000  0.000000 -0.000000  0.000000 -0.000000  0.000001 -0.000002  0.000004
                                -0.000006  0.000003  0.000053 -0.000262 -0.000784  0.005856 -0.009573  0.018162 -0.025012  0.175342
                                -0.193853 -0.002777  0.018563  0.001274 -0.000945  0.000396  0.000000 -0.000000 -0.000000  0.000000
                                 0.000000 -0.000000 -0.000000  0.000001  0.000001 -0.000006 -0.000002  0.000019  0.000007 -0.000055
                                -0.000018  0.000146  0.000043 -0.000357 -0.000100  0.000924  0.000266 -0.003056 -0.001094  0.016912
                                 0.003892 -0.051149 -0.002455 -0.057184  0.003114  0.050937 -0.016838  0.245293  0.013038  0.017308
                                -0.031135  0.387381 -0.010497  0.347456 -0.007927  0.169506 -0.003914  0.026845  0.000271 -0.000847
                                 0.000000  0.000000 -0.000000 -0.000000  0.000000  0.000000 -0.000001 -0.000001  0.000005  0.000002
                                 0.000008 -0.000005  0.000083  0.000019  0.000059 -0.000047  0.000301  0.000411  0.000114 -0.001004
                                -0.000793  0.002274  0.004605 -0.003357 -0.001686  0.003601  0.006647 -0.004823  0.000771 -0.003075
                                -0.000962 -0.000349  0.000031 -0.000078  0.000692  0.001707  0.000302  0.001113  0.002917  0.002812
                                 0.001937  0.004100  0.003065  0.000000 -0.000000  0.000001 -0.000004  0.000047  0.000702  0.002499
                                -0.011194 -0.002954 -0.017739  0.000084 -0.000687  0.002239 -0.000954 -0.010026 -0.032487 -0.051336
                                -0.036550 -0.000596  0.000250 -0.004470  0.000441  0.002426  0.001740  0.008236  0.000014  0.000122
                                 0.000741  0.003613 -0.000187 -0.002091 -0.000327 -0.002156

   6.1   2    -0.3364   -8.7295  0.000000 -0.000000  0.000000 -0.000000  0.000000 -0.000000  0.000000 -0.000000  0.000000 -0.000000
                                 0.000000 -0.000001  0.000003 -0.000008  0.000019 -0.000048  0.000119 -0.000292  0.000709 -0.001696
                                 0.004014 -0.009420  0.020114 -0.015297 -0.121709  0.393835 -0.251719  0.260818 -0.483650  0.052897
                                -0.393292  0.312774  0.590842  0.188956 -0.001674  0.000000 -0.000000  0.000000 -0.000000  0.000000
                                -0.000000  0.000000 -0.000000  0.000000 -0.000000  0.000000 -0.000001  0.000002 -0.000004  0.000010
                                -0.000021  0.000041 -0.000062  0.000070 -0.000837  0.004166 -0.020196  0.029998 -0.026321  0.437480
                                -0.445244  0.012282 -0.024059 -0.043550 -0.007123  0.000645  0.000000  0.000000 -0.000000 -0.000000
                                 0.000000  0.000000 -0.000001 -0.000000  0.000002  0.000001 -0.000007 -0.000002  0.000020  0.000007
                                -0.000053 -0.000017  0.000130  0.000043 -0.000341 -0.000110  0.001154  0.000361 -0.006532 -0.001989
                                 0.019768  0.006086  0.022814  0.006455 -0.020072 -0.005896 -0.096331 -0.029408 -0.003475 -0.002008
                                -0.159468 -0.043589 -0.132316 -0.035415 -0.080676 -0.016428 -0.022305 -0.004542  0.001445 -0.000072
                                 0.000000 -0.000000 -0.000000  0.000000  0.000001 -0.000000 -0.000002  0.000001  0.000009 -0.000001
                                 0.000010  0.000015  0.000145  0.000023  0.000075  0.000132  0.000798 -0.000375 -0.001684  0.000835
                                 0.003746 -0.000626  0.000918  0.003013  0.003319  0.000521  0.009685  0.002582  0.006245  0.002270
                                -0.001482 -0.000081  0.002050  0.000246 -0.000163  0.000371 -0.000887 -0.001351 -0.000027 -0.001144
                                -0.000994 -0.000221 -0.001374  0.000000 -0.000001  0.000005 -0.000034  0.000339  0.005893  0.016055
                                -0.045401 -0.014810 -0.070416 -0.004005 -0.004982 -0.042776 -0.002106 -0.021748 -0.069448 -0.111106
                                -0.098686 -0.001130  0.000557 -0.026467 -0.002659 -0.000277 -0.006650 -0.000107 -0.000130  0.000002
                                 0.000186  0.000321  0.001574 -0.000157  0.000776 -0.001000

   7.1   0     0.0122   -3.7467  0.000000 -0.000000  0.000000 -0.000000  0.000000 -0.000000  0.000000 -0.000000  0.000000 -0.000000
                                 0.000000 -0.000000  0.000001 -0.000001  0.000004 -0.000009  0.000022 -0.000055  0.000132 -0.000314
                                 0.000733 -0.001685  0.003599 -0.004196 -0.010127  0.029465  0.067861 -0.087745  0.048721 -0.270175
                                 0.192423 -0.129792  0.560364  1.299646 -1.298135  0.000000 -0.000000  0.000000 -0.000000  0.000000
                                -0.000000  0.000000 -0.000000  0.000000 -0.000001  0.000002 -0.000005  0.000012 -0.000030  0.000070
                                -0.000152  0.000287 -0.000362  0.000153 -0.006366  0.034223 -0.137267  0.207355 -0.192471  2.903323
                                -2.990325  0.073206 -0.107362  0.818091 -0.125034  0.599758 -0.000000  0.000000  0.000000 -0.000000
                                -0.000000  0.000000  0.000001 -0.000000 -0.000003  0.000000  0.000010 -0.000001 -0.000029  0.000003
                                 0.000074 -0.000007 -0.000163  0.000017  0.000317 -0.000040 -0.000469  0.000119 -0.000780 -0.000571
                                -0.001485  0.001823  0.049195  0.000785 -0.049420 -0.000598 -0.012315 -0.008227 -0.121528  0.001708
                                 0.030361 -0.012840 -0.124197 -0.009149 -0.025172 -0.007720  0.088214 -0.003168 -0.237080 -0.016060
                                 0.000000  0.000000 -0.000000 -0.000000  0.000002  0.000000 -0.000007 -0.000001  0.000023  0.000002
                                -0.000036 -0.000008  0.000221  0.000007 -0.000294 -0.000054  0.002977  0.000341 -0.007557 -0.000992
                                 0.013998  0.001117 -0.014982 -0.001522  0.021961  0.001222 -0.011963 -0.000926  0.034033  0.004280
                                 0.026288 -0.000857 -0.045751  0.007570  0.000211 -0.000193 -0.000288  0.000717 -0.000772  0.000087
                                -0.000209 -0.000829 -0.001265  0.000000 -0.000000  0.000002 -0.000011  0.000098  0.002642  0.003271
                                 0.023965 -0.000471 -0.018047 -0.007239 -0.001422 -1.008208 -0.001569 -0.016092 -0.051178 -0.085849
                                -0.120542 -0.000777  0.000417  0.366111 -0.002199 -0.000127 -0.007819  0.000653 -0.000106 -0.000001
                                 0.018391 -0.000608  0.001200 -0.000193  0.001930 -0.000862

   8.1   0     0.0311   -2.3438 -0.000000  0.000000 -0.000000  0.000000 -0.000000  0.000000 -0.000000  0.000000 -0.000000  0.000000
                                -0.000000  0.000000 -0.000000  0.000001 -0.000002  0.000006 -0.000014  0.000035 -0.000085  0.000202
                                -0.000470  0.001072 -0.002284  0.002934  0.004177 -0.010949 -0.060878  0.075172 -0.042589  0.121836
                                -0.029880 -0.026164 -1.375643 -3.104509  1.758079 -0.000000  0.000000 -0.000000  0.000000 -0.000000
                                 0.000000 -0.000000  0.000000 -0.000000  0.000001 -0.000002  0.000007 -0.000018  0.000046 -0.000111
                                 0.000251 -0.000544  0.001134 -0.002373  0.006395 -0.021220  0.179386 -0.239819  0.157372 -3.329534
                                 3.345275 -0.113264 -0.153344 -1.349826 -1.078446  1.326004 -0.000000 -0.000000  0.000000  0.000000
                                -0.000000 -0.000000  0.000000  0.000000 -0.000002 -0.000000  0.000006  0.000001 -0.000016 -0.000002
                                 0.000042  0.000006 -0.000097 -0.000014  0.000222  0.000032 -0.000571 -0.000076  0.002210  0.000251
                                -0.007736 -0.000950  0.005289  0.001457 -0.005972 -0.001545  0.029482  0.003456 -0.023089 -0.004867
                                 0.062654  0.006897 -0.024888  0.000264 -0.129854  0.003630 -0.509170 -0.002738 -0.000944  0.020041
                                 0.000000  0.000000 -0.000002 -0.000000  0.000008  0.000000 -0.000029 -0.000001  0.000085  0.000002
                                -0.000233 -0.000005  0.000554  0.000015 -0.001804 -0.000042  0.011221  0.000253 -0.029354 -0.000612
                                 0.047769  0.001043 -0.051262 -0.001135  0.040289  0.000902 -0.055826 -0.000502 -0.024822  0.000466
                                -0.134813 -0.002372  0.023074  0.004656  0.000249  0.000052  0.000107 -0.001116  0.000324  0.000145
                                -0.008509  0.000300  0.000224  0.000000 -0.000000  0.000000 -0.000002  0.000038 -0.000027  0.003102
                                -0.050042 -0.004281  0.329779  0.004036 -0.000586  3.352242 -0.000018  0.000765  0.006158 -0.006101
                                -0.273495  0.000424  0.000018 -0.632399 -0.000600  0.000031  0.020747 -0.000193  0.000086  0.000005
                                 0.030583  0.000504 -0.001159 -0.000014 -0.002593  0.000175

                                   1 2px     1 2px     1 2px     1 2px     1 2px     1 2px     1 2px     1 2px     1 2px     1 2px  
                                   1 2px     1 2px     1 2px     1 2px     1 2px     1 2px     1 2px     1 2px     1 2px     1 2px  
                                   1 2px     1 2px     1 2px     1 2px     1 2px     1 2px     1 2px     1 2px     1 2px     1 2px  
                                   1 2px     1 3d1+    1 3d1+    1 3d1+    1 3d1+    1 3d1+    1 3d1+    1 3d1+    1 3d1+    1 3d1+ 
                                   1 3d1+    1 3d1+    1 3d1+    1 3d1+    1 3d1+    1 3d1+    1 3d1+    1 3d1+    1 3d1+    1 3d1+ 
                                   1 3d1+    1 3d1+    1 3d1+    1 4f1+    1 4f3+    1 4f1+    1 4f3+    1 4f1+    1 4f3+    1 4f1+ 
                                   1 4f3+    1 4f1+    1 4f3+    1 4f1+    1 4f3+    1 4f1+    1 4f3+    1 4f1+    1 4f3+    1 4f1+ 
                                   1 4f3+    1 4f1+    1 4f3+    1 4f1+    1 4f3+    1 4f1+    1 4f3+    1 4f1+    1 4f3+    1 4f1+ 
                                   1 4f3+    1 4f1+    1 4f3+    1 4f1+    1 4f3+    1 4f1+    1 4f3+    1 5g1+    1 5g3+    1 5g1+ 
                                   1 5g3+    1 5g1+    1 5g3+    2 2px     2 2px     2 2px     2 2px     2 2px     2 2px     2 2px  
                                   2 2px     2 3d1+    2 3d1+    2 3d1+    2 3d1+    2 4f1+    2 4f3+    2 4f1+    2 4f3+ 

   1.2   2    -2.4870  -17.0769  0.000000 -0.000000  0.000000 -0.000000  0.000000 -0.000000  0.000000 -0.000000  0.000001 -0.000002
                                 0.000006 -0.000017  0.000046 -0.000118  0.000296 -0.000738  0.001954 -0.006017  0.017311  0.003248
                                -0.112641 -0.220878  0.083177  0.355724  0.135060  0.419902  0.262934  0.027111 -0.002083  0.000585
                                -0.000221  0.000000 -0.000000  0.000000 -0.000000  0.000000 -0.000001  0.000002 -0.000005  0.000012
                                -0.000027  0.000062 -0.000182  0.000702 -0.001431  0.001406 -0.000938 -0.002984  0.001925 -0.003671
                                -0.002076 -0.000750  0.000002 -0.000000 -0.000000  0.000000  0.000000 -0.000001 -0.000000  0.000002
                                 0.000000 -0.000006  0.000003  0.000009  0.000041 -0.000065  0.000148  0.000110  0.000203 -0.001043
                                -0.000151  0.002223  0.002274 -0.004415  0.001421  0.003790  0.004478 -0.001227  0.002488 -0.003048
                                 0.002611 -0.001351  0.000524 -0.000098 -0.000127 -0.000074  0.000051  0.000075  0.000030  0.000987
                                -0.000513 -0.000758  0.000153  0.000223  0.002244  0.006802  0.012770  0.007703  0.000114 -0.000060
                                 0.000861 -0.001577 -0.005470 -0.000070 -0.002221  0.001328  0.000084  0.001221  0.000113

   2.2   2    -0.6149  -11.1581 -0.000000  0.000000 -0.000000  0.000000 -0.000000  0.000000 -0.000000  0.000000 -0.000000  0.000000
                                -0.000000  0.000001 -0.000002  0.000005 -0.000014  0.000040 -0.000125  0.000474 -0.001541 -0.001202
                                 0.015648  0.007016  0.011313 -0.056892  0.251458 -0.326592  0.000407 -0.005781  0.003525  0.002910
                                -0.001507 -0.000000  0.000000 -0.000000  0.000000 -0.000002  0.000006 -0.000017  0.000045 -0.000117
                                 0.000337 -0.001298  0.008176 -0.023109 -0.041895  0.036991  0.121906  0.009084  0.216614  0.185476
                                 0.038299  0.008247 -0.000702 -0.000000 -0.000000  0.000001  0.000000 -0.000006 -0.000000  0.000020
                                 0.000000 -0.000051 -0.000001  0.000247 -0.000002 -0.000065 -0.000018  0.001890 -0.000004 -0.008254
                                -0.000130  0.023402  0.000068 -0.033782 -0.000576  0.046935  0.000156 -0.006611 -0.000496  0.020366
                                 0.001016 -0.013292  0.000960  0.002601 -0.000012 -0.000120  0.000043  0.001043  0.000560  0.009483
                                 0.001366  0.001382  0.001953  0.006349  0.065592  0.209288  0.346746  0.284914  0.003635 -0.001677
                                 0.016271 -0.011206 -0.044040 -0.000529 -0.042808  0.006252  0.001405  0.010034  0.001805

   3.2   0    -0.0029   -6.9994 -0.000000  0.000000 -0.000000  0.000000 -0.000000  0.000000 -0.000000  0.000000 -0.000000  0.000000
                                -0.000000  0.000001 -0.000004  0.000010 -0.000026  0.000071 -0.000216  0.000798 -0.002558 -0.001849
                                 0.025314  0.008828  0.023825 -0.100252  0.594481 -0.715136 -0.024684  0.096457  0.212907  0.123784
                                 0.327610  0.000000 -0.000000  0.000000 -0.000001  0.000003 -0.000010  0.000030 -0.000078  0.000191
                                -0.000495  0.001636 -0.009019  0.027124  0.030508 -0.026590 -0.130150 -0.008440 -0.209253 -0.197050
                                -0.148714 -0.104227 -0.070996 -0.000000  0.000000  0.000000 -0.000000 -0.000000  0.000000  0.000000
                                -0.000000  0.000001  0.000001  0.000035 -0.000002  0.000109  0.000005  0.000248 -0.000014 -0.000002
                                 0.000077  0.000637 -0.000296 -0.000043  0.000404  0.004939 -0.000325  0.001070  0.000515  0.014695
                                 0.000280  0.012658  0.002794 -0.000314  0.000661  0.005257  0.004471  0.000685 -0.000235  0.000911
                                 0.000373  0.002198 -0.001609  0.002785  0.028624  0.091477  0.151659  0.166100  0.001479 -0.000738
                                 0.146832  0.002502  0.004860  0.000120 -0.003751 -0.001328  0.000478 -0.000798  0.000945

   4.2   0     0.0323   -3.2536  0.000000 -0.000000  0.000000 -0.000000  0.000000 -0.000000  0.000000 -0.000000  0.000000 -0.000001
                                 0.000004 -0.000010  0.000027 -0.000068  0.000163 -0.000376  0.000850 -0.001964  0.004600 -0.007534
                                 0.014295 -0.242406  0.303262 -0.147593  3.467755 -3.396048  0.120802 -0.131109  0.015530 -1.202127
                                 1.529826 -0.000000  0.000000 -0.000000  0.000001 -0.000004  0.000015 -0.000043  0.000111 -0.000260
                                 0.000610 -0.001655  0.007051 -0.023636  0.004967 -0.008094  0.100190 -0.060410  0.184424  0.090444
                                 0.130679 -0.141504 -0.148800  0.000000  0.000000 -0.000001 -0.000000  0.000004  0.000000 -0.000014
                                -0.000001  0.000039  0.000004 -0.000136 -0.000011  0.000180  0.000028 -0.001033 -0.000086  0.005304
                                 0.000531 -0.014349 -0.001337  0.022959  0.002211 -0.030011 -0.002494  0.021142  0.001961 -0.027893
                                -0.001728  0.020249  0.000956 -0.073426 -0.004846 -0.079208  0.007285 -0.000307  0.000122 -0.001419
                                -0.000092  0.000557  0.000772 -0.001762 -0.019263 -0.064889 -0.100308 -0.150253 -0.001415  0.000452
                                 0.424473 -0.001613  0.000409 -0.000056 -0.007384  0.000030 -0.000352  0.001583 -0.000548

                                   1 2py     1 2py     1 2py     1 2py     1 2py     1 2py     1 2py     1 2py     1 2py     1 2py  
                                   1 2py     1 2py     1 2py     1 2py     1 2py     1 2py     1 2py     1 2py     1 2py     1 2py  
                                   1 2py     1 2py     1 2py     1 2py     1 2py     1 2py     1 2py     1 2py     1 2py     1 2py  
                                   1 2py     1 3d1-    1 3d1-    1 3d1-    1 3d1-    1 3d1-    1 3d1-    1 3d1-    1 3d1-    1 3d1- 
                                   1 3d1-    1 3d1-    1 3d1-    1 3d1-    1 3d1-    1 3d1-    1 3d1-    1 3d1-    1 3d1-    1 3d1- 
                                   1 3d1-    1 3d1-    1 3d1-    1 4f1-    1 4f3-    1 4f1-    1 4f3-    1 4f1-    1 4f3-    1 4f1- 
                                   1 4f3-    1 4f1-    1 4f3-    1 4f1-    1 4f3-    1 4f1-    1 4f3-    1 4f1-    1 4f3-    1 4f1- 
                                   1 4f3-    1 4f1-    1 4f3-    1 4f1-    1 4f3-    1 4f1-    1 4f3-    1 4f1-    1 4f3-    1 4f1- 
                                   1 4f3-    1 4f1-    1 4f3-    1 4f1-    1 4f3-    1 4f1-    1 4f3-    1 5g1-    1 5g3-    1 5g1- 
                                   1 5g3-    1 5g1-    1 5g3-    2 2py     2 2py     2 2py     2 2py     2 2py     2 2py     2 2py  
                                   2 2py     2 3d1-    2 3d1-    2 3d1-    2 3d1-    2 4f1-    2 4f3-    2 4f1-    2 4f3- 

   1.3   2    -2.4757  -17.0709  0.000000 -0.000000  0.000000 -0.000000  0.000000 -0.000000  0.000000 -0.000000  0.000001 -0.000002
                                 0.000006 -0.000017  0.000046 -0.000118  0.000296 -0.000739  0.001956 -0.006023  0.017328  0.003199
                                -0.112619 -0.222309  0.085895  0.354340  0.144377  0.408646  0.264855  0.030517 -0.001155  0.000568
                                -0.000200  0.000000 -0.000000  0.000000 -0.000000  0.000000 -0.000000  0.000001 -0.000002  0.000003
                                -0.000005 -0.000002  0.000151 -0.000577 -0.001424  0.001715  0.004192 -0.002329  0.007456 -0.005163
                                -0.002605 -0.000670 -0.000015 -0.000000  0.000000  0.000000 -0.000000 -0.000001  0.000000  0.000002
                                -0.000001 -0.000003  0.000002  0.000049 -0.000005  0.000086  0.000014  0.000309 -0.000045 -0.001064
                                 0.000049  0.004156  0.000041 -0.002730  0.000879  0.008301 -0.001030  0.001280 -0.000367 -0.000219
                                -0.001656 -0.000252 -0.000486 -0.000257  0.000100  0.000005 -0.000044  0.000024  0.000058 -0.000012
                                -0.000497 -0.001341  0.000165  0.000139  0.001446  0.004455  0.007984  0.003481  0.000099 -0.000036
                                 0.000573 -0.001358 -0.004102 -0.000060 -0.001215  0.001224  0.000054  0.000911  0.000063

   2.3   2    -0.6947  -11.3034 -0.000000  0.000000 -0.000000  0.000000 -0.000000  0.000000 -0.000000  0.000000 -0.000000  0.000000
                                -0.000000  0.000000 -0.000001  0.000003 -0.000009  0.000025 -0.000079  0.000307 -0.001006 -0.000839
                                 0.010369  0.004015  0.008254 -0.035766  0.114207 -0.161140 -0.005847 -0.042351 -0.017128  0.003106
                                -0.001624 -0.000000  0.000000 -0.000000  0.000000 -0.000002  0.000007 -0.000019  0.000052 -0.000133
                                 0.000377 -0.001423  0.008855 -0.025471 -0.043232  0.038818  0.132773  0.011013  0.227730  0.186251
                                 0.035398  0.005098 -0.000156 -0.000000 -0.000000  0.000001  0.000000 -0.000004 -0.000000  0.000015
                                 0.000000 -0.000040 -0.000000  0.000176 -0.000002 -0.000099 -0.000009  0.001374 -0.000008 -0.006368
                                -0.000037  0.017874 -0.000013 -0.027035 -0.000234  0.034636 -0.000117 -0.005558 -0.000226  0.006007
                                 0.000450 -0.018453  0.000478  0.001477 -0.000022 -0.000021  0.000020  0.001473  0.000375  0.009102
                                 0.001127  0.001335  0.001317  0.006744  0.070121  0.225019  0.360550  0.272279  0.003920 -0.001777
                                 0.015204 -0.009340 -0.033706 -0.000421 -0.031145  0.006247  0.001472  0.008360  0.001587

   3.3   2    -0.3589  -10.5507  0.000000 -0.000000  0.000000 -0.000000  0.000000 -0.000000  0.000000 -0.000000  0.000000 -0.000000
                                 0.000000 -0.000001  0.000003 -0.000009  0.000022 -0.000060  0.000180 -0.000658  0.002105  0.001447
                                -0.020547 -0.009987 -0.014980  0.080208 -0.442245  0.540336  0.011500 -0.075256 -0.099339 -0.006113
                                -0.000050 -0.000000  0.000000 -0.000000  0.000001 -0.000005  0.000017 -0.000050  0.000131 -0.000319
                                 0.000816 -0.002646  0.014365 -0.044144 -0.043457  0.038805  0.209074  0.005581  0.331977  0.289953
                                 0.184093  0.029991  0.004559  0.000000  0.000000 -0.000001 -0.000000  0.000003  0.000000 -0.000010
                                -0.000000  0.000024  0.000001 -0.000147 -0.000001 -0.000051  0.000014 -0.001102 -0.000013  0.003814
                                -0.000004 -0.010926  0.000057  0.015281  0.000507 -0.027375 -0.000216  0.008324 -0.000022 -0.033075
                                -0.000821 -0.002498 -0.000845 -0.011778 -0.000096  0.003077 -0.000044  0.000115  0.000673  0.000241
                                 0.001113  0.001473  0.001807 -0.005551 -0.057030 -0.182052 -0.296749 -0.295567 -0.002821  0.001473
                                -0.060622 -0.002693  0.000327 -0.000127  0.016026  0.000460 -0.001026 -0.001670 -0.001328

   4.3   0     0.0252   -2.3864  0.000000 -0.000000  0.000000 -0.000000  0.000000 -0.000000  0.000000 -0.000000  0.000000 -0.000001
                                 0.000002 -0.000007  0.000018 -0.000045  0.000106 -0.000240  0.000517 -0.001053  0.002139 -0.006364
                                 0.022409 -0.172278  0.231962 -0.154755  2.800244 -2.804835  0.074732 -0.047182  0.127986 -0.772538
                                 1.377364 -0.000000  0.000000 -0.000000  0.000001 -0.000002  0.000007 -0.000021  0.000055 -0.000127
                                 0.000286 -0.000709  0.002551 -0.009331  0.010471 -0.011488  0.036052 -0.041707  0.072765  0.012441
                                 0.047928 -0.140134 -0.165502  0.000000  0.000000 -0.000001 -0.000000  0.000003  0.000000 -0.000012
                                -0.000001  0.000034  0.000004 -0.000106 -0.000010  0.000188  0.000023 -0.000811 -0.000077  0.004564
                                 0.000493 -0.012152 -0.001316  0.019610  0.001971 -0.024077 -0.002214  0.018103  0.001879 -0.017935
                                -0.000687  0.023172  0.003501 -0.058368 -0.003565 -0.047945  0.010470  0.000023  0.000106 -0.000589
                                 0.000410  0.001259  0.000027 -0.000635 -0.007487 -0.026736 -0.037470 -0.074824 -0.000719  0.000155
                                 0.353455 -0.000602  0.001835 -0.000012 -0.005986 -0.000517 -0.000148  0.000637 -0.000134

   5.3   0     0.0770   -3.3953 -0.000000  0.000000 -0.000000  0.000000 -0.000000  0.000000 -0.000000  0.000000 -0.000001  0.000002
                                -0.000007  0.000019 -0.000051  0.000129 -0.000308  0.000709 -0.001586  0.003578 -0.008189  0.015132
                                -0.034875  0.467977 -0.595821  0.315471 -6.932520  6.829962 -0.233853  0.211517 -0.228376  1.643898
                                -1.041225  0.000000 -0.000000  0.000001 -0.000003  0.000011 -0.000035  0.000102 -0.000258  0.000586
                                -0.001235  0.002510 -0.004734  0.024457 -0.108551  0.111175 -0.058496  0.281086 -0.191254  0.157040
                                -0.171161  0.369442 -0.729891  0.000000 -0.000000 -0.000001  0.000000  0.000004 -0.000000 -0.000015
                                 0.000000  0.000042 -0.000001 -0.000137 -0.000000  0.000215 -0.000010 -0.001032  0.000009  0.005536
                                -0.000038 -0.014704 -0.000027  0.023058 -0.000497 -0.028913  0.000377  0.021349 -0.000322 -0.029642
                                 0.002135 -0.031187  0.005193  0.023745  0.001106  0.071790  0.011687 -0.000692  0.000186  0.002004
                                 0.001002 -0.008832 -0.000299 -0.001249 -0.012666 -0.040122 -0.067784 -0.002068 -0.000549  0.000334
                                -0.287397 -0.001622 -0.003979 -0.000074 -0.049862 -0.000141 -0.000204  0.004454 -0.000241

                                   1 3d2-    1 3d2-    1 3d2-    1 3d2-    1 3d2-    1 3d2-    1 3d2-    1 3d2-    1 3d2-    1 3d2- 
                                   1 3d2-    1 3d2-    1 3d2-    1 3d2-    1 3d2-    1 3d2-    1 3d2-    1 3d2-    1 3d2-    1 3d2- 
                                   1 3d2-    1 3d2-    1 4f2-    1 4f2-    1 4f2-    1 4f2-    1 4f2-    1 4f2-    1 4f2-    1 4f2- 
                                   1 4f2-    1 4f2-    1 4f2-    1 4f2-    1 4f2-    1 4f2-    1 4f2-    1 4f2-    1 4f2-    1 5g2- 
                                   1 5g4-    1 5g2-    1 5g4-    1 5g2-    1 5g4-    2 3d2-    2 3d2-    2 3d2-    2 3d2-    2 4f2- 
                                   2 4f2- 

   1.4   +    -0.5235  -11.6052 -0.000000  0.000000 -0.000000  0.000001 -0.000006  0.000020 -0.000058  0.000151 -0.000371  0.000957
                                -0.003147  0.017296 -0.052238 -0.057270  0.049987  0.250903  0.016771  0.400033  0.350844  0.159744
                                 0.021736 -0.000705  0.000000 -0.000000  0.000000 -0.000001  0.000003 -0.000008  0.000019 -0.000069
                                 0.000485 -0.001155  0.002516 -0.003870  0.003635 -0.005375 -0.003076 -0.000228 -0.000107 -0.000426
                                 0.001670  0.000827  0.003028  0.001584  0.003981  0.002278  0.007783  0.000113  0.002850 -0.001900
                                -0.001854

   2.4   0     0.0824   -2.6257 -0.000000  0.000000 -0.000001  0.000005 -0.000019  0.000063 -0.000183  0.000463 -0.001057  0.002265
                                -0.004864  0.011636 -0.052256  0.168937 -0.174459  0.152331 -0.466124  0.407641 -0.190048  0.217134
                                -0.487234  1.264755 -0.000000  0.000001 -0.000004  0.000014 -0.000040  0.000104 -0.000273  0.000795
                                -0.005059  0.013011 -0.021423  0.023423 -0.020650  0.014702 -0.022740  0.052089 -0.099263 -0.000000
                                -0.000057  0.000019 -0.000344 -0.000226  0.000210  0.000430 -0.000589  0.000001  0.005633 -0.000088
                                 0.000138

   3.4   0     0.1469   -2.5483 -0.000000  0.000000 -0.000000  0.000001 -0.000002  0.000007 -0.000021  0.000052 -0.000120  0.000257
                                -0.000558  0.001384 -0.006099  0.018610 -0.019274  0.018394 -0.052647  0.048394 -0.020235  0.025269
                                -0.052015  0.092711  0.000002 -0.000015  0.000069 -0.000247  0.000726 -0.001889  0.004909 -0.014467
                                 0.091511 -0.235440  0.385770 -0.421446  0.367996 -0.262976  0.371480 -1.008025  1.633078  0.000002
                                -0.000011  0.000058  0.000019 -0.000483 -0.000063  0.000802  0.002376  0.000027 -0.000846  0.000074
                                -0.001505

 HOMO      6.1    -0.336389 =      -9.1536eV
 LUMO      3.2    -0.002925 =      -0.0796eV
 LUMO-HOMO         0.333464 =       9.0740eV


 **********************************************************************************************************************************
 DATASETS  * FILE   NREC   LENGTH (MB)   RECORD NAMES
              1      19       22.57       500      610      700      900      950      970     1000      129      960     1100   
                                          VAR    BASINP    GEOM    SYMINP    ZMAT    AOBASIS   BASIS     P2S    ABASIS      S 
                                         1400     1410     1420     1200     1210     1080     1600     1650     1700   
                                           T        V       ECP      H0       H01     AOSYM     SMH    MOLCAS    OPER   

              2       4        4.55       700     1000      520     2100   
                                         GEOM     BASIS   MCVARS     RHF  

 PROGRAMS   *        TOTAL       RHF       INT
 CPU TIMES  *       216.79     11.33    205.33
 REAL TIME  *       230.77 SEC
 DISK USED  *        12.02 GB      
 SF USED    *         0.25 MB      
 GA USED    *         0.00 MB       (max)       0.00 MB       (current)
 **********************************************************************************************************************************
 SETTING SCF(1)         =      -119.41340400  AU                              


 PROGRAM * CCSD (Restricted open-shell coupled cluster)     Authors: C. Hampel, H.-J. Werner, 1991, M. Deegan, P.J. Knowles, 1992


 Convergence thresholds:  THRVAR = 1.00D-08  THRDEN = 1.00D-06

 CCSD(T)     terms to be evaluated (factor= 1.000)


 Number of closed-shell orbitals:  11 (   6   2   3   0 )
 Number of active  orbitals:        1 (   0   0   0   1 )
 Number of external orbitals:     443 ( 180 107 106  50 )

 Memory could be reduced to 445.68 Mwords without degradation in triples

 Number of N-1 electron functions:              23
 Number of N-2 electron functions:             253
 Number of singly external CSFs:              3275
 Number of doubly external CSFs:           9817564
 Total number of CSFs:                     9820839

 Molecular orbitals read from record     2100.2  Type=RHF/CANONICAL (state 1.4)

 Integral transformation finished. Total CPU:  16.17 sec, npass=  1  Memory used:  43.25 MW

 Starting RMP2 calculation

 Wavefunction is spin-projected

 ITER.      SQ.NORM     CORR.ENERGY   TOTAL ENERGY   ENERGY CHANGE        DEN1      VAR(S)    VAR(P)  DIIS     TIME
   1      1.24246496    -0.94844201  -120.36184601    -0.94844201    -0.00282262  0.64D-05  0.14D-02  1  1    17.54
   2      1.24590489    -0.95147464  -120.36487864    -0.00303263    -0.00000996  0.37D-07  0.79D-05  2  2    18.85
   3      1.24611847    -0.95157838  -120.36498237    -0.00010374    -0.00000006  0.15D-09  0.55D-07  3  3    20.33
   4      1.24612600    -0.95157984  -120.36498384    -0.00000146    -0.00000000  0.25D-11  0.25D-09  4  4    22.01
   5      1.24612603    -0.95157983  -120.36498383     0.00000001    -0.00000000  0.11D-12  0.14D-11  5  5    23.85

 Norm of t1 vector:      0.02786724      S-energy:    -0.00260437      T1 diagnostic:  0.00004902
 Norm of t2 vector:      0.49532762      P-energy:    -0.94897546
                                         Alpha-Beta:  -0.66935648
                                         Alpha-Alpha: -0.15178712
                                         Beta-Beta:   -0.12783186

 Spin contamination <S**2-Sz**2-Sz>     0.00000000
  Reference energy                   -119.413403996398
  RHF-RMP2 correlation energy          -0.951579830771
 !RHF-RMP2 energy                    -120.364983827170
 (NB above energy spin projected)

 Starting RCCSD calculation

 ITER.      SQ.NORM     CORR.ENERGY   TOTAL ENERGY   ENERGY CHANGE        DEN1      VAR(S)    VAR(P)  DIIS     TIME
   1      1.19491758    -0.86233426  -120.27573826    -0.86233426    -0.03681163  0.10D-01  0.76D-02  1  1    37.38
   2      1.21626008    -0.89077090  -120.30417490    -0.02843664    -0.00331176  0.41D-03  0.13D-02  2  2    50.13
   3      1.22644926    -0.89296382  -120.30636781    -0.00219291    -0.00065699  0.39D-03  0.18D-03  3  3    62.99
   4      1.23383816    -0.89510983  -120.30851383    -0.00214602    -0.00011210  0.44D-04  0.46D-04  4  4    76.06
   5      1.23843114    -0.89602189  -120.30942588    -0.00091206    -0.00001954  0.70D-05  0.11D-04  5  5    89.20
   6      1.23987681    -0.89615115  -120.30955515    -0.00012927    -0.00000546  0.17D-05  0.33D-05  6  6   102.60
   7      1.24060884    -0.89620244  -120.30960643    -0.00005128    -0.00000139  0.47D-06  0.77D-06  7  7   116.03
   8      1.24090028    -0.89622507  -120.30962906    -0.00002263    -0.00000028  0.11D-06  0.14D-06  8  8   129.53
   9      1.24096867    -0.89622643  -120.30963042    -0.00000136    -0.00000006  0.21D-07  0.31D-07  9  9   143.63
  10      1.24098013    -0.89622650  -120.30963049    -0.00000007    -0.00000001  0.40D-08  0.72D-08 10 10   156.95
  11      1.24098399    -0.89622761  -120.30963161    -0.00000112    -0.00000000  0.11D-08  0.26D-08 11 11   170.12
  12      1.24098484    -0.89622784  -120.30963184    -0.00000023    -0.00000000  0.33D-09  0.10D-08 12 12   183.07

 Norm of t1 vector:      0.14413027      S-energy:    -0.00278858      T1 diagnostic:  0.02046358
                                                                       D1 diagnostic:  0.05544398
 Norm of t2 vector:      0.46926678      P-energy:    -0.89343926
                                         Alpha-Beta:  -0.65930260
                                         Alpha-Alpha: -0.12698374
                                         Beta-Beta:   -0.10715292

 Spin contamination <S**2-Sz**2-Sz>     0.00000000

 Memory could be reduced to 458.42 Mwords without degradation in triples
 

  Correlated core orbitals:             1.1       2.1       1.2       1.3
  Orbital energies:                    -4.3275   -2.5566   -2.5365   -2.5255
 
  RCCSD core-core energy               -0.123191464990
  RCCSD core-valence energy            -0.221866734994
  RCCSD valence correlation energy     -0.551169639608
 

 RESULTS
 =======

  Reference energy                   -119.413403996398
  RCCSD singles energy                 -0.002788576251
  RCCSD pair energy                    -0.893439263341
  RCCSD correlation energy             -0.896227839592
  Triples (T) contribution             -0.047750113065
  Total correlation energy             -0.943977952656
 
  RHF-RCCSD energy                   -120.309631835990
  RHF-RCCSD[T] energy                -120.361212432561
  RHF-RCCSD-T energy                 -120.356877569083
 !RHF-RCCSD(T) energy                -120.357381949055

 Program statistics:

 Available memory in ccsd:              1023998628
 Min. memory needed in ccsd:              28062859
 Max. memory used in ccsd:                40287473
 Max. memory used in cckext:              32692403 (12 integral passes)
 Max. memory used in cckint:              43251562 ( 1 integral passes)



 **********************************************************************************************************************************
 DATASETS  * FILE   NREC   LENGTH (MB)   RECORD NAMES
              1      19       22.57       500      610      700      900      950      970     1000      129      960     1100   
                                          VAR    BASINP    GEOM    SYMINP    ZMAT    AOBASIS   BASIS     P2S    ABASIS      S 
                                         1400     1410     1420     1200     1210     1080     1600     1650     1700   
                                           T        V       ECP      H0       H01     AOSYM     SMH    MOLCAS    OPER   

              2       4        4.55       700     1000      520     2100   
                                         GEOM     BASIS   MCVARS     RHF  

 PROGRAMS   *        TOTAL  RCCSD(T)       RHF       INT
 CPU TIMES  *       685.94    469.07     11.33    205.33
 REAL TIME  *       778.81 SEC
 DISK USED  *        38.99 GB      
 SF USED    *         7.46 GB      
 GA USED    *         0.00 MB       (max)       0.00 MB       (current)
 **********************************************************************************************************************************
 SETTING CCSD(1)        =      -120.35738195  AU                              
 Output type csv         
                                                                                                                                                                                                                                                                

     Z,SCF,CCSD
   1.5,   -119.4134040,   -120.3573819
                                                  

 RCCSD(T)/USERDEF energy=   -120.357381949055

        RCCSD(T)        RHF-SCF 
   -120.35738195   -119.41340400
 **********************************************************************************************************************************
 Molpro calculation terminated
 Variable memory released
