
 Primary working directories    : /global/cscratch1/sd/aannabe
 Secondary working directories  : /global/cscratch1/sd/aannabe
 Wavefunction directory         : /global/homes/a/aannabe/wfu/
 Main file repository           : /global/cscratch1/sd/aannabe/

 SHA1      : 19cd028119e0e09f93f0674bd8af7968d9b3eff6
 NAME      : 2015.1.36
 ARCHNAME  : linux/x86_64
 FC        : /opt/cray/pe/craype/2.5.14/bin/ftn
 BLASLIB   : -L/opt/intel/compilers_and_libraries_2018.1.163/linux/mkl/lib/intel64 -Wl,-_start-group -lmkl_intel_ilp64 -lmkl_intel_thread -lmkl_core -Wl,-_end-group -liomp5
 id        : lbl

 Nodes     nprocs
 nid00750    15
 Number of processes for MPI-2 version of Molpro:   nprocs(total)=   16   nprocs(compute)=   15   nprocs(helper)=    1

 Using customized tuning parameters: mindgm=7; mindgv=16; mindgc=1; mindgr=1; noblas=0; minvec=7
 default implementation of scratch files=sf  

 ***,Ir
 memory,512,m
 
 gthresh,twoint=1.e-12
 gprint,basis,orbitals
 
 angstrom
 geometry={
 1                                                                               ! Number of atoms
 Ir 0.0 0.0 0.0
 }
 
 basis={
 Including file /global/cscratch1/sd/aannabe/repos/heavy_element_ecps/basis_sets/tutorial_generate/Ir/check_contractions/ecp.molpro
 Including file /global/cscratch1/sd/aannabe/repos/heavy_element_ecps/basis_sets/tutorial_generate/Ir/check_contractions/basis.molpro
 }
 
 {rhf
  start,atden
  wf,17,1,3
  occ,4,1,1,1,1,1,1,0
  closed,4,1,1,0,1,0,0,0
  sym,1,1,1,3,2
  orbital,4202.2
 }
 pop
 {multi
  start,4202.2
  maxit,40
  occ,4,1,1,1,1,1,1,0
  frozen,2,1,1,0,1,0,0
  wf,17,1,3;state,1
  wf,17,4,3;state,3
  wf,17,6,3;state,3
  wf,17,7,3;state,3
  orbital,4203.2
 }
 {multi
  start,4203.2
  maxit,40
  occ,4,1,1,1,1,1,1,0
  closed,2,1,1,0,1,0,0
  wf,17,1,3;state,1
  wf,17,4,3;state,3
  wf,17,6,3;state,3
  wf,17,7,3;state,3
  natorb,ci,print
  orbital,5202.2
 }
 {rhf,nitord=1,maxit=0
  start,5202.2
  wf,17,1,3
  occ,4,1,1,1,1,1,1,0
  closed,4,1,1,0,1,0,0,0
  print,orbitals=2
 }
 
 {ci;maxit,100;core,1,1,1,0,1,0,0,0
  natorb,ci,print=15
 }

 Variables initialized (889), CPU time= 0.01 sec
 Commands  initialized (702), CPU time= 0.01 sec, 572 directives.
 Default parameters read. Elapsed time= 0.25 sec

 Checking input...
 Passed
1


                                         ***  PROGRAM SYSTEM MOLPRO  ***
                                       Copyright, TTI GmbH Stuttgart, 2015
                                    Version 2015.1 linked Dec 29 2018 15:55:43


 **********************************************************************************************************************************
 LABEL *   Ir                                                                            
  64 bit mpp version                                                                     DATE: 13-Sep-21          TIME: 17:34:19  
 **********************************************************************************************************************************

 SHA1:             19cd028119e0e09f93f0674bd8af7968d9b3eff6
 **********************************************************************************************************************************

 THRESHOLDS:

 ZERO    =  1.00D-12  ONEINT  =  1.00D-12  TWOINT  =  1.00D-12  PREFAC  =  1.00D-14  LOCALI  =  1.00D-09  EORDER  =  1.00D-04
 ENERGY  =  0.00D+00  ETEST   =  0.00D+00  EDENS   =  0.00D+00  THRDEDEF=  1.00D-06  GRADIENT=  1.00D-02  STEP    =  1.00D-03
 ORBITAL =  1.00D-05  CIVEC   =  1.00D-05  COEFF   =  1.00D-04  PRINTCI =  5.00D-02  PUNCHCI =  9.90D+01  OPTGRAD =  3.00D-04
 OPTENERG=  1.00D-06  OPTSTEP =  3.00D-04  THRGRAD =  1.00D-10  COMPRESS=  1.00D-11  VARMIN  =  1.00D-07  VARMAX  =  1.00D-03
 THRDOUB =  0.00D+00  THRDIV  =  1.00D-05  THRRED  =  1.00D-07  THRPSP  =  1.00D+00  THRDC   =  1.00D-10  THRCS   =  1.00D-10
 THRNRM  =  1.00D-08  THREQ   =  0.00D+00  THRDE   =  1.00D+00  THRREF  =  1.00D-05  SPARFAC =  1.00D+00  THRDLP  =  1.00D-07
 THRDIA  =  1.00D-10  THRDLS  =  1.00D-07  THRGPS  =  0.00D+00  THRKEX  =  0.00D+00  THRDIS  =  2.00D-01  THRVAR  =  1.00D-10
 THRLOC  =  1.00D-06  THRGAP  =  1.00D-06  THRLOCT = -1.00D+00  THRGAPT = -1.00D+00  THRORB  =  1.00D-06  THRMLTP =  0.00D+00
 THRCPQCI=  1.00D-10  KEXTA   =  0.00D+00  THRCOARS=  0.00D+00  SYMTOL  =  1.00D-06  GRADTOL =  1.00D-06  THROVL  =  1.00D-08
 THRORTH =  1.00D-08  GRID    =  1.00D-06  GRIDMAX =  1.00D-03  DTMAX   =  0.00D+00  THROCCDE=  1.00D-01  THROCCDE=  1.00D-01



 ZUNIT=ANG
 

Geometry recognized as XYZ


 Variable memory set to  512000000 words,  buffer space   230000 words

 SETTING BASIS          =    USERDEF


 Recomputing integrals since basis changed


 Using spherical harmonics



 PROGRAM * SEWARD (Integral evaluation for generally contracted gaussian basis sets)     Author: Roland Lindh, 1990

 Geometry written to block  1 of record 700

 Orientation using atomic masses  
 Molecule type: Atom
 Symmetry elements: X,Y,Z
 Rotational constants:       0.0000000      0.0000000      0.0000000 GHz  (calculated with average atomic masses)

 Point group  D2h 



 ATOMIC COORDINATES

 NR  ATOM    CHARGE       X              Y              Z

   1  IR     17.00    0.000000000    0.000000000    0.000000000


          IR  CORE POTENTIAL

          g POTENTIAL

 POWERS             1              3              2              2
 EXPONENTIALS   12.17107       12.17014       5.602984       12.32034    
 COEFFICIENTS   17.00000       206.9082      -23.15704      -143.2084    

          s - g POTENTIAL

 POWERS             2              2
 EXPONENTIALS   6.284095       13.82629    
 COEFFICIENTS   76.59951       438.8739    

          p - g POTENTIAL

 POWERS             2              2
 EXPONENTIALS   5.346383       11.26419    
 COEFFICIENTS   61.99194       262.7501    

          d - g POTENTIAL

 POWERS             2              2
 EXPONENTIALS   4.766746       6.815210    
 COEFFICIENTS   31.12365       123.9560    

          f - g POTENTIAL

 POWERS             2              2
 EXPONENTIALS   2.786350       2.592946    
 COEFFICIENTS   10.32928       11.88570    


 BASIS DATA

   Nr Sym  Nuc  Type         Exponents   Contraction coefficients

    1.1 Ag    1  1s          81.883746    -0.000456    0.000109   -0.000038   -0.000756
    2.1 Ag                   43.142946     0.007251   -0.002172    0.002972   -0.000013
    3.1 Ag                   22.731175    -0.076134    0.025226   -0.041889    0.049100
    4.1 Ag                   11.976612     0.392307   -0.137486    0.239038   -0.332761
                              6.310243    -0.599162    0.226746   -0.395296    0.539193
                              3.324744    -0.476593    0.170008   -0.372238    0.945657
                              1.751742     0.610563   -0.264851    0.603962   -2.114954
                              0.922959     0.693017   -0.402410    1.150634   -1.624113
                              0.486289     0.225546   -0.187447   -0.303613    4.484057
                              0.256216     0.005951    0.125771   -1.551674   -0.833538
                              0.134995     0.006730    0.448621   -0.332414   -2.217561
                              0.071126    -0.002486    0.434740    0.662273    0.031899
                              0.037475     0.000625    0.243405    0.641326    1.202180
    5.1 Ag    1  3d0         69.582346     0.000025
                             36.601738    -0.000064
                             19.253263    -0.000576
                             10.127610     0.015407
                              5.327330    -0.090881
                              2.802285     0.051156
                              1.474059     0.271027
                              0.775385     0.351688
                              0.407869     0.302463
                              0.214547     0.179813
                              0.112856     0.070886
                              0.059365     0.010937
                              0.031227     0.000567
    6.1 Ag    1  3d2+        69.582346     0.000025
                             36.601738    -0.000064
                             19.253263    -0.000576
                             10.127610     0.015407
                              5.327330    -0.090881
                              2.802285     0.051156
                              1.474059     0.271027
                              0.775385     0.351688
                              0.407869     0.302463
                              0.214547     0.179813
                              0.112856     0.070886
                              0.059365     0.010937
                              0.031227     0.000567
    7.1 Ag    1  3d0         69.582346    -0.000072
                             36.601738     0.000277
                             19.253263     0.000052
                             10.127610    -0.017626
                              5.327330     0.115701
                              2.802285    -0.072020
                              1.474059    -0.456700
                              0.775385    -0.416372
                              0.407869     0.235208
                              0.214547     0.527233
                              0.112856     0.277584
                              0.059365     0.049775
                              0.031227     0.001660
    8.1 Ag    1  3d2+        69.582346    -0.000072
                             36.601738     0.000277
                             19.253263     0.000052
                             10.127610    -0.017626
                              5.327330     0.115701
                              2.802285    -0.072020
                              1.474059    -0.456700
                              0.775385    -0.416372
                              0.407869     0.235208
                              0.214547     0.527233
                              0.112856     0.277584
                              0.059365     0.049775
                              0.031227     0.001660
    9.1 Ag    1  3d0         69.582346    -0.000104
                             36.601738     0.000414
                             19.253263    -0.000097
                             10.127610    -0.024748
                              5.327330     0.175276
                              2.802285    -0.137391
                              1.474059    -0.970952
                              0.775385     0.304448
                              0.407869     1.178124
                              0.214547    -0.387717
                              0.112856    -0.551093
                              0.059365    -0.152582
                              0.031227    -0.003181
   10.1 Ag    1  3d2+        69.582346    -0.000104
                             36.601738     0.000414
                             19.253263    -0.000097
                             10.127610    -0.024748
                              5.327330     0.175276
                              2.802285    -0.137391
                              1.474059    -0.970952
                              0.775385     0.304448
                              0.407869     1.178124
                              0.214547    -0.387717
                              0.112856    -0.551093
                              0.059365    -0.152582
                              0.031227    -0.003181
    1.2 B3u   1  2px         80.754753     0.000049   -0.000042   -0.000262   -0.000919
    2.2 B3u                  42.532608     0.000099    0.000069    0.001072    0.004133
    3.2 B3u                  22.401440    -0.007030    0.002710    0.001640   -0.004852
    4.2 B3u                  11.798583     0.078305   -0.034573   -0.052183   -0.062416
                              6.214179    -0.246821    0.116184    0.184751    0.233816
                              3.272938    -0.082812    0.029428    0.120530    0.504950
                              1.723819     0.447701   -0.224637   -0.585460   -2.361455
                              0.907916     0.490763   -0.332112   -0.820919    1.046508
                              0.478189     0.232088   -0.112114    1.053718    2.478962
                              0.251857     0.035712    0.425856    0.983090   -2.753523
                              0.132650     0.008228    0.545958   -0.660728    0.089947
                              0.069865    -0.000973    0.215607   -0.554789    0.766243
                              0.036797     0.000521    0.018735   -0.065086    0.156345
    1.3 B2u   1  2py         80.754753     0.000049   -0.000042   -0.000262   -0.000919
    2.3 B2u                  42.532608     0.000099    0.000069    0.001072    0.004133
    3.3 B2u                  22.401440    -0.007030    0.002710    0.001640   -0.004852
    4.3 B2u                  11.798583     0.078305   -0.034573   -0.052183   -0.062416
                              6.214179    -0.246821    0.116184    0.184751    0.233816
                              3.272938    -0.082812    0.029428    0.120530    0.504950
                              1.723819     0.447701   -0.224637   -0.585460   -2.361455
                              0.907916     0.490763   -0.332112   -0.820919    1.046508
                              0.478189     0.232088   -0.112114    1.053718    2.478962
                              0.251857     0.035712    0.425856    0.983090   -2.753523
                              0.132650     0.008228    0.545958   -0.660728    0.089947
                              0.069865    -0.000973    0.215607   -0.554789    0.766243
                              0.036797     0.000521    0.018735   -0.065086    0.156345
    1.4 B1g   1  3d2-        69.582346     0.000025   -0.000072   -0.000104
    2.4 B1g                  36.601738    -0.000064    0.000277    0.000414
    3.4 B1g                  19.253263    -0.000576    0.000052   -0.000097
                             10.127610     0.015407   -0.017626   -0.024748
                              5.327330    -0.090881    0.115701    0.175276
                              2.802285     0.051156   -0.072020   -0.137391
                              1.474059     0.271027   -0.456700   -0.970952
                              0.775385     0.351688   -0.416372    0.304448
                              0.407869     0.302463    0.235208    1.178124
                              0.214547     0.179813    0.527233   -0.387717
                              0.112856     0.070886    0.277584   -0.551093
                              0.059365     0.010937    0.049775   -0.152582
                              0.031227     0.000567    0.001660   -0.003181
    1.5 B1u   1  2pz         80.754753     0.000049   -0.000042   -0.000262   -0.000919
    2.5 B1u                  42.532608     0.000099    0.000069    0.001072    0.004133
    3.5 B1u                  22.401440    -0.007030    0.002710    0.001640   -0.004852
    4.5 B1u                  11.798583     0.078305   -0.034573   -0.052183   -0.062416
                              6.214179    -0.246821    0.116184    0.184751    0.233816
                              3.272938    -0.082812    0.029428    0.120530    0.504950
                              1.723819     0.447701   -0.224637   -0.585460   -2.361455
                              0.907916     0.490763   -0.332112   -0.820919    1.046508
                              0.478189     0.232088   -0.112114    1.053718    2.478962
                              0.251857     0.035712    0.425856    0.983090   -2.753523
                              0.132650     0.008228    0.545958   -0.660728    0.089947
                              0.069865    -0.000973    0.215607   -0.554789    0.766243
                              0.036797     0.000521    0.018735   -0.065086    0.156345
    1.6 B2g   1  3d1+        69.582346     0.000025   -0.000072   -0.000104
    2.6 B2g                  36.601738    -0.000064    0.000277    0.000414
    3.6 B2g                  19.253263    -0.000576    0.000052   -0.000097
                             10.127610     0.015407   -0.017626   -0.024748
                              5.327330    -0.090881    0.115701    0.175276
                              2.802285     0.051156   -0.072020   -0.137391
                              1.474059     0.271027   -0.456700   -0.970952
                              0.775385     0.351688   -0.416372    0.304448
                              0.407869     0.302463    0.235208    1.178124
                              0.214547     0.179813    0.527233   -0.387717
                              0.112856     0.070886    0.277584   -0.551093
                              0.059365     0.010937    0.049775   -0.152582
                              0.031227     0.000567    0.001660   -0.003181
    1.7 B3g   1  3d1-        69.582346     0.000025   -0.000072   -0.000104
    2.7 B3g                  36.601738    -0.000064    0.000277    0.000414
    3.7 B3g                  19.253263    -0.000576    0.000052   -0.000097
                             10.127610     0.015407   -0.017626   -0.024748
                              5.327330    -0.090881    0.115701    0.175276
                              2.802285     0.051156   -0.072020   -0.137391
                              1.474059     0.271027   -0.456700   -0.970952
                              0.775385     0.351688   -0.416372    0.304448
                              0.407869     0.302463    0.235208    1.178124
                              0.214547     0.179813    0.527233   -0.387717
                              0.112856     0.070886    0.277584   -0.551093
                              0.059365     0.010937    0.049775   -0.152582
                              0.031227     0.000567    0.001660   -0.003181

 NUCLEAR CHARGE:                   17
 NUMBER OF PRIMITIVE AOS:         130
 NUMBER OF SYMMETRY AOS:          117
 NUMBER OF CONTRACTIONS:           31   (  10Ag  +   4B3u +   4B2u +   3B1g +   4B1u +   3B2g +   3B3g +   0Au  )
 NUMBER OF CORE ORBITALS:           4   (   1Ag  +   1B3u +   1B2u +   0B1g +   1B1u +   0B2g +   0B3g +   0Au  )
 NUMBER OF VALENCE ORBITALS:        6   (   3Ag  +   0B3u +   0B2u +   1B1g +   0B1u +   1B2g +   1B3g +   0Au  )


 NUCLEAR REPULSION ENERGY    0.00000000

 EXTRA SYMMETRY OF AOS IN SYMMETRY 1:   1 1 1 1 2 3 2 3 2 3

 Eigenvalues of metric

         1 0.984E+00 0.994E+00 0.994E+00 0.100E+01 0.100E+01 0.100E+01 0.100E+01 0.101E+01
         2 0.100E+01 0.100E+01 0.100E+01 0.100E+01
         3 0.100E+01 0.100E+01 0.100E+01 0.100E+01
         4 0.994E+00 0.100E+01 0.101E+01
         5 0.100E+01 0.100E+01 0.100E+01 0.100E+01
         6 0.994E+00 0.100E+01 0.101E+01
         7 0.994E+00 0.100E+01 0.101E+01


 Contracted 2-electron integrals neglected if value below      1.0D-12
 AO integral compression algorithm  1   Integral accuracy      1.0D-12

     3.932 MB (compressed) written to integral file (100.0%)

     Node minimum: 0.262 MB, node maximum: 0.262 MB


 NUMBER OF SORTED TWO-ELECTRON INTEGRALS:        660.     BUFFER LENGTH:  32768
 NUMBER OF SEGMENTS:   1  SEGMENT LENGTH:        660      RECORD LENGTH: 524288

 Memory used in sort:       0.56 MW

 SORT1 READ       49837. AND WROTE         603. INTEGRALS IN      1 RECORDS. CPU TIME:     0.00 SEC, REAL TIME:     0.05 SEC
 SORT2 READ       16891. AND WROTE       18958. INTEGRALS IN     15 RECORDS. CPU TIME:     0.01 SEC, REAL TIME:     0.14 SEC

 Node minimum:          81.  Node maximum:        2112. integrals

 OPERATOR DM      FOR CENTER  0  COORDINATES:    0.000000    0.000000    0.000000


 **********************************************************************************************************************************
 DATASETS  * FILE   NREC   LENGTH (MB)   RECORD NAMES
              1      19       19.89       500      610      700      900      950      970     1000      129      960     1100   
                                          VAR    BASINP    GEOM    SYMINP    ZMAT    AOBASIS   BASIS     P2S    ABASIS      S 
                                         1400     1410     1420     1200     1210     1080     1600     1650     1700   
                                           T        V       ECP      H0       H01     AOSYM     SMH    MOLCAS    OPER   

 PROGRAMS   *        TOTAL       INT
 CPU TIMES  *         0.76      0.54
 REAL TIME  *         2.16 SEC
 DISK USED  *        63.33 MB      
 GA USED    *         0.00 MB       (max)       0.00 MB       (current)
 **********************************************************************************************************************************


 PROGRAM * RHF-SCF (OPEN SHELL)       Authors: W. Meyer, H.-J. Werner


 NUMBER OF ELECTRONS:      10+    7-    SPACE SYMMETRY=1    SPIN SYMMETRY: Quartet 
 CONVERGENCE THRESHOLDS:    1.00E-05 (Density)    1.00E-07 (Energy)
 MAX. NUMBER OF ITERATIONS:       60
 INTERPOLATION TYPE:            DIIS
 INTERPOLATION STEPS:              2 (START)      1 (STEP)
 LEVEL SHIFTS:                 -0.60 (CLOSED) -0.30 (OPEN) 

 Number of closed-shell orbitals:    7 (   4   1   1   0   1   0   0 )
 Number of open-shell orbitals:      3 (   0   0   0   1   0   1   1 )


 
 Extra symmetries of mos in symmetry 1:   1   1   3   2

   Atom=IR basis=cc-pVTZ-PP        lmin=0  lmax=2

 Orbital guess generated from atomic densities. Full valence occupancy:    4   1   1   1   1   1   1   0


 Molecular orbital dump at record        4202.2

 ITERATION    DDIFF          GRAD             ENERGY        2-EL.EN.            DIPOLE MOMENTS         DIIS   ORB.
    1      0.000D+00      0.000D+00      -103.66142510    153.069499    0.00000    0.00000    0.00000    0    start
    2      0.000D+00      0.875D-02      -103.66487953    153.000677    0.00000    0.00000    0.00000    1    diag,B
    3      0.413D-02      0.271D-02      -103.66573733    153.075468    0.00000    0.00000    0.00000    2    diag,B
    4      0.269D-02      0.120D-02      -103.66594036    153.029304    0.00000    0.00000    0.00000    3    diag,B
    5      0.179D-02      0.505D-03      -103.66598422    152.980618    0.00000    0.00000    0.00000    4    diag,B
    6      0.123D-02      0.108D-03      -103.66598584    152.972235    0.00000    0.00000    0.00000    5    diag,B
    7      0.233D-03      0.335D-04      -103.66598598    152.972950    0.00000    0.00000    0.00000    6    fixocc
    8      0.608D-04      0.412D-05      -103.66598598    152.972529    0.00000    0.00000    0.00000    7    diag,B
    9      0.307D-05      0.840D-06      -103.66598598    152.972610    0.00000    0.00000    0.00000    0    orth

 Final alpha occupancy:   4   1   1   1   1   1   1
 Final beta  occupancy:   4   1   1   0   1   0   0

 !RHF STATE 1.1 Energy               -103.665985980521
 Nuclear energy                         0.00000000
 One-electron energy                 -180.15229115
 Two-electron energy                   76.48630517
 Virial quotient                       -2.97344051
 !RHF STATE 1.1 Dipole moment           0.00000000     0.00000000     0.00000000
 Dipole moment /Debye                   0.00000000     0.00000000     0.00000000

 ELECTRON ORBITALS
 =================


   Orb  Occ    Energy  Couls-En    Coefficients

                                   1 1s      1 1s      1 1s      1 1s      1 3d0     1 3d2+    1 3d0     1 3d2+    1 3d0     1 3d2+ 


   1.1   2    -4.2244  -18.8543  1.000000  0.000046 -0.000054  0.000034 -0.000000  0.000000 -0.000000 -0.000000  0.000000  0.000000

   2.1   2    -0.2965   -6.2571 -0.000045  0.999989  0.000665  0.000089  0.000000  0.000000  0.000000  0.000000 -0.000000 -0.000000

   3.1   2    -0.4570   -9.5365 -0.000000  0.000000 -0.000000 -0.000000 -0.005813  0.999853 -0.000061  0.010517  0.000022 -0.003789

   4.1   2    -0.4570   -9.5365  0.000000 -0.000000  0.000000  0.000000  0.999853  0.005813  0.010517  0.000061 -0.003789 -0.000022

                                   1 2px     1 2px     1 2px     1 2px  

   1.2   2    -2.4548  -14.9761  1.000000  0.000073  0.000074  0.000030

                                   1 2py     1 2py     1 2py     1 2py  

   1.3   2    -2.4548  -14.9761  1.000000  0.000073  0.000074  0.000030

                                   1 3d2-    1 3d2-    1 3d2- 

   1.4   +    -0.5271   -9.7022  0.999953 -0.016516  0.005836

                                   1 2pz     1 2pz     1 2pz     1 2pz  

   1.5   2    -2.4548  -14.9761  1.000000  0.000073  0.000074  0.000030

                                   1 3d1+    1 3d1+    1 3d1+ 

   1.6   +    -0.5271   -9.7022  0.999953 -0.016516  0.005836

                                   1 3d1-    1 3d1-    1 3d1- 

   1.7   +    -0.5271   -9.7022  0.999953 -0.016516  0.005836

 HOMO      4.1    -0.456954 =     -12.4343eV
 LUMO      2.2     0.089086 =       2.4242eV
 LUMO-HOMO         0.546040 =      14.8585eV


 **********************************************************************************************************************************
 DATASETS  * FILE   NREC   LENGTH (MB)   RECORD NAMES
              1      19       19.89       500      610      700      900      950      970     1000      129      960     1100   
                                          VAR    BASINP    GEOM    SYMINP    ZMAT    AOBASIS   BASIS     P2S    ABASIS      S 
                                         1400     1410     1420     1200     1210     1080     1600     1650     1700   
                                           T        V       ECP      H0       H01     AOSYM     SMH    MOLCAS    OPER   

              2       4        2.76       700     1000      520     4202   
                                         GEOM     BASIS   MCVARS     RHF  

 PROGRAMS   *        TOTAL       RHF       INT
 CPU TIMES  *         0.80      0.04      0.54
 REAL TIME  *         2.30 SEC
 DISK USED  *       404.15 MB      
 SF USED    *         0.00 MB      
 GA USED    *         0.00 MB       (max)       0.00 MB       (current)
 **********************************************************************************************************************************


 PROGRAM * POP (Mulliken population analysis)

 
 Density matrix read from record         4202.2  Type=RHF/CHARGE (state 1.1)
 
 Population analysis by basis function type

 Unique atom        s        p        d        f        g    Total    Charge
   1  IR      4.00000  6.00000  7.00000  0.00000  0.00000 17.00000  - 0.00000


 **********************************************************************************************************************************
 DATASETS  * FILE   NREC   LENGTH (MB)   RECORD NAMES
              1      19       19.89       500      610      700      900      950      970     1000      129      960     1100   
                                          VAR    BASINP    GEOM    SYMINP    ZMAT    AOBASIS   BASIS     P2S    ABASIS      S 
                                         1400     1410     1420     1200     1210     1080     1600     1650     1700   
                                           T        V       ECP      H0       H01     AOSYM     SMH    MOLCAS    OPER   

              2       4        2.76       700     1000      520     4202   
                                         GEOM     BASIS   MCVARS     RHF  

 PROGRAMS   *        TOTAL       POP       RHF       INT
 CPU TIMES  *         0.80      0.00      0.04      0.54
 REAL TIME  *         2.36 SEC
 DISK USED  *       404.15 MB      
 SF USED    *         0.00 MB      
 GA USED    *         0.00 MB       (max)       0.00 MB       (current)
 **********************************************************************************************************************************


 PROGRAM * MULTI (Direct Multiconfiguration SCF)       Authors: P.J. Knowles, H.-J. Werner (1984)     S.T. Elbert (1988)


 Number of frozen core orbitals:    5 (   2   1   1   0   1   0   0   0 )
 Number of active  orbitals:        5 (   2   0   0   1   0   1   1   0 )
 Number of external orbitals:      21 (   6   3   3   2   3   2   2   0 )

 State symmetry 1

 Number of electrons:     7    Spin symmetry=Quartet   Space symmetry=1
 Number of states:        1
 Number of CSFs:          1   (1 determinants, 10 intermediate states)

 State symmetry 2

 Number of electrons:     7    Spin symmetry=Quartet   Space symmetry=4
 Number of states:        3
 Number of CSFs:          3   (3 determinants, 10 intermediate states)

 State symmetry 3

 Number of electrons:     7    Spin symmetry=Quartet   Space symmetry=6
 Number of states:        3
 Number of CSFs:          3   (3 determinants, 10 intermediate states)

 State symmetry 4

 Number of electrons:     7    Spin symmetry=Quartet   Space symmetry=7
 Number of states:        3
 Number of CSFs:          3   (3 determinants, 10 intermediate states)

 Iteration controls:
             1  2  3  4  5  6  7  8  9 10 11 12 13 14 15 16 17 18 19 20 21 22 23 24 25 26 27 28 29 30 31 32 33 34 35 36 37 38 39
 DIAGCI      T  T  T  T  T  T  T  T  T  T  T  T  T  T  T  T  T  T  T  T  T  T  T  T  T  T  T  T  T  T  T  T  T  T  T  T  T  T  T
 WERNER      T  T  T  T  T  T  T  T  T  T  T  T  T  T  T  T  T  T  T  T  T  T  T  T  T  T  T  T  T  T  T  T  T  T  T  T  T  T  T
 INTERNAL    F  T  T  T  T  T  T  T  T  T  T  T  T  T  T  T  T  T  T  T  T  T  T  T  T  T  T  T  T  T  T  T  T  T  T  T  T  T  T

 Valence orbitals read from record       4202.2  Type=RHF/CANONICAL (state 1.1)
 Frozen core orbitals read from record   4202.2  Type=RHF/CANONICAL (state 1.1)
 *** IN SYMMETRY 1 ORBITAL  3 SYMMETRY CONTAMINATION OF 0.578D-02 HAS BEEN REMOVED
 *** IN SYMMETRY 1 ORBITAL  4 SYMMETRY CONTAMINATION OF 0.578D-02 HAS BEEN REMOVED

 EXTRA SYMMETRY OF MOS IN SYMMETRY 1:   0 0 3 2 1 3 2 1 3 2

 Wavefunction dump at record             4203.2

 Convergence thresholds  0.10E-01 (gradient)  0.10E-05 (energy)  0.10E-02 (step length)

 Weight factors for state symmetry  1:    0.10000
 Weight factors for state symmetry  2:    0.10000   0.10000   0.10000
 Weight factors for state symmetry  3:    0.10000   0.10000   0.10000
 Weight factors for state symmetry  4:    0.10000   0.10000   0.10000

 Number of orbital rotations:       18   (     0 Core/Active      0 Core/Virtual   0 Active/Active     18 Active/Virtual)
 Total number of variables:         46


 ITER. MIC  NCI  NEG     ENERGY(VAR)     ENERGY(PROJ)   ENERGY CHANGE     GRAD(0)  GRAD(ORB)   GRAD(CI)     STEP       TIME

   1   23   16    0    -103.64681718    -103.64804399   -0.00122681    0.03833895 0.00000000 0.00000000  0.34D-01      0.05
   2   12   16    0    -103.64804741    -103.64804744   -0.00000003    0.00022167 0.00000000 0.00000000  0.14D-03      0.06
   3   65   44    0    -103.64804744    -103.64804744    0.00000000    0.00000001 0.00000000 0.00000000  0.40D-08      0.10

 ** WVFN ****  CONVERGENCE REACHED, FINAL GRADIENT:  0.70D-15



 Results for state 1.1
 =====================

 !MCSCF STATE 1.1 Energy             -103.665041250273
 Nuclear energy                         0.00000000
 Kinetic energy                        34.84825686
 One electron energy                 -180.13338895
 Two electron energy                   76.46834769
 Virial ratio                           3.97475543

 !MCSCF STATE 1.1 Dipole moment         0.00000000     0.00000000     0.00000000
 Dipole moment /Debye                   0.00000000     0.00000000     0.00000000



 Results for state 1.4
 =====================

 !MCSCF STATE 1.4 Energy             -103.665041250273
 Nuclear energy                         0.00000000
 Kinetic energy                        34.84825686
 One electron energy                 -180.13338895
 Two electron energy                   76.46834769
 Virial ratio                           3.97475543

 !MCSCF STATE 1.4 Dipole moment         0.00000000     0.00000000     0.00000000
 Dipole moment /Debye                   0.00000000     0.00000000     0.00000000

 Results for state 2.4
 =====================

 !MCSCF STATE 2.4 Energy             -103.665041250273
 Nuclear energy                         0.00000000
 Kinetic energy                        34.84825686
 One electron energy                 -180.13338895
 Two electron energy                   76.46834769
 Virial ratio                           3.97475543

 !MCSCF STATE 2.4 Dipole moment         0.00000000     0.00000000     0.00000000
 Dipole moment /Debye                   0.00000000     0.00000000     0.00000000

 Results for state 3.4
 =====================

 !MCSCF STATE 3.4 Energy             -103.608395209587
 Nuclear energy                         0.00000000
 Kinetic energy                        34.84825686
 One electron energy                 -180.13338895
 Two electron energy                   76.52499374
 Virial ratio                           3.97312992

 !MCSCF STATE 3.4 Dipole moment         0.00000000     0.00000000     0.00000000
 Dipole moment /Debye                   0.00000000     0.00000000     0.00000000



 Results for state 1.6
 =====================

 !MCSCF STATE 1.6 Energy             -103.665041250273
 Nuclear energy                         0.00000000
 Kinetic energy                        34.84825686
 One electron energy                 -180.13338895
 Two electron energy                   76.46834769
 Virial ratio                           3.97475543

 !MCSCF STATE 1.6 Dipole moment         0.00000000     0.00000000     0.00000000
 Dipole moment /Debye                   0.00000000     0.00000000     0.00000000

 Results for state 2.6
 =====================

 !MCSCF STATE 2.6 Energy             -103.665041250273
 Nuclear energy                         0.00000000
 Kinetic energy                        34.84825686
 One electron energy                 -180.13338895
 Two electron energy                   76.46834769
 Virial ratio                           3.97475543

 !MCSCF STATE 2.6 Dipole moment         0.00000000     0.00000000     0.00000000
 Dipole moment /Debye                   0.00000000     0.00000000     0.00000000

 Results for state 3.6
 =====================

 !MCSCF STATE 3.6 Energy             -103.608395209587
 Nuclear energy                         0.00000000
 Kinetic energy                        34.84825686
 One electron energy                 -180.13338895
 Two electron energy                   76.52499374
 Virial ratio                           3.97312992

 !MCSCF STATE 3.6 Dipole moment         0.00000000     0.00000000     0.00000000
 Dipole moment /Debye                   0.00000000     0.00000000     0.00000000



 Results for state 1.7
 =====================

 !MCSCF STATE 1.7 Energy             -103.665041250273
 Nuclear energy                         0.00000000
 Kinetic energy                        34.84825686
 One electron energy                 -180.13338895
 Two electron energy                   76.46834769
 Virial ratio                           3.97475543

 !MCSCF STATE 1.7 Dipole moment         0.00000000     0.00000000     0.00000000
 Dipole moment /Debye                   0.00000000     0.00000000     0.00000000

 Results for state 2.7
 =====================

 !MCSCF STATE 2.7 Energy             -103.665041250273
 Nuclear energy                         0.00000000
 Kinetic energy                        34.84825686
 One electron energy                 -180.13338895
 Two electron energy                   76.46834769
 Virial ratio                           3.97475543

 !MCSCF STATE 2.7 Dipole moment         0.00000000     0.00000000     0.00000000
 Dipole moment /Debye                   0.00000000     0.00000000     0.00000000

 Results for state 3.7
 =====================

 !MCSCF STATE 3.7 Energy             -103.608395209587
 Nuclear energy                         0.00000000
 Kinetic energy                        34.84825686
 One electron energy                 -180.13338895
 Two electron energy                   76.52499374
 Virial ratio                           3.97312992

 !MCSCF STATE 3.7 Dipole moment         0.00000000     0.00000000     0.00000000
 Dipole moment /Debye                   0.00000000     0.00000000     0.00000000

 State-averaged charge density matrix saved on record  4203.2 (density set 1)


 NATURAL ORBITALS (state averaged)
 =================================

   Orb     Occ        Energy       Coefficients

                                   1 1s      1 1s      1 1s      1 1s      1 3d0     1 3d2+    1 3d0     1 3d2+    1 3d0     1 3d2+ 


   3.1  1.40000    -0.308440     0.000000  0.000000  0.000000  0.000000  1.000001  0.000000 -0.000098  0.000000  0.000020  0.000000

   4.1  1.40000    -0.308440     0.000000  0.000000  0.000000  0.000000  0.000000  1.000001  0.000000 -0.000098  0.000000  0.000020

                                   1 3d2-    1 3d2-    1 3d2- 

   1.4  1.40000    -0.308440     1.000001 -0.000098  0.000020

                                   1 3d1+    1 3d1+    1 3d1+ 

   1.6  1.40000    -0.308440     1.000001 -0.000098  0.000020

                                   1 3d1-    1 3d1-    1 3d1- 

   1.7  1.40000    -0.308440     1.000001 -0.000098  0.000020
 

 EXTRA SYMMETRY OF MOS IN SYMMETRY 1:   0 0 2 3 1 2 3 1 2 3

 Natural orbital dump (state averaged) at molpro section  4203.2    (Orbital set 2)



 **********************************************************************************************************************************
 DATASETS  * FILE   NREC   LENGTH (MB)   RECORD NAMES
              1      20       19.92       500      610      700      900      950      970     1000      129      960     1100   
                                          VAR    BASINP    GEOM    SYMINP    ZMAT    AOBASIS   BASIS     P2S    ABASIS      S 
                                         1400     1410     1420     1200     1210     1080     1600     1650     1700     1380   
                                           T        V       ECP      H0       H01     AOSYM     SMH    MOLCAS    OPER     JKOP   

              2       5        5.25       700     1000      520     4202     4203   
                                         GEOM     BASIS   MCVARS     RHF     MCSCF   

 PROGRAMS   *        TOTAL     MULTI       POP       RHF       INT
 CPU TIMES  *         1.00      0.20      0.00      0.04      0.54
 REAL TIME  *         3.30 SEC
 DISK USED  *       404.15 MB      
 SF USED    *        11.88 MB      
 GA USED    *         0.00 MB       (max)       0.00 MB       (current)
 **********************************************************************************************************************************


 PROGRAM * MULTI (Direct Multiconfiguration SCF)       Authors: P.J. Knowles, H.-J. Werner (1984)     S.T. Elbert (1988)


 Number of closed-shell orbitals:   5 (   2   1   1   0   1   0   0   0 )
 Number of active  orbitals:        5 (   2   0   0   1   0   1   1   0 )
 Number of external orbitals:      21 (   6   3   3   2   3   2   2   0 )

 State symmetry 1

 Number of electrons:     7    Spin symmetry=Quartet   Space symmetry=1
 Number of states:        1
 Number of CSFs:          1   (1 determinants, 10 intermediate states)

 State symmetry 2

 Number of electrons:     7    Spin symmetry=Quartet   Space symmetry=4
 Number of states:        3
 Number of CSFs:          3   (3 determinants, 10 intermediate states)

 State symmetry 3

 Number of electrons:     7    Spin symmetry=Quartet   Space symmetry=6
 Number of states:        3
 Number of CSFs:          3   (3 determinants, 10 intermediate states)

 State symmetry 4

 Number of electrons:     7    Spin symmetry=Quartet   Space symmetry=7
 Number of states:        3
 Number of CSFs:          3   (3 determinants, 10 intermediate states)

 Iteration controls:
             1  2  3  4  5  6  7  8  9 10 11 12 13 14 15 16 17 18 19 20 21 22 23 24 25 26 27 28 29 30 31 32 33 34 35 36 37 38 39
 DIAGCI      T  T  T  T  T  T  T  T  T  T  T  T  T  T  T  T  T  T  T  T  T  T  T  T  T  T  T  T  T  T  T  T  T  T  T  T  T  T  T
 WERNER      T  T  T  T  T  T  T  T  T  T  T  T  T  T  T  T  T  T  T  T  T  T  T  T  T  T  T  T  T  T  T  T  T  T  T  T  T  T  T
 INTERNAL    F  T  T  T  T  T  T  T  T  T  T  T  T  T  T  T  T  T  T  T  T  T  T  T  T  T  T  T  T  T  T  T  T  T  T  T  T  T  T

 Molecular orbitals read from record     4203.2  Type=MCSCF/NATURAL (state averaged)

 EXTRA SYMMETRY OF MOS IN SYMMETRY 1:   1 1 2 3 1 2 3 1 2 3

 Wavefunction dump at record             5202.2

 Convergence thresholds  0.10E-01 (gradient)  0.10E-05 (energy)  0.10E-02 (step length)

 Weight factors for state symmetry  1:    0.10000
 Weight factors for state symmetry  2:    0.10000   0.10000   0.10000
 Weight factors for state symmetry  3:    0.10000   0.10000   0.10000
 Weight factors for state symmetry  4:    0.10000   0.10000   0.10000

 Number of orbital rotations:       43   (     4 Core/Active     21 Core/Virtual   0 Active/Active     18 Active/Virtual)
 Total number of variables:         71


 ITER. MIC  NCI  NEG     ENERGY(VAR)     ENERGY(PROJ)   ENERGY CHANGE     GRAD(0)  GRAD(ORB)   GRAD(CI)     STEP       TIME

   1   37   20    0    -103.64804744    -103.64804819   -0.00000075    0.00179040 0.00000000 0.00000000  0.73D-03      0.03
   2   50   48    0    -103.64804819    -103.64804819   -0.00000000    0.00000024 0.00000000 0.00000000  0.12D-06      0.10

 ** WVFN ****  CONVERGENCE REACHED, FINAL GRADIENT:  0.43D-14



 Results for state 1.1
 =====================

 !MCSCF STATE 1.1 Energy             -103.665040257383
 Nuclear energy                         0.00000000
 Kinetic energy                        34.85059860
 One electron energy                 -180.13768379
 Two electron energy                   76.47264353
 Virial ratio                           3.97455551

 !MCSCF STATE 1.1 Dipole moment         0.00000000     0.00000000     0.00000000
 Dipole moment /Debye                   0.00000000     0.00000000     0.00000000



 Results for state 1.4
 =====================

 !MCSCF STATE 1.4 Energy             -103.665040257383
 Nuclear energy                         0.00000000
 Kinetic energy                        34.85059860
 One electron energy                 -180.13768379
 Two electron energy                   76.47264353
 Virial ratio                           3.97455551

 !MCSCF STATE 1.4 Dipole moment         0.00000000     0.00000000     0.00000000
 Dipole moment /Debye                   0.00000000     0.00000000     0.00000000

 Results for state 2.4
 =====================

 !MCSCF STATE 2.4 Energy             -103.665040257383
 Nuclear energy                         0.00000000
 Kinetic energy                        34.85059860
 One electron energy                 -180.13768379
 Two electron energy                   76.47264353
 Virial ratio                           3.97455551

 !MCSCF STATE 2.4 Dipole moment         0.00000000     0.00000000     0.00000000
 Dipole moment /Debye                   0.00000000     0.00000000     0.00000000

 Results for state 3.4
 =====================

 !MCSCF STATE 3.4 Energy             -103.608400026839
 Nuclear energy                         0.00000000
 Kinetic energy                        34.85059860
 One electron energy                 -180.13768379
 Two electron energy                   76.52928376
 Virial ratio                           3.97293028

 !MCSCF STATE 3.4 Dipole moment         0.00000000     0.00000000     0.00000000
 Dipole moment /Debye                   0.00000000     0.00000000     0.00000000



 Results for state 1.6
 =====================

 !MCSCF STATE 1.6 Energy             -103.665040257383
 Nuclear energy                         0.00000000
 Kinetic energy                        34.85059860
 One electron energy                 -180.13768379
 Two electron energy                   76.47264353
 Virial ratio                           3.97455551

 !MCSCF STATE 1.6 Dipole moment         0.00000000     0.00000000     0.00000000
 Dipole moment /Debye                   0.00000000     0.00000000     0.00000000

 Results for state 2.6
 =====================

 !MCSCF STATE 2.6 Energy             -103.665040257383
 Nuclear energy                         0.00000000
 Kinetic energy                        34.85059860
 One electron energy                 -180.13768379
 Two electron energy                   76.47264353
 Virial ratio                           3.97455551

 !MCSCF STATE 2.6 Dipole moment         0.00000000     0.00000000     0.00000000
 Dipole moment /Debye                   0.00000000     0.00000000     0.00000000

 Results for state 3.6
 =====================

 !MCSCF STATE 3.6 Energy             -103.608400026839
 Nuclear energy                         0.00000000
 Kinetic energy                        34.85059860
 One electron energy                 -180.13768379
 Two electron energy                   76.52928376
 Virial ratio                           3.97293028

 !MCSCF STATE 3.6 Dipole moment         0.00000000     0.00000000     0.00000000
 Dipole moment /Debye                   0.00000000     0.00000000     0.00000000



 Results for state 1.7
 =====================

 !MCSCF STATE 1.7 Energy             -103.665040257383
 Nuclear energy                         0.00000000
 Kinetic energy                        34.85059860
 One electron energy                 -180.13768379
 Two electron energy                   76.47264353
 Virial ratio                           3.97455551

 !MCSCF STATE 1.7 Dipole moment         0.00000000     0.00000000     0.00000000
 Dipole moment /Debye                   0.00000000     0.00000000     0.00000000

 Results for state 2.7
 =====================

 !MCSCF STATE 2.7 Energy             -103.665040257383
 Nuclear energy                         0.00000000
 Kinetic energy                        34.85059860
 One electron energy                 -180.13768379
 Two electron energy                   76.47264353
 Virial ratio                           3.97455551

 !MCSCF STATE 2.7 Dipole moment         0.00000000     0.00000000     0.00000000
 Dipole moment /Debye                   0.00000000     0.00000000     0.00000000

 Results for state 3.7
 =====================

 !MCSCF STATE 3.7 Energy             -103.608400026839
 Nuclear energy                         0.00000000
 Kinetic energy                        34.85059860
 One electron energy                 -180.13768379
 Two electron energy                   76.52928376
 Virial ratio                           3.97293028

 !MCSCF STATE 3.7 Dipole moment         0.00000000     0.00000000     0.00000000
 Dipole moment /Debye                   0.00000000     0.00000000     0.00000000

 State-averaged charge density matrix saved on record  5202.2 (density set 1)


 NATURAL ORBITALS (state averaged)
 =================================

   Orb     Occ        Energy       Coefficients

                                   1 1s      1 1s      1 1s      1 1s      1 3d0     1 3d2+    1 3d0     1 3d2+    1 3d0     1 3d2+ 


   1.1  2.00000    -4.225788     1.000000  0.000000  0.000000 -0.000000  0.000000  0.000000  0.000000  0.000000  0.000000  0.000000

   2.1  2.00000    -0.296846    -0.000000  1.000000 -0.000000  0.000000  0.000000  0.000000  0.000000  0.000000  0.000000  0.000000

   3.1  1.40000    -0.308193     0.000000  0.000000  0.000000  0.000000  0.000000  1.000000  0.000000 -0.000000  0.000000 -0.000000

   4.1  1.40000    -0.308193     0.000000  0.000000  0.000000  0.000000  1.000000  0.000000 -0.000000  0.000000 -0.000000  0.000000

                                   1 2px     1 2px     1 2px     1 2px  

   1.2  2.00000    -2.456013     1.000000  0.000001 -0.000000 -0.000000

                                   1 2py     1 2py     1 2py     1 2py  

   1.3  2.00000    -2.456013     1.000000  0.000001 -0.000000 -0.000000

                                   1 3d2-    1 3d2-    1 3d2- 

   1.4  1.40000    -0.308193     1.000000 -0.000000 -0.000000

                                   1 2pz     1 2pz     1 2pz     1 2pz  

   1.5  2.00000    -2.456013     1.000000  0.000001 -0.000000 -0.000000

                                   1 3d1+    1 3d1+    1 3d1+ 

   1.6  1.40000    -0.308193     1.000000 -0.000000 -0.000000

                                   1 3d1-    1 3d1-    1 3d1- 

   1.7  1.40000    -0.308193     1.000000 -0.000000 -0.000000
 

 EXTRA SYMMETRY OF MOS IN SYMMETRY 1:   1 1 3 2 1 2 3 1 2 3

 Natural orbital dump (state averaged) at molpro section  5202.2    (Orbital set 2)


 CI vector for state symmetry 1
 ==============================

 22 a a a          1.0000000

 TOTAL ENERGIES                      -103.66504026

 CI vector for state symmetry 2
 ==============================

 a2 2 a a          0.0000000   1.0000000   0.0000000
 2a 2 a a          0.4472136   0.0000000   0.8944272
 aa a 2 2          0.8944272   0.0000000  -0.4472136

 TOTAL ENERGIES                      -103.66504026  -103.66504026  -103.60840003

 CI vector for state symmetry 3
 ==============================

 aa 2 a 2          0.8873583  -0.1122284  -0.4472136
 2a a 2 a          0.3305043   0.8311239   0.4472136
 a2 a 2 a          0.3214998  -0.5446447   0.7745967

 TOTAL ENERGIES                      -103.66504026  -103.66504026  -103.60840003

 CI vector for state symmetry 4
 ==============================

 aa 2 2 a          0.8707200   0.2045644  -0.4472136
 2a a a 2         -0.4157487   0.7919299  -0.4472136
 a2 a a 2          0.2626778   0.5753263   0.7745967

 TOTAL ENERGIES                      -103.66504026  -103.66504026  -103.60840003



 **********************************************************************************************************************************
 DATASETS  * FILE   NREC   LENGTH (MB)   RECORD NAMES
              1      20       19.99       500      610      700      900      950      970     1000      129      960     1100   
                                          VAR    BASINP    GEOM    SYMINP    ZMAT    AOBASIS   BASIS     P2S    ABASIS      S 
                                         1400     1410     1420     1200     1210     1080     1600     1650     1700     1380   
                                           T        V       ECP      H0       H01     AOSYM     SMH    MOLCAS    OPER     JKOP   

              2       6        7.76       700     1000      520     4202     4203     5202   
                                         GEOM     BASIS   MCVARS     RHF     MCSCF    MCSCF   

 PROGRAMS   *        TOTAL     MULTI     MULTI       POP       RHF       INT
 CPU TIMES  *         1.15      0.15      0.20      0.00      0.04      0.54
 REAL TIME  *         4.30 SEC
 DISK USED  *       404.15 MB      
 SF USED    *        12.02 MB      
 GA USED    *         0.00 MB       (max)       0.00 MB       (current)
 **********************************************************************************************************************************


 PROGRAM * RHF-SCF (OPEN SHELL)       Authors: W. Meyer, H.-J. Werner


 NUMBER OF ELECTRONS:      10+    7-    SPACE SYMMETRY=1    SPIN SYMMETRY: Quartet 
 CONVERGENCE THRESHOLDS:    1.00E-05 (Density)    1.00E-07 (Energy)
 MAX. NUMBER OF ITERATIONS:        0
 INTERPOLATION TYPE:            DIIS
 INTERPOLATION STEPS:              2 (START)      1 (STEP)
 LEVEL SHIFTS:                 -0.60 (CLOSED) -0.30 (OPEN) 

 Number of closed-shell orbitals:    7 (   4   1   1   0   1   0   0 )
 Number of open-shell orbitals:      3 (   0   0   0   1   0   1   1 )


 Molecular orbitals read from record     5202.2  Type=MCSCF/NATURAL (state averaged)

 Molecular orbital dump at record        2101.2

 ITERATION    DDIFF          GRAD             ENERGY        2-EL.EN.            DIPOLE MOMENTS         DIIS   ORB.
    1      0.000D+00      0.000D+00      -103.66504026    152.945287    0.00000    0.00000    0.00000    0    start

 Final alpha occupancy:   4   1   1   1   1   1   1
 Final beta  occupancy:   4   1   1   0   1   0   0

 !RHF STATE 1.1 Energy               -103.665040257383
 Nuclear energy                         0.00000000
 One-electron energy                 -180.13768379
 Two-electron energy                   76.47264353
 Virial quotient                       -2.97455551
 !RHF STATE 1.1 Dipole moment           0.00000000     0.00000000     0.00000000
 Dipole moment /Debye                   0.00000000     0.00000000     0.00000000

 ELECTRON ORBITALS
 =================


   Orb  Occ    Energy  Couls-En    Coefficients

                                   1 1s      1 1s      1 1s      1 1s      1 3d0     1 3d2+    1 3d0     1 3d2+    1 3d0     1 3d2+ 


   1.1   2    -4.2258  -18.8559  1.000000  0.000000  0.000000 -0.000000  0.000000  0.000000  0.000000  0.000000  0.000000  0.000000

   2.1   2    -0.2968   -6.2598 -0.000000  1.000000 -0.000000  0.000000  0.000000  0.000000  0.000000  0.000000  0.000000  0.000000

   3.1   2    -0.3082   -9.4256  0.000000  0.000000  0.000000  0.000000  0.000000  1.000000  0.000000 -0.000000  0.000000 -0.000000

   4.1   2    -0.3082   -9.4256  0.000000  0.000000  0.000000  0.000000  1.000000  0.000000 -0.000000  0.000000 -0.000000  0.000000

   5.1   0     0.2799   -4.0961  0.000000 -0.016126  0.929338  0.369581  0.000000  0.000000  0.000000  0.000000  0.000000  0.000000

   6.1   0     0.5524   -4.4090  0.000000  0.000000  0.000000  0.000000 -0.005791  0.000000  0.896717  0.000000 -0.442643  0.000000

                                   1 2px     1 2px     1 2px     1 2px  

   1.2   2    -2.4560  -14.9776  1.000000  0.000001 -0.000000 -0.000000

   2.2   0     0.0999   -4.6044  0.000001  0.929436 -0.348776  0.120431

   3.2   0     0.7330   -4.6013 -0.000000  0.367430  0.844934 -0.388692

                                   1 2py     1 2py     1 2py     1 2py  

   1.3   2    -2.4560  -14.9776  1.000000  0.000001 -0.000000 -0.000000

   2.3   0     0.0999   -4.6044  0.000001  0.929436 -0.348776  0.120431

   3.3   0     0.7330   -4.6013 -0.000000  0.367430  0.844934 -0.388692

                                   1 3d2-    1 3d2-    1 3d2- 

   1.4   +    -0.3082   -9.4256  1.000000 -0.000000 -0.000000

   2.4   0     0.5524   -4.4090 -0.005791  0.896717 -0.442643

   3.4   0     2.5542   -3.8455 -0.002570  0.442651  0.896698

                                   1 2pz     1 2pz     1 2pz     1 2pz  

   1.5   2    -2.4560  -14.9776  1.000000  0.000001 -0.000000 -0.000000

   2.5   0     0.0999   -4.6044  0.000001  0.929436 -0.348776  0.120431

   3.5   0     0.7330   -4.6013 -0.000000  0.367430  0.844934 -0.388692

                                   1 3d1+    1 3d1+    1 3d1+ 

   1.6   +    -0.3082   -9.4256  1.000000 -0.000000 -0.000000

   2.6   0     0.5524   -4.4090 -0.005791  0.896717 -0.442643

   3.6   0     2.5542   -3.8455 -0.002570  0.442651  0.896698

                                   1 3d1-    1 3d1-    1 3d1- 

   1.7   +    -0.3082   -9.4256  1.000000 -0.000000 -0.000000

   2.7   0     0.5524   -4.4090 -0.005791  0.896717 -0.442643

   3.7   0     2.5542   -3.8455 -0.002570  0.442651  0.896698

 HOMO      4.1    -0.308193 =      -8.3864eV
 LUMO      2.2     0.099939 =       2.7195eV
 LUMO-HOMO         0.408132 =      11.1058eV


 **********************************************************************************************************************************
 DATASETS  * FILE   NREC   LENGTH (MB)   RECORD NAMES
              1      20       19.99       500      610      700      900      950      970     1000      129      960     1100   
                                          VAR    BASINP    GEOM    SYMINP    ZMAT    AOBASIS   BASIS     P2S    ABASIS      S 
                                         1400     1410     1420     1200     1210     1080     1600     1650     1700     1380   
                                           T        V       ECP      H0       H01     AOSYM     SMH    MOLCAS    OPER     JKOP   

              2       7       10.26       700     1000      520     4202     4203     5202     2101   
                                         GEOM     BASIS   MCVARS     RHF     MCSCF    MCSCF     RHF  

 PROGRAMS   *        TOTAL       RHF     MULTI     MULTI       POP       RHF       INT
 CPU TIMES  *         1.23      0.08      0.15      0.20      0.00      0.04      0.54
 REAL TIME  *         4.42 SEC
 DISK USED  *       404.15 MB      
 SF USED    *        12.02 MB      
 GA USED    *         0.00 MB       (max)       0.00 MB       (current)
 **********************************************************************************************************************************


 PROGRAM * CI (Multireference internally contracted CI)     Authors: H.-J. Werner, P.J. Knowles, 1987


 Convergence thresholds:  THRVAR = 1.00D-08  THRDEN = 1.00D-06

 Number of optimized states:  1  Roots:   1
 Number of reference states:  1  Roots:   1

 Reference symmetry:                   1   Quartet 
 Number of electrons:                 17
 Maximum number of shells:             3
 Maximum number of spin couplings:    14

 Reference space:        1 conf        1 CSFs
 N elec internal:       19 conf       19 CSFs
 N-1 el internal:       42 conf       78 CSFs
 N-2 el internal:       18 conf       93 CSFs

 Number of electrons in valence space:                      9
 Maximum number of open shell orbitals in reference space:  3
 Maximum number of open shell orbitals in internal spaces:  7


 Number of core orbitals:           4 (   1   1   1   0   1   0   0 )
 Number of closed-shell orbitals:   3 (   3   0   0   0   0   0   0 )
 Number of active  orbitals:        3 (   0   0   0   1   0   1   1 )
 Number of external orbitals:      21 (   6   3   3   2   3   2   2 )

 Molecular orbitals read from record     2101.2  Type=RHF/CANONICAL (state 1.1)

 Coulomb and exchange operators available. No transformation done.

 Number of p-space configurations:   1

 Reference wavefunction optimized for reference space (refopt=1)

 State     Reference Energy 
   1        -103.66504026

 Number of blocks in overlap matrix:    30   Smallest eigenvalue:  0.10D+01
 Number of N-2 electron functions:      30
 Number of N-1 electron functions:      78

 Number of internal configurations:                    1
 Number of singly external configurations:           204
 Number of doubly external configurations:           894
 Total number of contracted configurations:         1099
 Total number of uncontracted configurations:       2953

 Diagonal Coupling coefficients finished.               Storage:    6173 words, CPU-Time:      0.00 seconds.
 Energy denominators for pairs finished in 1 passes.    Storage:    4401 words, CPU-time:      0.00 seconds.

  ITER. STATE  ROOT     SQ.NORM     CORR.ENERGY   TOTAL ENERGY   ENERGY CHANGE       DEN1      VAR(S)    VAR(P)      TIME
    1     1     1     1.00000000     0.00000000  -103.66504026    -0.00000000    -0.08909008  0.69D-02  0.61D-01     0.05
    2     1     1     1.06624935    -0.08817719  -103.75321745    -0.08817719    -0.00275768  0.10D-02  0.12D-02     0.06
    3     1     1     1.08314792    -0.09144385  -103.75648411    -0.00326666    -0.00016590  0.83D-04  0.64D-04     0.07
    4     1     1     1.08496188    -0.09162714  -103.75666739    -0.00018329    -0.00000723  0.16D-05  0.29D-05     0.08
    5     1     1     1.08482220    -0.09163562  -103.75667588    -0.00000849    -0.00000029  0.65D-07  0.11D-06     0.09
    6     1     1     1.08480815    -0.09163596  -103.75667622    -0.00000033    -0.00000001  0.18D-08  0.30D-08     0.10


 =====================================
 Analysis of CPU times by interactions
 =====================================

       I      S      P

 I   0.0%
 S   0.0%  10.0%
 P   0.0%  20.0%   0.0%

 Initialization:  50.0%
 Other:           20.0%

 Total CPU:        0.1 seconds
 =====================================



 Reference coefficients greater than 0.0500000
 =============================================
 222///           0.9601156

 Coefficients of doubly external configurations greater than 0.0500000
 =====================================================================

 PAIR    I     J   ->   K     L     NP  SYM  REF     COEFFICIENTS

   1    2.1   2.1      2.5   2.5     1   1    1   -0.09220105
   1    2.1   2.1      2.3   2.3     1   1    1   -0.09220062
   1    2.1   2.1      2.2   2.2     1   1    1   -0.09220061
   5    4.1   2.1      2.5   2.5     1   1    1   -0.05429436



 RESULTS FOR STATE 1.1
 =====================

 Coefficient of reference function:   C(0) = 0.96011561 (fixed)   0.96011561 (relaxed)

 Energy contributions of configuration classes

 CLASS          SQ.NORM        ECORR1        ECORR2
 +++++++++++++++++++++++++++++++++++++++++++++++++++
 Internals    0.00000000    0.00000000   -0.00000000
 Singles      0.00978924   -0.00612600   -0.00647433
 Pairs        0.07501891   -0.08550996   -0.08516163
 Total        1.08480815   -0.09163596   -0.09163596
 +++++++++++++++++++++++++++++++++++++++++++++++++++


 Reference energy                    -103.66504026
 Nuclear energy                         0.00000000
 Kinetic energy                        34.75759610
 One electron energy                 -179.83520574
 Two electron energy                   76.07852952
 Virial quotient                       -2.98515110
 Correlation energy                    -0.09163596
 !CI(SD) STATE 1.1 Energy            -103.756676216132

 Properties without orbital relaxation:

 !CI(SD) STATE 1.1 Dipole moment        0.00000000     0.00000000     0.00000000
 Dipole moment /Debye                   0.00000000     0.00000000     0.00000000

 Cluster corrected energies          -103.76444769 (Davidson, fixed reference)
 Cluster corrected energies          -103.76444769 (Davidson, relaxed reference)

 Cluster corrected energies          -103.76199893 (Pople, fixed reference)
 Cluster corrected energies          -103.76199893 (Pople, relaxed reference)


 Natural orbitals
 ================

   Orb     Occ           Coefficients

                         1 1s      1 1s      1 1s      1 1s      1 3d0     1 3d2+    1 3d0     1 3d2+    1 3d0     1 3d2+ 


   1.1    2.0000000    1.000000  0.000000  0.000000 -0.000000  0.000000  0.000000  0.000000  0.000000  0.000000  0.000000

   2.1    1.9819054   -0.000000 -0.000007 -0.000001 -0.000000  0.999428 -0.020248  0.019774 -0.000401 -0.009295  0.000188

   3.1    1.9819054    0.000000 -0.000000 -0.000000 -0.000000  0.020248  0.999429  0.000401  0.019773 -0.000188 -0.009295

   4.1    1.9081348   -0.000000  1.000124 -0.012612 -0.003947  0.000007 -0.000000  0.000000 -0.000000 -0.000000  0.000000

   5.1    0.0092505    0.000000 -0.001983  1.000004 -0.006722  0.000001 -0.000000 -0.000010  0.000000  0.000002 -0.000000

   6.1    0.0070216    0.000000 -0.000000  0.000010 -0.000001 -0.026480  0.000413  0.998825 -0.015569 -0.041718  0.000650

   7.1    0.0070216   -0.000000 -0.000000 -0.000000  0.000000 -0.000413 -0.026480  0.015569  0.998825 -0.000650 -0.041718

   8.1    0.0004357    0.000000 -0.000000  0.000000 -0.000001 -0.000260  0.008450 -0.001291  0.041880 -0.030776  0.998612

   9.1    0.0004357   -0.000000 -0.000000 -0.000001  0.000041  0.008450  0.000260  0.041879  0.001291  0.998612  0.030776

  10.1    0.0004151   -0.000000 -0.002959  0.006773  0.999993 -0.000000 -0.000000 -0.000001 -0.000000 -0.000041 -0.000001

                         1 2px     1 2px     1 2px     1 2px  

   1.2    2.0000000    1.000000  0.000001 -0.000000 -0.000000

   2.2    0.0360424    0.000001  1.000000 -0.000032 -0.000121

   3.2    0.0009020   -0.000000  0.000032  0.999999 -0.001609

   4.2    0.0000567    0.000001  0.000122  0.001609  0.999999

                         1 2py     1 2py     1 2py     1 2py  

   1.3    2.0000000    1.000000  0.000001 -0.000000 -0.000000

   2.3    0.0360425    0.000001  1.000000 -0.000032 -0.000121

   3.3    0.0009020   -0.000000  0.000032  0.999999 -0.001609

   4.3    0.0000567    0.000001  0.000122  0.001609  0.999999

                         1 3d2-    1 3d2-    1 3d2- 

   1.4    0.9943545    1.000020 -0.006383  0.000660

   2.4    0.0029546    0.000051  0.999997  0.002172

   3.4    0.0001808   -0.000402 -0.002170  0.999997

                         1 2pz     1 2pz     1 2pz     1 2pz  

   1.5    2.0000000    1.000000  0.000001 -0.000000 -0.000000

   2.5    0.0360432    0.000001  1.000000 -0.000032 -0.000122

   3.5    0.0009020   -0.000000  0.000032  0.999999 -0.001608

   4.5    0.0000567    0.000001  0.000122  0.001608  0.999999

                         1 3d1+    1 3d1+    1 3d1+ 

   1.6    0.9943546    1.000020 -0.006383  0.000660

   2.6    0.0029547    0.000051  0.999997  0.002170

   3.6    0.0001808   -0.000402 -0.002167  0.999997

                         1 3d1-    1 3d1-    1 3d1- 

   1.7    0.9943546    1.000020 -0.006383  0.000660

   2.7    0.0029547    0.000051  0.999997  0.002170

   3.7    0.0001808   -0.000402 -0.002167  0.999997

 Electronic charge:   17.000000


 **********************************************************************************************************************************
 DATASETS  * FILE   NREC   LENGTH (MB)   RECORD NAMES
              1      20       19.99       500      610      700      900      950      970     1000      129      960     1100   
                                          VAR    BASINP    GEOM    SYMINP    ZMAT    AOBASIS   BASIS     P2S    ABASIS      S 
                                         1400     1410     1420     1200     1210     1080     1600     1650     1700     1380   
                                           T        V       ECP      H0       H01     AOSYM     SMH    MOLCAS    OPER     JKOP   

              2       7       10.26       700     1000      520     4202     4203     5202     2101   
                                         GEOM     BASIS   MCVARS     RHF     MCSCF    MCSCF     RHF  

 PROGRAMS   *        TOTAL        CI       RHF     MULTI     MULTI       POP       RHF       INT
 CPU TIMES  *         1.42      0.19      0.08      0.15      0.20      0.00      0.04      0.54
 REAL TIME  *         4.87 SEC
 DISK USED  *       404.15 MB      
 SF USED    *        12.02 MB      
 GA USED    *         0.00 MB       (max)       0.00 MB       (current)
 **********************************************************************************************************************************

 CI/USERDEF energy=   -103.756676216132

        CI              RHF-SCF         MULTI           MULTI           RHF-SCF 
   -103.75667622   -103.66504026   -103.60840003   -103.60839521   -103.66598598
 **********************************************************************************************************************************
 Molpro calculation terminated
 Variable memory released
