
 Primary working directories    : /global/cscratch1/sd/bkincaid
 Secondary working directories  : /global/cscratch1/sd/bkincaid
 Wavefunction directory         : /global/homes/b/bkincaid/wfu/
 Main file repository           : /global/cscratch1/sd/bkincaid/

 SHA1      : 19cd028119e0e09f93f0674bd8af7968d9b3eff6
 NAME      : 2015.1.36
 ARCHNAME  : linux/x86_64
 FC        : /opt/cray/pe/craype/2.5.14/bin/ftn
 BLASLIB   : -L/opt/intel/compilers_and_libraries_2018.1.163/linux/mkl/lib/intel64 -Wl,-_start-group -lmkl_intel_ilp64 -lmkl_intel_thread -lmkl_core -Wl,-_end-group -liomp5
 id        : lbl

 Nodes     nprocs
 nid00751    11
 Number of processes for MPI-2 version of Molpro:   nprocs(total)=   12   nprocs(compute)=   11   nprocs(helper)=    1

 Using customized tuning parameters: mindgm=7; mindgv=16; mindgc=1; mindgr=1; noblas=0; minvec=7
 default implementation of scratch files=sf  

 ***,Calculation for IrO groundstate
 memory,1024,m
 gthresh,twoint=1.0E-15
 gthresh,throvl=1.0E-15
                                                                                 !symmetry,nosym
 
 basis={
 Including file /global/u1/b/bkincaid/molpro/Ir/molecules/tz/IrO/ecps/bk2.3/bk2.3
 
 Including file /global/u1/b/bkincaid/molpro/Ir/molecules/tz/IrO/ecps/bk2.3/tz.basis
 
 ecp,O,2,1,0
 3
 1,  12.30997,  6.000000
 3,  14.76962,  73.85984
 2,  13.71419, -47.87600
 1
 2,  13.65512,  85.86406
 
 Including file /global/u1/b/bkincaid/molpro/Ir/molecules/tz/IrO/ecps/bk2.3/O-aug-cc-CVTZ.basis
 }
 
 ne = 23
 
 A1=6
 B1=2
 B2=3
 A2=1
 
 
 do i=5,5
         if(i.eq.1) then
                 z(i) = 1.500
         else if(i.eq.2) then
                 z(i) = 1.600
         else if(i.eq.3) then
                 z(i) = 1.700
         else if(i.eq.4) then
                 z(i) = 1.800
         else if(i.eq.5) then
                 z(i) = 1.900
         endif
 
 geometry={
 2
 IrO
 Ir 0.0 0.0 0.0
 O 0.0 0.0 z(i)
 }
 
 
 {rhf,maxdis=35,iptyp='DIIS',nitord=30,maxit=60; shift,-1.0,-0.5
 wf,nelec=ne,spin=1,sym=4
 occ,A1,B1,B2,A2
 closed,A1,B1,B2,A2-1
 print,orbitals=2
         }
 scf(i)=energy
 {rccsd(t),shifts=0.2,shiftp=0.2,thrdis=1.0;diis,1,1,15,1;maxit,100;core}
 ccsd(i)=energy
 enddo
 
 table,z,scf,ccsd
 save
 type,csv
 

 Variables initialized (889), CPU time= 0.01 sec
 Commands  initialized (702), CPU time= 0.01 sec, 572 directives.
 Default parameters read. Elapsed time= 0.16 sec

 Checking input...
 Passed
1


                                         ***  PROGRAM SYSTEM MOLPRO  ***
                                       Copyright, TTI GmbH Stuttgart, 2015
                                    Version 2015.1 linked Dec 29 2018 15:55:43


 **********************************************************************************************************************************
 LABEL *   Calculation for IrO groundstate                                               
  64 bit mpp version                                                                     DATE: 23-Mar-21          TIME: 11:01:58  
 **********************************************************************************************************************************

 SHA1:             19cd028119e0e09f93f0674bd8af7968d9b3eff6
 **********************************************************************************************************************************

 THRESHOLDS:

 ZERO    =  1.00D-12  ONEINT  =  1.00D-12  TWOINT  =  1.00D-15  PREFAC  =  1.00D-14  LOCALI  =  1.00D-09  EORDER  =  1.00D-04
 ENERGY  =  0.00D+00  ETEST   =  0.00D+00  EDENS   =  0.00D+00  THRDEDEF=  1.00D-06  GRADIENT=  1.00D-02  STEP    =  1.00D-03
 ORBITAL =  1.00D-05  CIVEC   =  1.00D-05  COEFF   =  1.00D-04  PRINTCI =  5.00D-02  PUNCHCI =  9.90D+01  OPTGRAD =  3.00D-04
 OPTENERG=  1.00D-06  OPTSTEP =  3.00D-04  THRGRAD =  1.00D-10  COMPRESS=  1.00D-11  VARMIN  =  1.00D-07  VARMAX  =  1.00D-03
 THRDOUB =  0.00D+00  THRDIV  =  1.00D-05  THRRED  =  1.00D-07  THRPSP  =  1.00D+00  THRDC   =  1.00D-10  THRCS   =  1.00D-10
 THRNRM  =  1.00D-08  THREQ   =  0.00D+00  THRDE   =  1.00D+00  THRREF  =  1.00D-05  SPARFAC =  1.00D+00  THRDLP  =  1.00D-07
 THRDIA  =  1.00D-10  THRDLS  =  1.00D-07  THRGPS  =  0.00D+00  THRKEX  =  0.00D+00  THRDIS  =  2.00D-01  THRVAR  =  1.00D-10
 THRLOC  =  1.00D-06  THRGAP  =  1.00D-06  THRLOCT = -1.00D+00  THRGAPT = -1.00D+00  THRORB  =  1.00D-06  THRMLTP =  0.00D+00
 THRCPQCI=  1.00D-10  KEXTA   =  0.00D+00  THRCOARS=  0.00D+00  SYMTOL  =  1.00D-06  GRADTOL =  1.00D-06  THROVL  =  1.00D-08
 THRORTH =  1.00D-08  GRID    =  1.00D-06  GRIDMAX =  1.00D-03  DTMAX   =  0.00D+00  THROCCDE=  1.00D-01  THROCCDE=  1.00D-01



 THRESHOLDS:

 ZERO    =  1.00D-12  ONEINT  =  1.00D-12  TWOINT  =  1.00D-15  PREFAC  =  1.00D-14  LOCALI  =  1.00D-09  EORDER  =  1.00D-04
 ENERGY  =  0.00D+00  ETEST   =  0.00D+00  EDENS   =  0.00D+00  THRDEDEF=  1.00D-06  GRADIENT=  1.00D-02  STEP    =  1.00D-03
 ORBITAL =  1.00D-05  CIVEC   =  1.00D-05  COEFF   =  1.00D-04  PRINTCI =  5.00D-02  PUNCHCI =  9.90D+01  OPTGRAD =  3.00D-04
 OPTENERG=  1.00D-06  OPTSTEP =  3.00D-04  THRGRAD =  1.00D-10  COMPRESS=  1.00D-11  VARMIN  =  1.00D-07  VARMAX  =  1.00D-03
 THRDOUB =  0.00D+00  THRDIV  =  1.00D-05  THRRED  =  1.00D-07  THRPSP  =  1.00D+00  THRDC   =  1.00D-10  THRCS   =  1.00D-10
 THRNRM  =  1.00D-08  THREQ   =  0.00D+00  THRDE   =  1.00D+00  THRREF  =  1.00D-05  SPARFAC =  1.00D+00  THRDLP  =  1.00D-07
 THRDIA  =  1.00D-10  THRDLS  =  1.00D-07  THRGPS  =  0.00D+00  THRKEX  =  0.00D+00  THRDIS  =  2.00D-01  THRVAR  =  1.00D-10
 THRLOC  =  1.00D-06  THRGAP  =  1.00D-06  THRLOCT = -1.00D+00  THRGAPT = -1.00D+00  THRORB  =  1.00D-06  THRMLTP =  0.00D+00
 THRCPQCI=  1.00D-10  KEXTA   =  0.00D+00  THRCOARS=  0.00D+00  SYMTOL  =  1.00D-06  GRADTOL =  1.00D-06  THROVL  =  1.00D-15
 THRORTH =  1.00D-08  GRID    =  1.00D-06  GRIDMAX =  1.00D-03  DTMAX   =  0.00D+00  THROCCDE=  1.00D-01  THROCCDE=  1.00D-01



 Variable memory set to 1024000000 words,  buffer space   230000 words

 SETTING BASIS          =    USERDEF
 SETTING NE             =        23.00000000                                  
 SETTING A1             =         6.00000000                                  
 SETTING B1             =         2.00000000                                  
 SETTING B2             =         3.00000000                                  
 SETTING A2             =         1.00000000                                  

 DO I                   =         5.00000000   
 SETTING Z(5)           =         1.90000000                                  

Geometry recognized as XYZ



 Recomputing integrals since basis changed


 Using spherical harmonics



 PROGRAM * SEWARD (Integral evaluation for generally contracted gaussian basis sets)     Author: Roland Lindh, 1990

 Geometry written to block  1 of record 700


 Point group  C2v 



 ATOMIC COORDINATES

 NR  ATOM    CHARGE       X              Y              Z

   1  IR     17.00    0.000000000    0.000000000    0.000000000
   2  O       6.00    0.000000000    0.000000000    3.590479637

 Bond lengths in Bohr (Angstrom)

 1-2  3.590479637
     ( 1.900000000)

 NUCLEAR CHARGE:                   23
 NUMBER OF PRIMITIVE AOS:         556
 NUMBER OF SYMMETRY AOS:          455
 NUMBER OF CONTRACTIONS:          455   ( 186A1  + 109B1  + 109B2  +  51A2  )
 NUMBER OF CORE ORBITALS:           4   (   2A1  +   1B1  +   1B2  +   0A2  )
 NUMBER OF VALENCE ORBITALS:       10   (   5A1  +   2B1  +   2B2  +   1A2  )


 NUCLEAR REPULSION ENERGY   28.40846080

 EXTRA SYMMETRY OF AOS IN SYMMETRY 1:   1 1 1 1 1 1 1 1 1 1   1 1 1 1 1 1 1 1 1 1   1 1 1 1 1 1 1 1 1 1   1 1 1 1 1 1 1 1 1 1
                                        1 1 1 1 1 1 1 1 1 1   1 1 1 1 1 1 1 1 1 1   1 1 1 1 1 1 1 2 1 2   1 2 1 2 1 2 1 2 1 2
                                        1 2 1 2 1 2 1 2 1 2   1 2 1 2 1 2 1 2 1 2   1 2 1 2 1 2 1 2 1 2   1 2 1 2 1 2 1 2 1 2
                                        1 2 1 2 1 2 1 2 1 2   1 2 1 2 1 2 1 2 1 2   1 2 1 2 1 3 2 1 3 2   1 3 2 1 1 1 1 1 1 1
                                        1 1 1 1 1 1 1 1 1 1   1 1 1 1 1 2 1 2 1 2   1 2 1 2 1 2
 EXTRA SYMMETRY OF AOS IN SYMMETRY 2:   1 1 1 1 1 1 1 1 1 1   1 1 1 1 1 1 1 1 1 1   1 1 1 1 1 1 1 1 1 1   1 1 1 1 1 1 1 1 1 1
                                        1 1 1 1 1 1 1 1 1 1   1 1 1 1 2 1 2 1 2 1   2 1 2 1 2 1 2 1 2 1   2 1 2 1 2 1 2 1 2 1
                                        2 1 2 1 2 1 2 1 2 1   2 1 2 1 1 1 1 1 1 1   1 1 1 1 1 1 2 1 2
 EXTRA SYMMETRY OF AOS IN SYMMETRY 3:   1 1 1 1 1 1 1 1 1 1   1 1 1 1 1 1 1 1 1 1   1 1 1 1 1 1 1 1 1 1   1 1 1 1 1 1 1 1 1 1
                                        1 1 1 1 1 1 1 1 1 1   1 1 1 1 2 1 2 1 2 1   2 1 2 1 2 1 2 1 2 1   2 1 2 1 2 1 2 1 2 1
                                        2 1 2 1 2 1 2 1 2 1   2 1 2 1 1 1 1 1 1 1   1 1 1 1 1 1 2 1 2
 EXTRA SYMMETRY OF AOS IN SYMMETRY 4:   1 1 1 1 1 1 1 1 1 1   1 1 1 1 1 1 1 1 1 1   1 1 1 1 1 1 1 1 1 1   1 1 1 1 1 1 1 1 1 1
                                        2 1 2 1 2 1 1 1 1 1   1

 Eigenvalues of metric

         1 0.766E-07 0.991E-06 0.344E-05 0.136E-04 0.155E-04 0.169E-04 0.254E-04 0.451E-04
         2 0.926E-07 0.375E-05 0.154E-04 0.530E-04 0.539E-04 0.125E-03 0.141E-03 0.436E-03
         3 0.926E-07 0.375E-05 0.154E-04 0.530E-04 0.539E-04 0.125E-03 0.141E-03 0.436E-03
         4 0.155E-04 0.538E-04 0.146E-03 0.608E-03 0.973E-03 0.208E-02 0.549E-02 0.579E-02


 Contracted 2-electron integrals neglected if value below      1.0D-15

 Warning: maximum contribution to expansion of local PP integrals   0.5D+07
 AO integral compression algorithm  1   Integral accuracy      1.0D-15

     4615.832 MB (compressed) written to integral file ( 36.1%)

     Node minimum: 242.483 MB, node maximum: 913.834 MB


 NUMBER OF SORTED TWO-ELECTRON INTEGRALS:  125132898.     BUFFER LENGTH:  32768
 NUMBER OF SEGMENTS:   4  SEGMENT LENGTH:   31982049      RECORD LENGTH: 524288

 Memory used in sort:      32.54 MW

 SORT1 READ  1600176772. AND WROTE    46359388. INTEGRALS IN    135 RECORDS. CPU TIME:    43.75 SEC, REAL TIME:    65.27 SEC
 SORT2 READ   508997374. AND WROTE  1376419418. INTEGRALS IN  17710 RECORDS. CPU TIME:     2.02 SEC, REAL TIME:     8.56 SEC

 Node minimum:   125060912.  Node maximum:   125200036. integrals

 OPERATOR DM      FOR CENTER  0  COORDINATES:    0.000000    0.000000    0.000000


 **********************************************************************************************************************************
 DATASETS  * FILE   NREC   LENGTH (MB)   RECORD NAMES
              1      19       22.49       500      610      700      900      950      970     1000      129      960     1100   
                                          VAR    BASINP    GEOM    SYMINP    ZMAT    AOBASIS   BASIS     P2S    ABASIS      S 
                                         1400     1410     1420     1200     1210     1080     1600     1650     1700   
                                           T        V       ECP      H0       H01     AOSYM     SMH    MOLCAS    OPER   

 PROGRAMS   *        TOTAL       INT
 CPU TIMES  *       241.75    241.42
 REAL TIME  *       273.54 SEC
 DISK USED  *        10.74 GB      
 GA USED    *         0.00 MB       (max)       0.00 MB       (current)
 **********************************************************************************************************************************


 PROGRAM * RHF-SCF (OPEN SHELL)       Authors: W. Meyer, H.-J. Werner


 NUMBER OF ELECTRONS:      12+   11-    SPACE SYMMETRY=4    SPIN SYMMETRY: Doublet 
 CONVERGENCE THRESHOLDS:    1.00E-05 (Density)    1.00E-07 (Energy)
 MAX. NUMBER OF ITERATIONS:       60
 INTERPOLATION TYPE:            DIIS
 INTERPOLATION STEPS:              2 (START)      1 (STEP)
 LEVEL SHIFTS:                 -1.00 (CLOSED) -0.50 (OPEN) 

 Number of closed-shell orbitals:   11 (   6   2   3   0 )
 Number of open-shell orbitals:      1 (   0   0   0   1 )


 Orbital guess generated from atomic densities. Full valence occupancy:    7   3   3   1

 Molecular orbital dump at record        2100.2

 ITERATION    DDIFF          GRAD             ENERGY        2-EL.EN.            DIPOLE MOMENTS         DIIS   ORB.
    1      0.000D+00      0.000D+00      -119.35804788    232.927791    0.00000    0.00000   -2.51045    0    start
    2      0.000D+00      0.461D-02      -119.38262791    232.037148    0.00000    0.00000   -2.06234    1    diag,B
    3      0.547D-02      0.151D-02      -119.38761920    232.026907    0.00000    0.00000   -2.05283    2    diag,B
    4      0.304D-02      0.820D-03      -119.39035303    232.021640    0.00000    0.00000   -2.02199    3    diag,B
    5      0.175D-02      0.491D-03      -119.39196061    231.998441    0.00000    0.00000   -2.03763    4    diag,B
    6      0.113D-02      0.310D-03      -119.39283601    232.011243    0.00000    0.00000   -2.05058    5    diag,B
    7      0.184D-02      0.212D-03      -119.39334884    232.030034    0.00000    0.00000   -2.05948    6    diag,B
    8      0.587D-03      0.151D-03      -119.39367180    232.071652    0.00000    0.00000   -2.05575    7    diag,B
    9      0.116D-02      0.115D-03      -119.39391556    232.126284    0.00000    0.00000   -2.04266    8    diag,B
   10      0.662D-03      0.852D-04      -119.39407802    232.181903    0.00000    0.00000   -2.02638    9    orth
   11      0.115D-02      0.611D-04      -119.39416575    232.226405    0.00000    0.00000   -2.01220   10    diag,B
   12      0.720D-03      0.410D-04      -119.39420523    232.259088    0.00000    0.00000   -1.99999   11    diag,B
   13      0.622D-03      0.271D-04      -119.39421835    232.273084    0.00000    0.00000   -1.99303   12    diag,B
   14      0.167D-03      0.192D-04      -119.39422622    232.282613    0.00000    0.00000   -1.98532   13    diag,B
   15      0.376D-03      0.121D-04      -119.39422879    232.283726    0.00000    0.00000   -1.98168   14    diag,B
   16      0.103D-03      0.732D-05      -119.39422963    232.284854    0.00000    0.00000   -1.97888   15    diag,B
   17      0.702D-04      0.450D-05      -119.39422990    232.284363    0.00000    0.00000   -1.97746   16    diag,B
   18      0.501D-04      0.286D-05      -119.39422996    232.283881    0.00000    0.00000   -1.97708   17    diag,B
   19      0.236D-04      0.209D-05      -119.39423001    232.283406    0.00000    0.00000   -1.97654   18    diag,B
   20      0.163D-04      0.198D-05      -119.39423002    232.283258    0.00000    0.00000   -1.97643   19    orth
   21      0.194D-05      0.156D-05      -119.39423003    232.283113    0.00000    0.00000   -1.97634    0    orth

 Final alpha occupancy:   6   2   3   1
 Final beta  occupancy:   6   2   3   0

 !RHF STATE 1.4 Energy               -119.394230029029
 Nuclear energy                        28.40846080
 One-electron energy                 -263.94424727
 Two-electron energy                  116.14155645
 Virial quotient                       -2.55796644
 !RHF STATE 1.4 Dipole moment           0.00000000     0.00000000    -1.97634282
 Dipole moment /Debye                   0.00000000     0.00000000    -5.02303338

 ELECTRON ORBITALS
 =================


   Orb  Occ    Energy  Couls-En    Coefficients

                                   1 1s      1 1s      1 1s      1 1s      1 1s      1 1s      1 1s      1 1s      1 1s      1 1s   
                                   1 1s      1 1s      1 1s      1 1s      1 1s      1 1s      1 1s      1 1s      1 1s      1 1s   
                                   1 1s      1 1s      1 1s      1 1s      1 1s      1 1s      1 1s      1 1s      1 1s      1 1s   
                                   1 1s      1 1s      1 1s      1 1s      1 1s      1 2pz     1 2pz     1 2pz     1 2pz     1 2pz  
                                   1 2pz     1 2pz     1 2pz     1 2pz     1 2pz     1 2pz     1 2pz     1 2pz     1 2pz     1 2pz  
                                   1 2pz     1 2pz     1 2pz     1 2pz     1 2pz     1 2pz     1 2pz     1 2pz     1 2pz     1 2pz  
                                   1 2pz     1 2pz     1 2pz     1 2pz     1 2pz     1 2pz     1 3d0     1 3d2+    1 3d0     1 3d2+ 
                                   1 3d0     1 3d2+    1 3d0     1 3d2+    1 3d0     1 3d2+    1 3d0     1 3d2+    1 3d0     1 3d2+ 
                                   1 3d0     1 3d2+    1 3d0     1 3d2+    1 3d0     1 3d2+    1 3d0     1 3d2+    1 3d0     1 3d2+ 
                                   1 3d0     1 3d2+    1 3d0     1 3d2+    1 3d0     1 3d2+    1 3d0     1 3d2+    1 3d0     1 3d2+ 
                                   1 3d0     1 3d2+    1 3d0     1 3d2+    1 3d0     1 3d2+    1 3d0     1 3d2+    1 3d0     1 3d2+ 
                                   1 4f0     1 4f2+    1 4f0     1 4f2+    1 4f0     1 4f2+    1 4f0     1 4f2+    1 4f0     1 4f2+ 
                                   1 4f0     1 4f2+    1 4f0     1 4f2+    1 4f0     1 4f2+    1 4f0     1 4f2+    1 4f0     1 4f2+ 
                                   1 4f0     1 4f2+    1 4f0     1 4f2+    1 4f0     1 4f2+    1 4f0     1 4f2+    1 4f0     1 4f2+ 
                                   1 4f0     1 4f2+    1 4f0     1 4f2+    1 5g0     1 5g4+    1 5g2+    1 5g0     1 5g4+    1 5g2+ 
                                   1 5g0     1 5g4+    1 5g2+    2 1s      2 1s      2 1s      2 1s      2 1s      2 1s      2 1s   
                                   2 1s      2 1s      2 1s      2 1s      2 1s      2 1s      2 2pz     2 2pz     2 2pz     2 2pz  
                                   2 2pz     2 2pz     2 2pz     2 2pz     2 3d0     2 3d2+    2 3d0     2 3d2+    2 3d0     2 3d2+ 
                                   2 3d0     2 3d2+    2 4f0     2 4f2+    2 4f0     2 4f2+ 

   1.1   2    -4.2418  -20.5631 -0.000000  0.000000 -0.000000  0.000000 -0.000000  0.000000 -0.000000  0.000000 -0.000000  0.000000
                                -0.000001  0.000003 -0.000008  0.000019 -0.000048  0.000121 -0.000299  0.000736 -0.001787  0.004288
                                -0.010204  0.024264 -0.053135  0.040580  0.334094 -1.002965  0.468585 -0.526748  1.013035 -0.127195
                                 0.599912  0.027902 -0.008197  0.000200 -0.000099 -0.000000  0.000000 -0.000000  0.000000 -0.000000
                                 0.000000 -0.000000  0.000000 -0.000000  0.000000 -0.000000  0.000000 -0.000001  0.000003 -0.000008
                                 0.000018 -0.000040  0.000084 -0.000109 -0.000298  0.000742  0.009491 -0.010993  0.004213 -0.066212
                                 0.058643 -0.005823 -0.000414 -0.002141 -0.000245  0.000126 -0.000000 -0.000000  0.000000  0.000000
                                -0.000000 -0.000000  0.000000  0.000000 -0.000000 -0.000000  0.000000  0.000000 -0.000001 -0.000000
                                 0.000003  0.000000 -0.000008 -0.000001  0.000018  0.000004 -0.000049 -0.000022  0.000216  0.000169
                                -0.000809 -0.000543  0.000726 -0.000726 -0.001081  0.000821  0.004066  0.002862 -0.001631  0.001038
                                 0.004476  0.000742 -0.001290 -0.000098 -0.000440 -0.000108 -0.000779  0.000005  0.000173 -0.000003
                                -0.000000  0.000000  0.000000 -0.000000 -0.000000  0.000000  0.000001 -0.000000 -0.000003 -0.000000
                                 0.000005 -0.000003 -0.000025 -0.000004  0.000029 -0.000038 -0.000241  0.000127  0.000631 -0.000210
                                -0.001183 -0.000208  0.000080 -0.000559  0.000101  0.000004 -0.000304  0.000256  0.000072  0.000042
                                -0.000320 -0.000008  0.000165  0.000002 -0.000054  0.000044 -0.000069  0.000161  0.000752 -0.000754
                                -0.000074  0.000388 -0.000282 -0.000000  0.000000 -0.000000  0.000001 -0.000006 -0.000045 -0.000299
                                 0.001595  0.000188  0.001847 -0.000223  0.000082  0.003351 -0.000029 -0.000264 -0.000660 -0.001768
                                -0.001260 -0.000004  0.000008 -0.001024  0.000173  0.000018  0.000816  0.000187  0.000007  0.000002
                                 0.000214  0.000117 -0.000139 -0.000019 -0.000186 -0.000167

   2.1   2    -2.4728  -16.7535 -0.000000  0.000000 -0.000000  0.000000 -0.000000  0.000000 -0.000000  0.000000 -0.000000  0.000000
                                -0.000000  0.000000 -0.000000  0.000000 -0.000001  0.000002 -0.000004  0.000010 -0.000025  0.000061
                                -0.000144  0.000346 -0.000768  0.000640  0.004735 -0.015497  0.010946 -0.012840  0.024202 -0.001809
                                 0.001179 -0.010751 -0.005827 -0.005020  0.000755  0.000000 -0.000000  0.000000 -0.000000  0.000000
                                -0.000000  0.000000 -0.000000  0.000001 -0.000002  0.000007 -0.000019  0.000050 -0.000128  0.000312
                                -0.000735  0.001703 -0.003591 -0.000541  0.072255 -0.215455 -0.100075 -0.040431  0.403424 -0.192119
                                 0.740365  0.260762  0.018530 -0.007012 -0.000706  0.000178 -0.000000  0.000000  0.000000 -0.000000
                                -0.000000  0.000000  0.000000 -0.000000 -0.000000  0.000000  0.000001 -0.000000 -0.000003  0.000000
                                 0.000009 -0.000001 -0.000020  0.000002  0.000040 -0.000005 -0.000068  0.000015  0.000002 -0.000085
                                -0.000275  0.000359  0.004239 -0.000203 -0.004581  0.000118  0.001137 -0.001260 -0.012853  0.000453
                                 0.004056 -0.001948 -0.006031  0.001020 -0.001920  0.000831 -0.001620  0.000053 -0.000011  0.000009
                                -0.000000  0.000000  0.000000 -0.000000 -0.000000  0.000000  0.000001 -0.000001 -0.000002  0.000002
                                 0.000012 -0.000013 -0.000006 -0.000003  0.000118 -0.000087 -0.000498  0.000033  0.000474 -0.000361
                                 0.001002  0.000537 -0.000425 -0.001705  0.004154 -0.000891 -0.002980 -0.001420 -0.000494 -0.000371
                                -0.000327  0.000085 -0.000017 -0.000028 -0.000123 -0.000013  0.000099  0.000023  0.000000 -0.000202
                                -0.000206  0.000012  0.000724 -0.000000  0.000000 -0.000001  0.000010 -0.000102 -0.001286 -0.005119
                                 0.019298  0.004833  0.016102 -0.001151  0.001434  0.010862 -0.000272 -0.002576 -0.007351 -0.014480
                                -0.011216 -0.000073  0.000075 -0.002178  0.000972  0.000048  0.004259  0.000483  0.000052 -0.000002
                                 0.002387  0.000504 -0.000684 -0.000108 -0.000882 -0.000381

   3.1   2    -1.2296  -10.9459  0.000000 -0.000000  0.000000 -0.000000  0.000000 -0.000000  0.000000 -0.000000  0.000000 -0.000000
                                 0.000000 -0.000000  0.000001 -0.000001  0.000004 -0.000009  0.000022 -0.000054  0.000130 -0.000311
                                 0.000735 -0.001732  0.003827 -0.004014 -0.016627  0.051483  0.023688 -0.032055 -0.014548 -0.136549
                                 0.065144  0.030006 -0.040515 -0.010134  0.001657 -0.000000  0.000000 -0.000000  0.000000 -0.000000
                                 0.000000 -0.000000  0.000000 -0.000000  0.000000 -0.000001  0.000001 -0.000004  0.000010 -0.000025
                                 0.000060 -0.000143  0.000306  0.000269 -0.008863  0.027225 -0.006899  0.028229 -0.065172  0.487749
                                -0.565927  0.004149 -0.015684 -0.022932 -0.000494  0.000542 -0.000000  0.000000  0.000000 -0.000000
                                -0.000000  0.000000  0.000000 -0.000000 -0.000001  0.000000  0.000002 -0.000000 -0.000007  0.000000
                                 0.000017 -0.000000 -0.000042  0.000001  0.000108 -0.000002 -0.000362  0.000005  0.002001 -0.000025
                                -0.006631  0.000084 -0.001559  0.000001  0.000549  0.000013  0.027924 -0.000463 -0.018733  0.000168
                                 0.057227 -0.000588  0.032831  0.000884 -0.009781  0.000722 -0.004282  0.000023  0.001274 -0.000018
                                -0.000000 -0.000000  0.000000  0.000000 -0.000001 -0.000000  0.000002  0.000000 -0.000004 -0.000001
                                 0.000033  0.000005  0.000017  0.000003  0.000231  0.000035 -0.000545 -0.000062  0.001813  0.000201
                                -0.001814 -0.000241  0.002906  0.000798  0.007030  0.000146  0.001166  0.002190 -0.004178  0.001036
                                -0.000870 -0.000121  0.001257  0.000031  0.000069  0.000022  0.000024  0.002634 -0.000026  0.000425
                                 0.001266 -0.000046  0.000998 -0.000001  0.000007 -0.000049  0.000326 -0.003393 -0.051197 -0.167147
                                 0.562345  0.162234  0.398253 -0.001241  0.049172  0.055259 -0.000508 -0.004629 -0.013312 -0.029236
                                -0.051870 -0.000119  0.000141 -0.012795  0.001229 -0.000834  0.010004 -0.001054  0.000105 -0.000198
                                 0.013520 -0.001533 -0.000963 -0.000068 -0.002770 -0.000949

   4.1   2    -0.5516  -10.1702 -0.000000  0.000000 -0.000000  0.000000 -0.000000  0.000000 -0.000000  0.000000 -0.000000  0.000000
                                -0.000000  0.000000 -0.000001  0.000002 -0.000004  0.000010 -0.000026  0.000063 -0.000153  0.000367
                                -0.000870  0.002057 -0.004558  0.004616  0.021446 -0.068039 -0.006589  0.010235  0.049392  0.095636
                                -0.007932 -0.056775  0.037348  0.040307 -0.007164  0.000000 -0.000000  0.000000 -0.000000  0.000000
                                -0.000000  0.000000 -0.000000  0.000000 -0.000000  0.000001 -0.000002  0.000005 -0.000011  0.000028
                                -0.000067  0.000156 -0.000334 -0.000090  0.007514 -0.023760  0.006026 -0.025947  0.062822 -0.553220
                                 0.627057 -0.006607 -0.013703  0.026946  0.010277 -0.004217  0.000000 -0.000000 -0.000000  0.000000
                                 0.000000 -0.000000 -0.000001  0.000000  0.000003 -0.000000 -0.000010  0.000001  0.000028 -0.000004
                                -0.000073  0.000010  0.000179 -0.000025 -0.000470  0.000073  0.001675 -0.000303 -0.009878  0.002015
                                 0.032600 -0.006559  0.015828 -0.005324 -0.013736  0.004897 -0.129388  0.027663  0.009087  0.002351
                                -0.210556  0.042869 -0.189110  0.037320 -0.065529  0.016273  0.005735  0.001832 -0.001127 -0.000072
                                 0.000000  0.000000 -0.000000 -0.000000  0.000001  0.000000 -0.000002 -0.000001  0.000004  0.000002
                                -0.000036 -0.000009 -0.000044  0.000002 -0.000185 -0.000067 -0.000561  0.000200  0.001802 -0.000582
                                -0.005003  0.000808  0.002397 -0.001546 -0.009414  0.000055 -0.005869 -0.003040  0.003432 -0.001972
                                 0.003546  0.000191 -0.000214 -0.000202 -0.000453  0.000225 -0.000312 -0.003477  0.000403 -0.000950
                                -0.005804  0.000750 -0.001216 -0.000000  0.000001 -0.000010  0.000066 -0.000680 -0.011068 -0.033424
                                 0.110856  0.033589  0.095241  0.003264  0.010004 -0.048345  0.006973  0.072428  0.232523  0.370190
                                 0.275805  0.004021 -0.001838  0.039290 -0.005699 -0.000242 -0.018904 -0.001058 -0.000284 -0.000045
                                -0.014934 -0.001600  0.002022  0.001735  0.002941  0.001755

   5.1   2    -0.4554  -10.9943  0.000000 -0.000000  0.000000 -0.000000  0.000000 -0.000000  0.000000 -0.000000  0.000000 -0.000000
                                 0.000000 -0.000000  0.000000 -0.000001  0.000003 -0.000007  0.000017 -0.000041  0.000099 -0.000238
                                 0.000568 -0.001359  0.003034 -0.002709 -0.017717  0.058013 -0.025543  0.027377 -0.072043 -0.003886
                                -0.045329  0.058638  0.047246  0.000187  0.001105 -0.000000  0.000000 -0.000000  0.000000 -0.000000
                                 0.000000 -0.000000  0.000000 -0.000000  0.000000 -0.000000  0.000000 -0.000001  0.000002 -0.000005
                                 0.000012 -0.000030  0.000065  0.000125 -0.002694  0.008478 -0.007369  0.015242 -0.024092  0.194383
                                -0.216233 -0.001234  0.019624  0.006214 -0.001333  0.000812  0.000000 -0.000000 -0.000000  0.000000
                                 0.000000 -0.000000 -0.000000  0.000001  0.000000 -0.000003 -0.000001  0.000011  0.000004 -0.000033
                                -0.000010  0.000087  0.000026 -0.000223 -0.000072  0.000642  0.000281 -0.002653 -0.001792  0.017629
                                 0.005986 -0.057483  0.003358 -0.045971 -0.002751  0.042619 -0.025925  0.240103  0.004003  0.017618
                                -0.044227  0.374987 -0.028123  0.344108 -0.016311  0.178157 -0.004530  0.031562  0.000402 -0.000898
                                -0.000000  0.000000  0.000000 -0.000000 -0.000000  0.000001  0.000001 -0.000003 -0.000002  0.000009
                                 0.000019 -0.000041  0.000016  0.000018  0.000117 -0.000287 -0.000079  0.001199  0.000520 -0.003570
                                -0.000537  0.004727  0.003101 -0.007720 -0.000401  0.002189  0.007456 -0.010794  0.001641 -0.008002
                                -0.000758 -0.000214  0.000268 -0.000497  0.000596  0.001477 -0.000165  0.000795  0.002665  0.000994
                                 0.002132  0.003639  0.002296  0.000000 -0.000000  0.000001 -0.000006  0.000067  0.001055  0.003345
                                -0.013381 -0.003521 -0.011369 -0.000072 -0.000988  0.005013 -0.001421 -0.014828 -0.047978 -0.075367
                                -0.060125 -0.000845  0.000374 -0.009834  0.000545  0.000702  0.001285  0.003102  0.000028  0.000043
                                 0.001700  0.002564  0.000004 -0.000842  0.000066 -0.001533

   6.1   2    -0.3548   -9.3572  0.000000 -0.000000  0.000000 -0.000000  0.000000 -0.000000  0.000000 -0.000000  0.000000 -0.000000
                                 0.000000 -0.000001  0.000002 -0.000005  0.000013 -0.000032  0.000079 -0.000194  0.000471 -0.001133
                                 0.002707 -0.006491  0.014526 -0.012720 -0.087545  0.288747 -0.151938  0.165599 -0.371246  0.033727
                                -0.295600  0.244209  0.437003  0.119287  0.000059 -0.000000  0.000000 -0.000000  0.000000 -0.000000
                                 0.000000 -0.000000  0.000000 -0.000000  0.000000 -0.000000  0.000000 -0.000000  0.000000 -0.000001
                                 0.000004 -0.000015  0.000032  0.000372 -0.004840  0.015133 -0.023425  0.039891 -0.047507  0.429947
                                -0.464317  0.005836  0.010376 -0.012346 -0.004734  0.001789  0.000000  0.000000 -0.000000 -0.000000
                                 0.000000  0.000000 -0.000001 -0.000000  0.000002  0.000001 -0.000008 -0.000002  0.000023  0.000006
                                -0.000060 -0.000017  0.000152  0.000042 -0.000433 -0.000122  0.001753  0.000504 -0.011483 -0.003355
                                 0.037756  0.010989  0.026929  0.008685 -0.024219 -0.008184 -0.158440 -0.046159 -0.000957 -0.003640
                                -0.253542 -0.069835 -0.219405 -0.061802 -0.131908 -0.032854 -0.032649 -0.007832  0.001329  0.000033
                                -0.000000 -0.000000  0.000000  0.000000 -0.000001 -0.000000  0.000002  0.000001 -0.000004 -0.000002
                                 0.000050  0.000015  0.000050 -0.000001  0.000326  0.000114 -0.000565 -0.000382  0.002338  0.000997
                                -0.002959 -0.001193  0.010439  0.002696 -0.001848  0.000047  0.019797  0.003514  0.011113  0.003497
                                 0.001053  0.000371  0.001979  0.000334  0.000206  0.000263 -0.000839 -0.000828 -0.000203 -0.001306
                                -0.000884 -0.000173 -0.001412  0.000000 -0.000000  0.000002 -0.000013  0.000126  0.002194  0.005735
                                -0.018737 -0.005246 -0.010057 -0.001530 -0.001838  0.002421 -0.002643 -0.027344 -0.087978 -0.139534
                                -0.126652 -0.001459  0.000698 -0.030721 -0.000631 -0.000101 -0.002079 -0.000079 -0.000022  0.000002
                                 0.003494  0.001056  0.000928 -0.000473  0.000655 -0.001094

   7.1   0    -0.0212   -5.5531  0.000000 -0.000000  0.000000 -0.000000  0.000000 -0.000000  0.000000 -0.000000  0.000000 -0.000000
                                 0.000000 -0.000000  0.000001 -0.000002  0.000004 -0.000010  0.000026 -0.000063  0.000154 -0.000370
                                 0.000885 -0.002125  0.004752 -0.003982 -0.029895  0.097880 -0.059481  0.066942 -0.133788  0.059113
                                -0.142959  0.028102  0.180432 -0.064231  0.564307  0.000000 -0.000000  0.000000 -0.000000  0.000000
                                -0.000000  0.000000 -0.000000  0.000000 -0.000000  0.000000 -0.000000  0.000001 -0.000003  0.000008
                                -0.000022  0.000066 -0.000144 -0.001007  0.014256 -0.044491  0.058149 -0.103322  0.134450 -1.328917
                                 1.436859  0.001073 -0.030461 -0.321243 -0.218668 -0.160130 -0.000000 -0.000000  0.000000  0.000000
                                -0.000000 -0.000000  0.000000  0.000000 -0.000001 -0.000000  0.000003  0.000000 -0.000008 -0.000001
                                 0.000023  0.000003 -0.000060 -0.000009  0.000186  0.000025 -0.000843 -0.000101  0.005936  0.000663
                                -0.019185 -0.002150 -0.018171 -0.001686  0.016881  0.001555  0.081545  0.008787  0.013373  0.000485
                                 0.122498  0.013849  0.124386  0.014508  0.106476  0.012927  0.020250  0.008913  0.104589  0.008155
                                -0.000000 -0.000000  0.000000  0.000000 -0.000000 -0.000000  0.000001  0.000000 -0.000005 -0.000001
                                -0.000012  0.000006 -0.000084  0.000008 -0.000040  0.000042 -0.000769 -0.000194  0.001310  0.000569
                                -0.002663 -0.000219 -0.000344  0.001299 -0.004898 -0.000084 -0.008164  0.000212 -0.016268 -0.003325
                                -0.023402 -0.001290  0.002523 -0.003220 -0.000306  0.000489  0.000205 -0.000863  0.000703  0.000003
                                 0.000507 -0.000208  0.001336  0.000000 -0.000000  0.000002 -0.000016  0.000177  0.002482  0.009336
                                -0.039259 -0.010122 -0.049749  0.001748 -0.002613  0.109371  0.002256  0.023349  0.075287  0.120508
                                 0.131561  0.001233 -0.000596  0.003048  0.000942  0.000060  0.002129 -0.000197  0.000036  0.000010
                                -0.006536  0.000781 -0.000616  0.000464  0.000358  0.000707

   8.1   0     0.0290   -2.6576 -0.000000  0.000000 -0.000000  0.000000 -0.000000  0.000000 -0.000000  0.000000 -0.000000  0.000000
                                -0.000000  0.000000 -0.000000  0.000000 -0.000001  0.000002 -0.000006  0.000015 -0.000037  0.000093
                                -0.000246  0.000676 -0.001617 -0.000821  0.029436 -0.100200  0.178281 -0.202480  0.199686 -0.182491
                                 0.177136 -0.101645  0.386722 -0.480305  0.589264 -0.000000  0.000000 -0.000000  0.000000 -0.000000
                                 0.000000 -0.000000  0.000000 -0.000000  0.000001 -0.000004  0.000011 -0.000030  0.000076 -0.000183
                                 0.000418 -0.000924  0.001985 -0.003699  0.003151 -0.008560  0.257437 -0.325865  0.165618 -4.063804
                                 3.998582 -0.181237  0.315578  0.060162  1.197707 -1.507186  0.000000  0.000000 -0.000000 -0.000000
                                 0.000000  0.000000 -0.000001 -0.000000  0.000004  0.000000 -0.000014 -0.000000  0.000040  0.000000
                                -0.000102 -0.000001  0.000238  0.000002 -0.000541 -0.000007  0.001397  0.000031 -0.005435 -0.000211
                                 0.020482  0.000668 -0.023625  0.000691  0.025755 -0.000649 -0.076471 -0.002689  0.102469 -0.000532
                                -0.170509 -0.004211 -0.009734 -0.005637  0.020111 -0.005969  0.053018 -0.005296  0.238467 -0.003383
                                -0.000000 -0.000000  0.000002  0.000000 -0.000010 -0.000000  0.000034  0.000001 -0.000100 -0.000003
                                 0.000275  0.000005 -0.000640 -0.000026  0.002094  0.000040 -0.012733 -0.000305  0.033497  0.000757
                                -0.055503 -0.001597  0.065174  0.001175 -0.062029 -0.001608  0.069244  0.001004  0.004626 -0.000014
                                 0.042319  0.003555  0.055432 -0.005415  0.000374 -0.000261 -0.000076 -0.000692 -0.000275 -0.000040
                                 0.008485  0.000305 -0.000685 -0.000000  0.000000 -0.000003  0.000017 -0.000182 -0.002681 -0.008437
                                 0.050901  0.007899 -0.023254 -0.000872  0.002631 -0.750855 -0.001187 -0.011239 -0.033239 -0.060794
                                 0.114754 -0.000206  0.000328 -0.025971  0.000188 -0.000027 -0.010072  0.000051 -0.000052 -0.000010
                                -0.055837 -0.000750 -0.000560 -0.000200  0.006441 -0.000305

                                   1 2px     1 2px     1 2px     1 2px     1 2px     1 2px     1 2px     1 2px     1 2px     1 2px  
                                   1 2px     1 2px     1 2px     1 2px     1 2px     1 2px     1 2px     1 2px     1 2px     1 2px  
                                   1 2px     1 2px     1 2px     1 2px     1 2px     1 2px     1 2px     1 2px     1 2px     1 2px  
                                   1 2px     1 3d1+    1 3d1+    1 3d1+    1 3d1+    1 3d1+    1 3d1+    1 3d1+    1 3d1+    1 3d1+ 
                                   1 3d1+    1 3d1+    1 3d1+    1 3d1+    1 3d1+    1 3d1+    1 3d1+    1 3d1+    1 3d1+    1 3d1+ 
                                   1 3d1+    1 3d1+    1 3d1+    1 4f1+    1 4f3+    1 4f1+    1 4f3+    1 4f1+    1 4f3+    1 4f1+ 
                                   1 4f3+    1 4f1+    1 4f3+    1 4f1+    1 4f3+    1 4f1+    1 4f3+    1 4f1+    1 4f3+    1 4f1+ 
                                   1 4f3+    1 4f1+    1 4f3+    1 4f1+    1 4f3+    1 4f1+    1 4f3+    1 4f1+    1 4f3+    1 4f1+ 
                                   1 4f3+    1 4f1+    1 4f3+    1 4f1+    1 4f3+    1 4f1+    1 4f3+    1 5g1+    1 5g3+    1 5g1+ 
                                   1 5g3+    1 5g1+    1 5g3+    2 2px     2 2px     2 2px     2 2px     2 2px     2 2px     2 2px  
                                   2 2px     2 3d1+    2 3d1+    2 3d1+    2 3d1+    2 4f1+    2 4f3+    2 4f1+    2 4f3+ 

   1.2   2    -2.4637  -16.6228  0.000000 -0.000000  0.000000 -0.000000  0.000000 -0.000000  0.000000 -0.000000  0.000001 -0.000002
                                 0.000007 -0.000020  0.000053 -0.000134  0.000325 -0.000765  0.001767 -0.003728 -0.000237  0.071436
                                -0.212804 -0.121389 -0.013388  0.388028  0.049259  0.500783  0.266979  0.031641 -0.001560  0.000800
                                -0.000268  0.000000 -0.000000  0.000000 -0.000000  0.000000 -0.000000  0.000000 -0.000000  0.000001
                                -0.000004  0.000028 -0.000231  0.000771  0.000867 -0.000951 -0.002860 -0.000244 -0.006990 -0.002798
                                -0.000223 -0.000292 -0.000003  0.000000 -0.000000 -0.000000  0.000000  0.000000 -0.000000 -0.000001
                                 0.000001  0.000002  0.000001 -0.000022  0.000037 -0.000022  0.000089 -0.000084  0.000160  0.000109
                                -0.000145 -0.001708  0.002103  0.001552  0.001303 -0.003436  0.004367  0.000859  0.002251 -0.002340
                                 0.002601 -0.000438  0.000565 -0.000162 -0.000130  0.000002  0.000054 -0.000030  0.000014  0.000095
                                -0.000448  0.000404  0.000016  0.000095  0.000882  0.002545  0.004775  0.003172  0.000017 -0.000026
                                 0.000314 -0.000323 -0.001757 -0.000020 -0.000882  0.000251  0.000028  0.000633  0.000074

   2.2   2    -0.4188   -9.8963 -0.000000  0.000000 -0.000000  0.000000 -0.000000  0.000000 -0.000000  0.000000 -0.000000  0.000000
                                -0.000000  0.000000 -0.000001  0.000002 -0.000006  0.000015 -0.000040  0.000086  0.000247 -0.004506
                                 0.014122 -0.013944  0.027513 -0.041874  0.431210 -0.468361  0.001484  0.027303  0.031515  0.001234
                                -0.000733 -0.000000  0.000000 -0.000000  0.000001 -0.000002  0.000007 -0.000021  0.000055 -0.000140
                                 0.000403 -0.001649  0.010843 -0.035031 -0.028344  0.025577  0.144833  0.013592  0.224673  0.232348
                                 0.118930  0.033338 -0.003150 -0.000000 -0.000000  0.000000  0.000000 -0.000000 -0.000000  0.000001
                                 0.000000 -0.000002 -0.000001  0.000034  0.000000  0.000052 -0.000009  0.000225  0.000009 -0.000171
                                -0.000126  0.000734  0.000201  0.001003 -0.000536  0.001899  0.000413  0.003817 -0.000622  0.013413
                                 0.000919 -0.003191  0.001167  0.004413  0.000327 -0.001004  0.000026 -0.000144  0.000615  0.003308
                                 0.001058  0.006961  0.002387  0.005497  0.056814  0.182157  0.296648  0.260241  0.003145 -0.001452
                                 0.037570 -0.004953 -0.022300 -0.000291 -0.027787  0.001266  0.001565  0.006432  0.002312

   3.2   0    -0.0264   -8.4346  0.000000 -0.000000  0.000000 -0.000000  0.000000 -0.000000  0.000000 -0.000000  0.000000 -0.000000
                                 0.000001 -0.000002  0.000006 -0.000014  0.000035 -0.000084  0.000199 -0.000429 -0.000122  0.009757
                                -0.030566 -0.001207 -0.020102  0.069573 -0.304888  0.394840  0.022963 -0.074549 -0.146923 -0.126028
                                -0.101334 -0.000000  0.000000 -0.000000  0.000001 -0.000002  0.000008 -0.000023  0.000062 -0.000158
                                 0.000448 -0.001811  0.011817 -0.038468 -0.029151  0.026255  0.159411  0.009285  0.253451  0.237056
                                 0.173106  0.097299  0.043458  0.000000 -0.000000 -0.000000  0.000000  0.000001 -0.000000 -0.000004
                                 0.000000  0.000010 -0.000000 -0.000069  0.000001 -0.000024 -0.000002 -0.000469  0.000006  0.001355
                                -0.000029 -0.004635  0.000119  0.005680 -0.000152 -0.011669  0.000144  0.000919 -0.000192 -0.022322
                                -0.000318 -0.019918 -0.001280 -0.009333 -0.000850 -0.013975 -0.001456 -0.000723  0.000169 -0.001948
                                -0.000115 -0.001734  0.001005 -0.004419 -0.046198 -0.150058 -0.240372 -0.244118 -0.002715  0.001160
                                -0.134045 -0.000539 -0.000350 -0.000001  0.006561  0.001127 -0.001277 -0.000951 -0.001541

   4.2   0     0.0253   -2.7592  0.000000 -0.000000  0.000000 -0.000000  0.000000 -0.000000  0.000000 -0.000000  0.000000 -0.000001
                                 0.000003 -0.000010  0.000026 -0.000067  0.000159 -0.000362  0.000792 -0.001700  0.003715 -0.008941
                                 0.026739 -0.251139  0.329925 -0.200852  3.929310 -3.909034  0.118506 -0.107070  0.200309 -0.703511
                                 1.343469  0.000000 -0.000000  0.000000 -0.000000  0.000000 -0.000001  0.000004 -0.000009  0.000014
                                 0.000004 -0.000279  0.003051 -0.009120 -0.019273  0.018715  0.041748  0.029406  0.058236  0.085293
                                 0.042488  0.009480 -0.255661  0.000000  0.000000 -0.000001 -0.000000  0.000003  0.000000 -0.000011
                                -0.000001  0.000031  0.000003 -0.000101 -0.000008  0.000165  0.000019 -0.000752 -0.000061  0.004000
                                 0.000361 -0.010744 -0.000950  0.016671  0.001538 -0.021184 -0.001732  0.014190  0.001377 -0.020882
                                -0.001129  0.005268  0.001599 -0.028514 -0.002929 -0.047511  0.006713 -0.000176  0.000032 -0.000860
                                 0.000106 -0.000470  0.000117 -0.001586 -0.017661 -0.060494 -0.090138 -0.119823 -0.001424  0.000402
                                 0.130749 -0.000421  0.000269  0.000001 -0.002890  0.000167 -0.000521  0.000612 -0.000506

                                   1 2py     1 2py     1 2py     1 2py     1 2py     1 2py     1 2py     1 2py     1 2py     1 2py  
                                   1 2py     1 2py     1 2py     1 2py     1 2py     1 2py     1 2py     1 2py     1 2py     1 2py  
                                   1 2py     1 2py     1 2py     1 2py     1 2py     1 2py     1 2py     1 2py     1 2py     1 2py  
                                   1 2py     1 3d1-    1 3d1-    1 3d1-    1 3d1-    1 3d1-    1 3d1-    1 3d1-    1 3d1-    1 3d1- 
                                   1 3d1-    1 3d1-    1 3d1-    1 3d1-    1 3d1-    1 3d1-    1 3d1-    1 3d1-    1 3d1-    1 3d1- 
                                   1 3d1-    1 3d1-    1 3d1-    1 4f1-    1 4f3-    1 4f1-    1 4f3-    1 4f1-    1 4f3-    1 4f1- 
                                   1 4f3-    1 4f1-    1 4f3-    1 4f1-    1 4f3-    1 4f1-    1 4f3-    1 4f1-    1 4f3-    1 4f1- 
                                   1 4f3-    1 4f1-    1 4f3-    1 4f1-    1 4f3-    1 4f1-    1 4f3-    1 4f1-    1 4f3-    1 4f1- 
                                   1 4f3-    1 4f1-    1 4f3-    1 4f1-    1 4f3-    1 4f1-    1 4f3-    1 5g1-    1 5g3-    1 5g1- 
                                   1 5g3-    1 5g1-    1 5g3-    2 2py     2 2py     2 2py     2 2py     2 2py     2 2py     2 2py  
                                   2 2py     2 3d1-    2 3d1-    2 3d1-    2 3d1-    2 4f1-    2 4f3-    2 4f1-    2 4f3- 

   1.3   2    -2.4538  -16.6094  0.000000 -0.000000  0.000000 -0.000000  0.000000 -0.000000  0.000000 -0.000000  0.000001 -0.000002
                                 0.000007 -0.000020  0.000053 -0.000134  0.000326 -0.000767  0.001772 -0.003740 -0.000194  0.071229
                                -0.212331 -0.123370 -0.009808  0.385442  0.071300  0.475539  0.270116  0.034669 -0.000911  0.000804
                                -0.000259 -0.000000  0.000000 -0.000000  0.000000 -0.000000  0.000000 -0.000001  0.000002 -0.000004
                                 0.000008 -0.000012  0.000000 -0.000154  0.001091 -0.000985  0.000540 -0.000826 -0.002168 -0.004216
                                -0.001022 -0.000215 -0.000029  0.000000  0.000000 -0.000000 -0.000000  0.000000  0.000000 -0.000000
                                -0.000001  0.000003  0.000002  0.000015 -0.000007  0.000062  0.000010  0.000088 -0.000066  0.000018
                                 0.000021  0.000228 -0.000075  0.002641  0.000820  0.001174 -0.001125  0.003213 -0.000480  0.000100
                                -0.001828  0.000316 -0.000535 -0.000256  0.000106  0.000040 -0.000047 -0.000066  0.000058 -0.000554
                                -0.000356 -0.000202  0.000176  0.000029  0.000255  0.000662  0.001403  0.000125  0.000001 -0.000008
                                 0.000118 -0.000201 -0.000914 -0.000012 -0.000046  0.000204  0.000007  0.000317  0.000054

   2.3   2    -0.5439   -9.9430  0.000000 -0.000000  0.000000 -0.000000  0.000000 -0.000000  0.000000 -0.000000  0.000000 -0.000000
                                 0.000000 -0.000000  0.000001 -0.000002  0.000004 -0.000009  0.000018 -0.000038  0.000266 -0.002238
                                 0.006843 -0.016541  0.025759 -0.025520  0.368245 -0.381788  0.003897 -0.011060 -0.005981  0.001567
                                -0.001187 -0.000000  0.000000 -0.000000  0.000000 -0.000002  0.000006 -0.000016  0.000044 -0.000113
                                 0.000334 -0.001423  0.009635 -0.031204 -0.027088  0.025220  0.130298  0.016016  0.198589  0.198466
                                 0.078915  0.014608 -0.000833  0.000000 -0.000000 -0.000000  0.000000  0.000000 -0.000000 -0.000001
                                 0.000000  0.000004 -0.000000 -0.000004 -0.000000  0.000046 -0.000003 -0.000039  0.000000  0.000726
                                -0.000043 -0.001993  0.000067  0.003936 -0.000199 -0.004484  0.000080  0.005154 -0.000366  0.001396
                                 0.000355 -0.010721  0.000562  0.000520  0.000150  0.000955 -0.000007  0.000264  0.000352  0.003686
                                 0.000756  0.005947  0.001388  0.007055  0.073156  0.235174  0.368707  0.277817  0.003937 -0.001863
                                 0.024422 -0.003685 -0.014462 -0.000213 -0.016391  0.001822  0.002017  0.005013  0.002120

   3.3   2    -0.3987  -10.3654  0.000000 -0.000000  0.000000 -0.000000  0.000000 -0.000000  0.000000 -0.000000  0.000000 -0.000000
                                 0.000000 -0.000001  0.000003 -0.000008  0.000020 -0.000049  0.000115 -0.000249 -0.000076  0.005771
                                -0.018196  0.000022 -0.012470  0.042187 -0.210146  0.264017  0.006379 -0.054817 -0.052621  0.000146
                                -0.000001 -0.000000  0.000000 -0.000000  0.000001 -0.000003  0.000010 -0.000030  0.000081 -0.000205
                                 0.000582 -0.002354  0.015428 -0.050669 -0.037429  0.034845  0.210198  0.010817  0.329885  0.294537
                                 0.167591  0.030075  0.002869  0.000000  0.000000 -0.000001 -0.000000  0.000002  0.000000 -0.000009
                                -0.000000  0.000022  0.000000 -0.000104  0.000000  0.000057  0.000004 -0.000748  0.000000  0.003060
                                -0.000058 -0.008913  0.000149  0.012473  0.000055 -0.019403  0.000152  0.005760 -0.000186 -0.026031
                                -0.000312 -0.009133 -0.000180 -0.006040 -0.000065  0.001494  0.000011  0.000370  0.000542  0.000533
                                 0.001240  0.002188  0.001289 -0.005357 -0.055723 -0.180083 -0.280688 -0.241121 -0.003020  0.001413
                                -0.046066 -0.000643 -0.000196 -0.000002  0.010223  0.000603 -0.001541 -0.002335 -0.001233

   4.3   0     0.0223   -2.4957  0.000000 -0.000000  0.000000 -0.000000  0.000000 -0.000000  0.000000 -0.000000  0.000000 -0.000001
                                 0.000003 -0.000008  0.000021 -0.000052  0.000125 -0.000283  0.000614 -0.001316  0.003248 -0.011158
                                 0.033867 -0.216139  0.291521 -0.197717  3.488725 -3.502399  0.092955 -0.067196  0.230942 -0.530022
                                 1.247294  0.000000 -0.000000  0.000000 -0.000000  0.000001 -0.000003  0.000009 -0.000022  0.000049
                                -0.000095  0.000126  0.000391 -0.000497 -0.012468  0.012622  0.005971  0.026922  0.000944  0.030809
                                -0.000667 -0.014333 -0.248654  0.000000  0.000000 -0.000001 -0.000000  0.000003  0.000000 -0.000010
                                -0.000001  0.000028  0.000002 -0.000082 -0.000007  0.000174  0.000013 -0.000619 -0.000051  0.003626
                                 0.000338 -0.009497 -0.000930  0.015168  0.001228 -0.017908 -0.001500  0.013972  0.001228 -0.013768
                                -0.000087  0.012906  0.003290 -0.025167 -0.002303 -0.026740  0.008326  0.000029  0.000057 -0.000082
                                 0.000366  0.000080 -0.000140 -0.000442 -0.005629 -0.021201 -0.026610 -0.051016 -0.000673  0.000103
                                 0.140566 -0.000402 -0.000492 -0.000008 -0.003432 -0.000126 -0.000181  0.000732 -0.000049

   5.3   0     0.0702   -3.3179 -0.000000  0.000000 -0.000000  0.000000 -0.000000  0.000000 -0.000000  0.000000 -0.000001  0.000003
                                -0.000009  0.000025 -0.000066  0.000166 -0.000397  0.000907 -0.001998  0.004291 -0.008435  0.011792
                                -0.033896  0.579341 -0.742086  0.400111 -8.871519  8.748077 -0.306081  0.311660 -0.318713  1.776720
                                -1.244232  0.000000 -0.000000  0.000000 -0.000002  0.000007 -0.000024  0.000068 -0.000172  0.000389
                                -0.000818  0.001624 -0.002720  0.014260 -0.069521  0.071548 -0.035204  0.183129 -0.121355  0.110462
                                -0.078171  0.185080 -0.520443  0.000000 -0.000000 -0.000001  0.000000  0.000003 -0.000000 -0.000012
                                 0.000001  0.000033 -0.000002 -0.000100  0.000003  0.000200 -0.000020 -0.000753  0.000038  0.004256
                                -0.000197 -0.011091  0.000389  0.017216 -0.001299 -0.020469  0.001108  0.014197 -0.001050 -0.014766
                                 0.002631  0.006321  0.004417 -0.029325  0.002468  0.147877  0.007291 -0.000249  0.000095  0.000988
                                 0.000776 -0.002196 -0.000455 -0.000825 -0.008431 -0.026890 -0.043263 -0.033200 -0.000388  0.000220
                                -0.194231 -0.000967 -0.002677 -0.000043 -0.008649  0.000120 -0.000232  0.000002 -0.000072

                                   1 3d2-    1 3d2-    1 3d2-    1 3d2-    1 3d2-    1 3d2-    1 3d2-    1 3d2-    1 3d2-    1 3d2- 
                                   1 3d2-    1 3d2-    1 3d2-    1 3d2-    1 3d2-    1 3d2-    1 3d2-    1 3d2-    1 3d2-    1 3d2- 
                                   1 3d2-    1 3d2-    1 4f2-    1 4f2-    1 4f2-    1 4f2-    1 4f2-    1 4f2-    1 4f2-    1 4f2- 
                                   1 4f2-    1 4f2-    1 4f2-    1 4f2-    1 4f2-    1 4f2-    1 4f2-    1 4f2-    1 4f2-    1 5g2- 
                                   1 5g4-    1 5g2-    1 5g4-    1 5g2-    1 5g4-    2 3d2-    2 3d2-    2 3d2-    2 3d2-    2 4f2- 
                                   2 4f2- 

   1.4   +    -0.4911  -11.1632 -0.000000  0.000000 -0.000000  0.000001 -0.000003  0.000012 -0.000035  0.000093 -0.000236  0.000676
                                -0.002770  0.018276 -0.059493 -0.046750  0.042409  0.249001  0.017798  0.392599  0.353216  0.170427
                                 0.025831 -0.000812  0.000000 -0.000000  0.000001 -0.000004  0.000009 -0.000044  0.000019 -0.000311
                                 0.001281 -0.003758  0.005011 -0.008269  0.002106 -0.011495 -0.007982  0.000138 -0.000546 -0.000856
                                 0.001436 -0.000828  0.002787  0.000675  0.003536  0.000620  0.002808  0.000035  0.001813 -0.000480
                                -0.001100

   2.4   0     0.0801   -2.5954 -0.000000  0.000000 -0.000001  0.000005 -0.000018  0.000062 -0.000179  0.000453 -0.001034  0.002213
                                -0.004731  0.011158 -0.050052  0.163663 -0.169183  0.147004 -0.453022  0.394930 -0.186604  0.208882
                                -0.476038  1.250371 -0.000000  0.000002 -0.000008  0.000030 -0.000087  0.000228 -0.000588  0.001749
                                -0.011038  0.028422 -0.046564  0.051023 -0.044449  0.032241 -0.045322  0.114717 -0.223417  0.000071
                                -0.000055 -0.000045 -0.000313  0.000098  0.000149  0.000362 -0.000410  0.000004  0.005360 -0.000068
                                 0.000549

   3.4   0     0.1477   -2.5590 -0.000000  0.000000 -0.000000  0.000001 -0.000005  0.000016 -0.000045  0.000115 -0.000261  0.000562
                                -0.001220  0.003039 -0.013342  0.040317 -0.041753  0.040311 -0.113509  0.104830 -0.042571  0.056960
                                -0.120933  0.211802  0.000002 -0.000015  0.000068 -0.000243  0.000714 -0.001859  0.004821 -0.014262
                                 0.090162 -0.231902  0.379822 -0.414701  0.361471 -0.257743  0.367255 -0.996304  1.616571  0.000022
                                -0.000007 -0.000131  0.000006  0.000460 -0.000033  0.000730  0.001590  0.000028 -0.000637 -0.000996
                                 0.002924

 HOMO      6.1    -0.354790 =      -9.6543eV
 LUMO      3.2    -0.026383 =      -0.7179eV
 LUMO-HOMO         0.328407 =       8.9364eV


 **********************************************************************************************************************************
 DATASETS  * FILE   NREC   LENGTH (MB)   RECORD NAMES
              1      19       22.57       500      610      700      900      950      970     1000      129      960     1100   
                                          VAR    BASINP    GEOM    SYMINP    ZMAT    AOBASIS   BASIS     P2S    ABASIS      S 
                                         1400     1410     1420     1200     1210     1080     1600     1650     1700   
                                           T        V       ECP      H0       H01     AOSYM     SMH    MOLCAS    OPER   

              2       4        4.55       700     1000      520     2100   
                                         GEOM     BASIS   MCVARS     RHF  

 PROGRAMS   *        TOTAL       RHF       INT
 CPU TIMES  *       257.28     15.52    241.42
 REAL TIME  *       293.54 SEC
 DISK USED  *        11.33 GB      
 SF USED    *         0.25 MB      
 GA USED    *         0.00 MB       (max)       0.00 MB       (current)
 **********************************************************************************************************************************
 SETTING SCF(5)         =      -119.39423003  AU                              


 PROGRAM * CCSD (Restricted open-shell coupled cluster)     Authors: C. Hampel, H.-J. Werner, 1991, M. Deegan, P.J. Knowles, 1992


 Convergence thresholds:  THRVAR = 1.00D-08  THRDEN = 1.00D-06

 CCSD(T)     terms to be evaluated (factor= 1.000)


 Number of closed-shell orbitals:  11 (   6   2   3   0 )
 Number of active  orbitals:        1 (   0   0   0   1 )
 Number of external orbitals:     443 ( 180 107 106  50 )

 Memory could be reduced to 445.68 Mwords without degradation in triples

 Number of N-1 electron functions:              23
 Number of N-2 electron functions:             253
 Number of singly external CSFs:              3275
 Number of doubly external CSFs:           9817564
 Total number of CSFs:                     9820839

 Molecular orbitals read from record     2100.2  Type=RHF/CANONICAL (state 1.4)

 Integral transformation finished. Total CPU:  14.94 sec, npass=  1  Memory used:  43.25 MW

 Starting RMP2 calculation

 Wavefunction is spin-projected

 ITER.      SQ.NORM     CORR.ENERGY   TOTAL ENERGY   ENERGY CHANGE        DEN1      VAR(S)    VAR(P)  DIIS     TIME
   1      1.29735585    -0.96866605  -120.36289608    -0.96866605    -0.00436740  0.59D-05  0.29D-02  1  1    18.84
   2      1.30468048    -0.97345559  -120.36768561    -0.00478954    -0.00002420  0.21D-07  0.21D-04  2  2    22.32
   3      1.30526128    -0.97369396  -120.36792399    -0.00023838    -0.00000008  0.98D-10  0.63D-07  3  3    25.84
   4      1.30527561    -0.97369699  -120.36792702    -0.00000303    -0.00000000  0.44D-11  0.26D-09  4  4    29.76
   5      1.30527582    -0.97369705  -120.36792708    -0.00000006    -0.00000000  0.25D-12  0.12D-11  5  5    33.70

 Norm of t1 vector:      0.02752553      S-energy:    -0.00255145      T1 diagnostic:  0.00006372
 Norm of t2 vector:      0.55183165      P-energy:    -0.97114560
                                         Alpha-Beta:  -0.69135099
                                         Alpha-Alpha: -0.15149756
                                         Beta-Beta:   -0.12829705

 Spin contamination <S**2-Sz**2-Sz>     0.00000000
  Reference energy                   -119.394230029029
  RHF-RMP2 correlation energy          -0.973697050724
 !RHF-RMP2 energy                    -120.367927079753
 (NB above energy spin projected)

 Starting RCCSD calculation

 ITER.      SQ.NORM     CORR.ENERGY   TOTAL ENERGY   ENERGY CHANGE        DEN1      VAR(S)    VAR(P)  DIIS     TIME
   1      1.22825448    -0.86851542  -120.26274545    -0.86851542    -0.04820491  0.19D-01  0.11D-01  1  1    50.52
   2      1.26448831    -0.90419574  -120.29842577    -0.03568032    -0.00572134  0.12D-02  0.26D-02  2  2    67.08
   3      1.28915561    -0.90766704  -120.30189707    -0.00347130    -0.00172905  0.15D-02  0.37D-03  3  3    82.30
   4      1.31240851    -0.91192378  -120.30615380    -0.00425674    -0.00048873  0.42D-03  0.11D-03  4  4    98.11
   5      1.33501010    -0.91466785  -120.30889787    -0.00274407    -0.00015001  0.16D-03  0.23D-04  5  5   113.79
   6      1.34817880    -0.91539370  -120.30962373    -0.00072585    -0.00006068  0.69D-04  0.10D-04  6  6   129.84
   7      1.35851223    -0.91579458  -120.31002461    -0.00040089    -0.00002227  0.24D-04  0.45D-05  7  7   145.91
   8      1.36567142    -0.91599853  -120.31022856    -0.00020395    -0.00000667  0.55D-05  0.19D-05  8  8   162.70
   9      1.36829126    -0.91604156  -120.31027159    -0.00004303    -0.00000203  0.17D-05  0.56D-06  9  9   179.37
  10      1.36955133    -0.91605262  -120.31028264    -0.00001105    -0.00000056  0.48D-06  0.15D-06 10 10   196.48
  11      1.36987229    -0.91605909  -120.31028912    -0.00000647    -0.00000019  0.14D-06  0.57D-07 11 11   213.88
  12      1.37011848    -0.91606119  -120.31029122    -0.00000210    -0.00000006  0.50D-07  0.15D-07 12 12   228.82
  13      1.37017851    -0.91605854  -120.31028857     0.00000265    -0.00000002  0.18D-07  0.49D-08 13 13   245.95
  14      1.37019508    -0.91605891  -120.31028894    -0.00000037    -0.00000001  0.74D-08  0.22D-08 14 14   263.45

 Norm of t1 vector:      0.29783495      S-energy:    -0.00286782      T1 diagnostic:  0.04325638
                                                                       D1 diagnostic:  0.18477302
 Norm of t2 vector:      0.53055577      P-energy:    -0.91319109
                                         Alpha-Beta:  -0.68391897
                                         Alpha-Alpha: -0.12397988
                                         Beta-Beta:   -0.10529223

 Singles amplitudes (print threshold =  0.500E-01):

         I         SYM. A    A   T(IA) [Alpha-Alpha]

         4         1         1     -0.06856671
         6         1         1      0.11394593
         6         1         2     -0.05060454
 
         I         SYM. A    A   T(IA) [Beta-Beta]

         4         1         1     -0.05698909
         6         1         1      0.13420502
         6         1         2     -0.05669062

 Doubles amplitudes (print threshold =  0.500E-01):

         I         J         SYM. A    SYM. B    A         B      T(IJ, AB) [Alpha-Beta]

         8         8         2         2         1         1     -0.16732793
         8         8         2         2         1         2     -0.05343631
         8         8         2         2         2         1     -0.05343631

 Spin contamination <S**2-Sz**2-Sz>     0.00000000

 Memory could be reduced to 458.42 Mwords without degradation in triples
 

  Correlated core orbitals:             1.1       2.1       1.2       1.3
  Orbital energies:                    -4.2674   -2.4801   -2.5132   -2.5035
 
  RCCSD core-core energy               -0.125093311315
  RCCSD core-valence energy            -0.216707315083
  RCCSD valence correlation energy     -0.574258281101
 

 RESULTS
 =======

  Reference energy                   -119.394230029029
  RCCSD singles energy                 -0.002867821033
  RCCSD pair energy                    -0.913191086465
  RCCSD correlation energy             -0.916058907498
  Triples (T) contribution             -0.059379812464
  Total correlation energy             -0.975438719962
 
  RHF-RCCSD energy                   -120.310288936527
  RHF-RCCSD[T] energy                -120.378701737557
  RHF-RCCSD-T energy                 -120.368761626223
 !RHF-RCCSD(T) energy                -120.369668748992

 Program statistics:

 Available memory in ccsd:              1023998628
 Min. memory needed in ccsd:              28062859
 Max. memory used in ccsd:                40287473
 Max. memory used in cckext:              32692403 (14 integral passes)
 Max. memory used in cckint:              43251562 ( 1 integral passes)



 **********************************************************************************************************************************
 DATASETS  * FILE   NREC   LENGTH (MB)   RECORD NAMES
              1      19       22.57       500      610      700      900      950      970     1000      129      960     1100   
                                          VAR    BASINP    GEOM    SYMINP    ZMAT    AOBASIS   BASIS     P2S    ABASIS      S 
                                         1400     1410     1420     1200     1210     1080     1600     1650     1700   
                                           T        V       ECP      H0       H01     AOSYM     SMH    MOLCAS    OPER   

              2       4        4.55       700     1000      520     2100   
                                         GEOM     BASIS   MCVARS     RHF  

 PROGRAMS   *        TOTAL  RCCSD(T)       RHF       INT
 CPU TIMES  *       801.46    544.16     15.52    241.42
 REAL TIME  *      1085.90 SEC
 DISK USED  *        42.81 GB      
 SF USED    *         7.46 GB      
 GA USED    *         0.00 MB       (max)       0.00 MB       (current)
 **********************************************************************************************************************************
 SETTING CCSD(5)        =      -120.36966875  AU                              
 Output type csv         
                                                                                                                                                                                                                                                                

     Z,SCF,CCSD
   0.0,      0.0000000,      0.0000000
   0.0,      0.0000000,      0.0000000
   0.0,      0.0000000,      0.0000000
   0.0,      0.0000000,      0.0000000
   1.9,   -119.3942300,   -120.3696687
                                                  

 RCCSD(T)/USERDEF energy=   -120.369668748992

        RCCSD(T)        RHF-SCF 
   -120.36966875   -119.39423003
 **********************************************************************************************************************************
 Molpro calculation terminated
 Variable memory released
