
 Primary working directories    : /global/cscratch1/sd/bkincaid
 Secondary working directories  : /global/cscratch1/sd/bkincaid
 Wavefunction directory         : /global/homes/b/bkincaid/wfu/
 Main file repository           : /global/cscratch1/sd/bkincaid/

 SHA1      : 19cd028119e0e09f93f0674bd8af7968d9b3eff6
 NAME      : 2015.1.36
 ARCHNAME  : linux/x86_64
 FC        : /opt/cray/pe/craype/2.5.14/bin/ftn
 BLASLIB   : -L/opt/intel/compilers_and_libraries_2018.1.163/linux/mkl/lib/intel64 -Wl,-_start-group -lmkl_intel_ilp64 -lmkl_intel_thread -lmkl_core -Wl,-_end-group -liomp5
 id        : lbl

 Nodes     nprocs
 nid13039    11
 Number of processes for MPI-2 version of Molpro:   nprocs(total)=   12   nprocs(compute)=   11   nprocs(helper)=    1

 Using customized tuning parameters: mindgm=7; mindgv=16; mindgc=1; mindgr=1; noblas=0; minvec=7
 default implementation of scratch files=sf  

 ***,Calculation for IrO groundstate
 memory,1024,m
 gthresh,twoint=1.0E-15
 gthresh,throvl=1.0E-15
                                                                                 !symmetry,nosym
 
 basis={
 Including file /global/u1/b/bkincaid/molpro/Ir/molecules/tz/IrO/ecps/bk2.3/bk2.3
 
 Including file /global/u1/b/bkincaid/molpro/Ir/molecules/tz/IrO/ecps/bk2.3/tz.basis
 
 ecp,O,2,1,0
 3
 1,  12.30997,  6.000000
 3,  14.76962,  73.85984
 2,  13.71419, -47.87600
 1
 2,  13.65512,  85.86406
 
 Including file /global/u1/b/bkincaid/molpro/Ir/molecules/tz/IrO/ecps/bk2.3/O-aug-cc-CVTZ.basis
 }
 
 ne = 23
 
 A1=6
 B1=2
 B2=3
 A2=1
 
 
 do i=1,5
         if(i.eq.1) then
                 z(i) = 1.500
         else if(i.eq.2) then
                 z(i) = 1.600
         else if(i.eq.3) then
                 z(i) = 1.700
         else if(i.eq.4) then
                 z(i) = 1.800
         else if(i.eq.5) then
                 z(i) = 1.900
         endif
 
 geometry={
 2
 IrO
 Ir 0.0 0.0 0.0
 O 0.0 0.0 z(i)
 }
 
 
 {rhf,maxdis=35,iptyp='DIIS',nitord=30,maxit=60; shift,-1.0,-0.5
 wf,nelec=ne,spin=1,sym=4
 occ,A1,B1,B2,A2
 closed,A1,B1,B2,A2-1
 print,orbitals=2
         }
 scf(i)=energy
 {rccsd(t),shifts=0.2,shiftp=0.2,thrdis=1.0;diis,1,1,15,1;maxit,100;core}
 ccsd(i)=energy
 enddo
 
 table,z,scf,ccsd
 save
 type,csv
 

 Variables initialized (889), CPU time= 0.01 sec
 Commands  initialized (702), CPU time= 0.01 sec, 572 directives.
 Default parameters read. Elapsed time= 0.16 sec

 Checking input...
 Passed
1


                                         ***  PROGRAM SYSTEM MOLPRO  ***
                                       Copyright, TTI GmbH Stuttgart, 2015
                                    Version 2015.1 linked Dec 29 2018 15:55:43


 **********************************************************************************************************************************
 LABEL *   Calculation for IrO groundstate                                               
  64 bit mpp version                                                                     DATE: 23-Mar-21          TIME: 14:40:11  
 **********************************************************************************************************************************

 SHA1:             19cd028119e0e09f93f0674bd8af7968d9b3eff6
 **********************************************************************************************************************************

 THRESHOLDS:

 ZERO    =  1.00D-12  ONEINT  =  1.00D-12  TWOINT  =  1.00D-15  PREFAC  =  1.00D-14  LOCALI  =  1.00D-09  EORDER  =  1.00D-04
 ENERGY  =  0.00D+00  ETEST   =  0.00D+00  EDENS   =  0.00D+00  THRDEDEF=  1.00D-06  GRADIENT=  1.00D-02  STEP    =  1.00D-03
 ORBITAL =  1.00D-05  CIVEC   =  1.00D-05  COEFF   =  1.00D-04  PRINTCI =  5.00D-02  PUNCHCI =  9.90D+01  OPTGRAD =  3.00D-04
 OPTENERG=  1.00D-06  OPTSTEP =  3.00D-04  THRGRAD =  1.00D-10  COMPRESS=  1.00D-11  VARMIN  =  1.00D-07  VARMAX  =  1.00D-03
 THRDOUB =  0.00D+00  THRDIV  =  1.00D-05  THRRED  =  1.00D-07  THRPSP  =  1.00D+00  THRDC   =  1.00D-10  THRCS   =  1.00D-10
 THRNRM  =  1.00D-08  THREQ   =  0.00D+00  THRDE   =  1.00D+00  THRREF  =  1.00D-05  SPARFAC =  1.00D+00  THRDLP  =  1.00D-07
 THRDIA  =  1.00D-10  THRDLS  =  1.00D-07  THRGPS  =  0.00D+00  THRKEX  =  0.00D+00  THRDIS  =  2.00D-01  THRVAR  =  1.00D-10
 THRLOC  =  1.00D-06  THRGAP  =  1.00D-06  THRLOCT = -1.00D+00  THRGAPT = -1.00D+00  THRORB  =  1.00D-06  THRMLTP =  0.00D+00
 THRCPQCI=  1.00D-10  KEXTA   =  0.00D+00  THRCOARS=  0.00D+00  SYMTOL  =  1.00D-06  GRADTOL =  1.00D-06  THROVL  =  1.00D-08
 THRORTH =  1.00D-08  GRID    =  1.00D-06  GRIDMAX =  1.00D-03  DTMAX   =  0.00D+00  THROCCDE=  1.00D-01  THROCCDE=  1.00D-01



 THRESHOLDS:

 ZERO    =  1.00D-12  ONEINT  =  1.00D-12  TWOINT  =  1.00D-15  PREFAC  =  1.00D-14  LOCALI  =  1.00D-09  EORDER  =  1.00D-04
 ENERGY  =  0.00D+00  ETEST   =  0.00D+00  EDENS   =  0.00D+00  THRDEDEF=  1.00D-06  GRADIENT=  1.00D-02  STEP    =  1.00D-03
 ORBITAL =  1.00D-05  CIVEC   =  1.00D-05  COEFF   =  1.00D-04  PRINTCI =  5.00D-02  PUNCHCI =  9.90D+01  OPTGRAD =  3.00D-04
 OPTENERG=  1.00D-06  OPTSTEP =  3.00D-04  THRGRAD =  1.00D-10  COMPRESS=  1.00D-11  VARMIN  =  1.00D-07  VARMAX  =  1.00D-03
 THRDOUB =  0.00D+00  THRDIV  =  1.00D-05  THRRED  =  1.00D-07  THRPSP  =  1.00D+00  THRDC   =  1.00D-10  THRCS   =  1.00D-10
 THRNRM  =  1.00D-08  THREQ   =  0.00D+00  THRDE   =  1.00D+00  THRREF  =  1.00D-05  SPARFAC =  1.00D+00  THRDLP  =  1.00D-07
 THRDIA  =  1.00D-10  THRDLS  =  1.00D-07  THRGPS  =  0.00D+00  THRKEX  =  0.00D+00  THRDIS  =  2.00D-01  THRVAR  =  1.00D-10
 THRLOC  =  1.00D-06  THRGAP  =  1.00D-06  THRLOCT = -1.00D+00  THRGAPT = -1.00D+00  THRORB  =  1.00D-06  THRMLTP =  0.00D+00
 THRCPQCI=  1.00D-10  KEXTA   =  0.00D+00  THRCOARS=  0.00D+00  SYMTOL  =  1.00D-06  GRADTOL =  1.00D-06  THROVL  =  1.00D-15
 THRORTH =  1.00D-08  GRID    =  1.00D-06  GRIDMAX =  1.00D-03  DTMAX   =  0.00D+00  THROCCDE=  1.00D-01  THROCCDE=  1.00D-01



 Variable memory set to 1024000000 words,  buffer space   230000 words

 SETTING BASIS          =    USERDEF
 SETTING NE             =        23.00000000                                  
 SETTING A1             =         6.00000000                                  
 SETTING B1             =         2.00000000                                  
 SETTING B2             =         3.00000000                                  
 SETTING A2             =         1.00000000                                  

 DO I                   =         1.00000000   
 SETTING Z(1)           =         1.50000000                                  

Geometry recognized as XYZ



 Recomputing integrals since basis changed


 Using spherical harmonics



 PROGRAM * SEWARD (Integral evaluation for generally contracted gaussian basis sets)     Author: Roland Lindh, 1990

 Geometry written to block  1 of record 700


 Point group  C2v 



 ATOMIC COORDINATES

 NR  ATOM    CHARGE       X              Y              Z

   1  IR     17.00    0.000000000    0.000000000    0.000000000
   2  O       6.00    0.000000000    0.000000000    2.834589187

 Bond lengths in Bohr (Angstrom)

 1-2  2.834589187
     ( 1.500000000)

 NUCLEAR CHARGE:                   23
 NUMBER OF PRIMITIVE AOS:         556
 NUMBER OF SYMMETRY AOS:          455
 NUMBER OF CONTRACTIONS:          455   ( 186A1  + 109B1  + 109B2  +  51A2  )
 NUMBER OF CORE ORBITALS:           4   (   2A1  +   1B1  +   1B2  +   0A2  )
 NUMBER OF VALENCE ORBITALS:       10   (   5A1  +   2B1  +   2B2  +   1A2  )


 NUCLEAR REPULSION ENERGY   35.98405034

 EXTRA SYMMETRY OF AOS IN SYMMETRY 1:   1 1 1 1 1 1 1 1 1 1   1 1 1 1 1 1 1 1 1 1   1 1 1 1 1 1 1 1 1 1   1 1 1 1 1 1 1 1 1 1
                                        1 1 1 1 1 1 1 1 1 1   1 1 1 1 1 1 1 1 1 1   1 1 1 1 1 1 1 2 1 2   1 2 1 2 1 2 1 2 1 2
                                        1 2 1 2 1 2 1 2 1 2   1 2 1 2 1 2 1 2 1 2   1 2 1 2 1 2 1 2 1 2   1 2 1 2 1 2 1 2 1 2
                                        1 2 1 2 1 2 1 2 1 2   1 2 1 2 1 2 1 2 1 2   1 2 1 2 1 3 2 1 3 2   1 3 2 1 1 1 1 1 1 1
                                        1 1 1 1 1 1 1 1 1 1   1 1 1 1 1 2 1 2 1 2   1 2 1 2 1 2
 EXTRA SYMMETRY OF AOS IN SYMMETRY 2:   1 1 1 1 1 1 1 1 1 1   1 1 1 1 1 1 1 1 1 1   1 1 1 1 1 1 1 1 1 1   1 1 1 1 1 1 1 1 1 1
                                        1 1 1 1 1 1 1 1 1 1   1 1 1 1 2 1 2 1 2 1   2 1 2 1 2 1 2 1 2 1   2 1 2 1 2 1 2 1 2 1
                                        2 1 2 1 2 1 2 1 2 1   2 1 2 1 1 1 1 1 1 1   1 1 1 1 1 1 2 1 2
 EXTRA SYMMETRY OF AOS IN SYMMETRY 3:   1 1 1 1 1 1 1 1 1 1   1 1 1 1 1 1 1 1 1 1   1 1 1 1 1 1 1 1 1 1   1 1 1 1 1 1 1 1 1 1
                                        1 1 1 1 1 1 1 1 1 1   1 1 1 1 2 1 2 1 2 1   2 1 2 1 2 1 2 1 2 1   2 1 2 1 2 1 2 1 2 1
                                        2 1 2 1 2 1 2 1 2 1   2 1 2 1 1 1 1 1 1 1   1 1 1 1 1 1 2 1 2
 EXTRA SYMMETRY OF AOS IN SYMMETRY 4:   1 1 1 1 1 1 1 1 1 1   1 1 1 1 1 1 1 1 1 1   1 1 1 1 1 1 1 1 1 1   1 1 1 1 1 1 1 1 1 1
                                        2 1 2 1 2 1 1 1 1 1   1

 Eigenvalues of metric

         1 0.666E-07 0.913E-06 0.334E-05 0.942E-05 0.155E-04 0.157E-04 0.247E-04 0.409E-04
         2 0.898E-07 0.370E-05 0.152E-04 0.517E-04 0.539E-04 0.125E-03 0.139E-03 0.432E-03
         3 0.898E-07 0.370E-05 0.152E-04 0.517E-04 0.539E-04 0.125E-03 0.139E-03 0.432E-03
         4 0.155E-04 0.538E-04 0.146E-03 0.607E-03 0.970E-03 0.207E-02 0.546E-02 0.578E-02


 Contracted 2-electron integrals neglected if value below      1.0D-15

 Warning: maximum contribution to expansion of local PP integrals   0.5D+07
 AO integral compression algorithm  1   Integral accuracy      1.0D-15

     4915.986 MB (compressed) written to integral file ( 38.4%)

     Node minimum: 313.262 MB, node maximum: 913.834 MB


 NUMBER OF SORTED TWO-ELECTRON INTEGRALS:  125132898.     BUFFER LENGTH:  32768
 NUMBER OF SEGMENTS:   4  SEGMENT LENGTH:   31982049      RECORD LENGTH: 524288

 Memory used in sort:      32.54 MW

 SORT1 READ  1600176772. AND WROTE    49745475. INTEGRALS IN    144 RECORDS. CPU TIME:    23.25 SEC, REAL TIME:    31.94 SEC
 SORT2 READ   545769642. AND WROTE  1376419418. INTEGRALS IN  15257 RECORDS. CPU TIME:     2.07 SEC, REAL TIME:     3.15 SEC

 Node minimum:   125060912.  Node maximum:   125200036. integrals

 OPERATOR DM      FOR CENTER  0  COORDINATES:    0.000000    0.000000    0.000000


 **********************************************************************************************************************************
 DATASETS  * FILE   NREC   LENGTH (MB)   RECORD NAMES
              1      19       22.49       500      610      700      900      950      970     1000      129      960     1100   
                                          VAR    BASINP    GEOM    SYMINP    ZMAT    AOBASIS   BASIS     P2S    ABASIS      S 
                                         1400     1410     1420     1200     1210     1080     1600     1650     1700   
                                           T        V       ECP      H0       H01     AOSYM     SMH    MOLCAS    OPER   

 PROGRAMS   *        TOTAL       INT
 CPU TIMES  *       207.59    207.30
 REAL TIME  *       219.51 SEC
 DISK USED  *        11.41 GB      
 GA USED    *         0.00 MB       (max)       0.00 MB       (current)
 **********************************************************************************************************************************


 PROGRAM * RHF-SCF (OPEN SHELL)       Authors: W. Meyer, H.-J. Werner


 NUMBER OF ELECTRONS:      12+   11-    SPACE SYMMETRY=4    SPIN SYMMETRY: Doublet 
 CONVERGENCE THRESHOLDS:    1.00E-05 (Density)    1.00E-07 (Energy)
 MAX. NUMBER OF ITERATIONS:       60
 INTERPOLATION TYPE:            DIIS
 INTERPOLATION STEPS:              2 (START)      1 (STEP)
 LEVEL SHIFTS:                 -1.00 (CLOSED) -0.50 (OPEN) 

 Number of closed-shell orbitals:   11 (   6   2   3   0 )
 Number of open-shell orbitals:      1 (   0   0   0   1 )


 Orbital guess generated from atomic densities. Full valence occupancy:    7   3   3   1

 Molecular orbital dump at record        2100.2

 ITERATION    DDIFF          GRAD             ENERGY        2-EL.EN.            DIPOLE MOMENTS         DIIS   ORB.
    1      0.000D+00      0.000D+00      -119.34603786    245.822759    0.00000    0.00000   -1.64846    0    start
    2      0.000D+00      0.461D-02      -119.36991774    244.898773    0.00000    0.00000   -1.18221    1    diag,B
    3      0.332D-02      0.155D-02      -119.37477774    244.826120    0.00000    0.00000   -1.15217    2    diag,B
    4      0.263D-02      0.825D-03      -119.37736116    244.703918    0.00000    0.00000   -1.07151    3    diag,B
    5      0.322D-02      0.509D-03      -119.37908147    244.549929    0.00000    0.00000   -1.01779    4    diag,B
    6      0.324D-02      0.311D-03      -119.38001528    244.406622    0.00000    0.00000   -0.96379    5    diag,B
    7      0.197D-02      0.176D-03      -119.38036073    244.301353    0.00000    0.00000   -0.92269    6    diag,B
    8      0.947D-03      0.953D-04      -119.38045910    244.254417    0.00000    0.00000   -0.89778    7    diag,B
    9      0.722D-03      0.534D-04      -119.38049137    244.229248    0.00000    0.00000   -0.88348    8    diag,B
   10      0.318D-03      0.286D-04      -119.38050035    244.218456    0.00000    0.00000   -0.87734    9    orth
   11      0.257D-03      0.177D-04      -119.38050416    244.212288    0.00000    0.00000   -0.87447   10    diag,B
   12      0.171D-03      0.107D-04      -119.38050571    244.209186    0.00000    0.00000   -0.87281   11    diag,B
   13      0.822D-04      0.591D-05      -119.38050618    244.207915    0.00000    0.00000   -0.87179   12    diag,B
   14      0.645D-04      0.313D-05      -119.38050629    244.207536    0.00000    0.00000   -0.87122   13    diag,B
   15      0.358D-04      0.180D-05      -119.38050632    244.207307    0.00000    0.00000   -0.87083   14    diag,B
   16      0.139D-04      0.106D-05      -119.38050633    244.207188    0.00000    0.00000   -0.87064   15    diag,B
   17      0.734D-05      0.764D-06      -119.38050634    244.207165    0.00000    0.00000   -0.87060    0    orth

 Final alpha occupancy:   6   2   3   1
 Final beta  occupancy:   6   2   3   0

 !RHF STATE 1.4 Energy               -119.380506335027
 Nuclear energy                        35.98405034
 One-electron energy                 -277.46813922
 Two-electron energy                  122.10358254
 Virial quotient                       -2.52041203
 !RHF STATE 1.4 Dipole moment           0.00000000     0.00000000    -0.87060487
 Dipole moment /Debye                   0.00000000     0.00000000    -2.21271194

 ELECTRON ORBITALS
 =================


   Orb  Occ    Energy  Couls-En    Coefficients

                                   1 1s      1 1s      1 1s      1 1s      1 1s      1 1s      1 1s      1 1s      1 1s      1 1s   
                                   1 1s      1 1s      1 1s      1 1s      1 1s      1 1s      1 1s      1 1s      1 1s      1 1s   
                                   1 1s      1 1s      1 1s      1 1s      1 1s      1 1s      1 1s      1 1s      1 1s      1 1s   
                                   1 1s      1 1s      1 1s      1 1s      1 1s      1 2pz     1 2pz     1 2pz     1 2pz     1 2pz  
                                   1 2pz     1 2pz     1 2pz     1 2pz     1 2pz     1 2pz     1 2pz     1 2pz     1 2pz     1 2pz  
                                   1 2pz     1 2pz     1 2pz     1 2pz     1 2pz     1 2pz     1 2pz     1 2pz     1 2pz     1 2pz  
                                   1 2pz     1 2pz     1 2pz     1 2pz     1 2pz     1 2pz     1 3d0     1 3d2+    1 3d0     1 3d2+ 
                                   1 3d0     1 3d2+    1 3d0     1 3d2+    1 3d0     1 3d2+    1 3d0     1 3d2+    1 3d0     1 3d2+ 
                                   1 3d0     1 3d2+    1 3d0     1 3d2+    1 3d0     1 3d2+    1 3d0     1 3d2+    1 3d0     1 3d2+ 
                                   1 3d0     1 3d2+    1 3d0     1 3d2+    1 3d0     1 3d2+    1 3d0     1 3d2+    1 3d0     1 3d2+ 
                                   1 3d0     1 3d2+    1 3d0     1 3d2+    1 3d0     1 3d2+    1 3d0     1 3d2+    1 3d0     1 3d2+ 
                                   1 4f0     1 4f2+    1 4f0     1 4f2+    1 4f0     1 4f2+    1 4f0     1 4f2+    1 4f0     1 4f2+ 
                                   1 4f0     1 4f2+    1 4f0     1 4f2+    1 4f0     1 4f2+    1 4f0     1 4f2+    1 4f0     1 4f2+ 
                                   1 4f0     1 4f2+    1 4f0     1 4f2+    1 4f0     1 4f2+    1 4f0     1 4f2+    1 4f0     1 4f2+ 
                                   1 4f0     1 4f2+    1 4f0     1 4f2+    1 5g0     1 5g4+    1 5g2+    1 5g0     1 5g4+    1 5g2+ 
                                   1 5g0     1 5g4+    1 5g2+    2 1s      2 1s      2 1s      2 1s      2 1s      2 1s      2 1s   
                                   2 1s      2 1s      2 1s      2 1s      2 1s      2 1s      2 2pz     2 2pz     2 2pz     2 2pz  
                                   2 2pz     2 2pz     2 2pz     2 2pz     2 3d0     2 3d2+    2 3d0     2 3d2+    2 3d0     2 3d2+ 
                                   2 3d0     2 3d2+    2 4f0     2 4f2+    2 4f0     2 4f2+ 

   1.1   2    -4.2982  -21.0796 -0.000000  0.000000 -0.000000  0.000000 -0.000000  0.000000 -0.000000  0.000000 -0.000000  0.000000
                                -0.000001  0.000003 -0.000008  0.000019 -0.000049  0.000122 -0.000302  0.000742 -0.001802  0.004322
                                -0.010282  0.024435 -0.053500  0.041343  0.332441 -0.996659  0.439220 -0.493792  0.991700 -0.086193
                                 0.572504  0.016742 -0.017330 -0.002639  0.000339  0.000000 -0.000000  0.000000 -0.000000  0.000000
                                -0.000000  0.000000 -0.000000  0.000000 -0.000000  0.000000 -0.000000  0.000000 -0.000000  0.000001
                                -0.000002  0.000006 -0.000013 -0.000021  0.000473 -0.001522  0.003035 -0.006012  0.010597 -0.266396
                                 0.270035 -0.010192 -0.008351 -0.006627 -0.000551  0.000206  0.000000 -0.000000 -0.000000  0.000000
                                 0.000000 -0.000000 -0.000000  0.000000  0.000000 -0.000000 -0.000001  0.000000  0.000004 -0.000000
                                -0.000009  0.000001  0.000020 -0.000002 -0.000041  0.000007  0.000074 -0.000028 -0.000054  0.000192
                                 0.000558 -0.000628 -0.004578 -0.000666  0.004708  0.000798 -0.000351  0.003196  0.007254  0.000252
                                 0.000348  0.001507 -0.004921 -0.000216 -0.003598 -0.000115 -0.001331  0.000001  0.000150 -0.000002
                                 0.000000 -0.000000 -0.000000  0.000000  0.000000 -0.000000 -0.000001  0.000000  0.000004 -0.000001
                                -0.000012 -0.000003  0.000021 -0.000010 -0.000114 -0.000048  0.000404  0.000145 -0.000257 -0.000197
                                -0.002048 -0.000533  0.002934 -0.000693 -0.001896  0.000249 -0.001359  0.000053 -0.000949  0.000092
                                 0.000073 -0.000038 -0.000017  0.000015  0.000060  0.000048 -0.000112  0.000567  0.000766 -0.000708
                                -0.001036  0.000371 -0.000439 -0.000000  0.000000 -0.000001  0.000007 -0.000071 -0.000959 -0.003060
                                 0.011532  0.001721  0.015546 -0.000089  0.000959  0.012910 -0.000132 -0.001409 -0.004200 -0.010747
                                -0.007552 -0.000120  0.000034 -0.002452  0.001433  0.000054  0.003951  0.000478  0.000053  0.000002
                                 0.000766  0.000155 -0.000990 -0.000133 -0.000286 -0.000273

   2.1   2    -2.5705  -17.3432  0.000000 -0.000000  0.000000 -0.000000  0.000000 -0.000000  0.000000 -0.000000  0.000000 -0.000000
                                 0.000000 -0.000000  0.000000 -0.000000  0.000000 -0.000000  0.000001 -0.000002  0.000006 -0.000015
                                 0.000047 -0.000149  0.000360  0.000868 -0.011980  0.040360 -0.089172  0.103292 -0.087444  0.090008
                                -0.062044 -0.040623 -0.032739 -0.013541  0.001968  0.000000 -0.000000  0.000000 -0.000000  0.000000
                                -0.000000  0.000000 -0.000000  0.000001 -0.000002  0.000007 -0.000019  0.000052 -0.000132  0.000320
                                -0.000753  0.001739 -0.003665 -0.000134  0.069052 -0.205859 -0.112408 -0.023702  0.392522 -0.814725
                                 1.362901  0.216859 -0.006170 -0.019458 -0.002154  0.000562  0.000000  0.000000 -0.000000 -0.000000
                                 0.000000  0.000000 -0.000000 -0.000000  0.000002  0.000000 -0.000005 -0.000000  0.000016  0.000000
                                -0.000040 -0.000000  0.000091  0.000001 -0.000194 -0.000003  0.000414  0.000013 -0.000990 -0.000107
                                 0.004978  0.000446 -0.017002  0.000091  0.017412 -0.000243 -0.014342 -0.001629  0.028766 -0.000998
                                -0.014468 -0.001212 -0.010637  0.001267 -0.009452  0.001015 -0.003482  0.000058 -0.000100  0.000012
                                 0.000000  0.000000 -0.000000 -0.000000  0.000002  0.000000 -0.000006 -0.000001  0.000018  0.000001
                                -0.000021 -0.000011  0.000168 -0.000005 -0.000130 -0.000080  0.000761 -0.000016  0.000379 -0.000204
                                -0.003888  0.000360  0.014207 -0.001780 -0.006916 -0.000267 -0.002319 -0.001801 -0.003367 -0.000383
                                 0.000842  0.000044 -0.000598 -0.000017  0.000739 -0.000009  0.000090  0.001424 -0.000020  0.000128
                                -0.001813  0.000010  0.000734 -0.000000  0.000001 -0.000007  0.000049 -0.000508 -0.007473 -0.023957
                                 0.076933  0.018651  0.071676  0.000484  0.007178  0.039727 -0.000810 -0.008609 -0.026999 -0.054052
                                -0.037959 -0.000665  0.000209 -0.005972  0.005486  0.000125  0.016835  0.000963  0.000215 -0.000009
                                 0.006235  0.000445 -0.003242 -0.000397 -0.002545 -0.000509

   3.1   2    -1.3384  -12.6177  0.000000 -0.000000  0.000000 -0.000000  0.000000 -0.000000  0.000000 -0.000000  0.000000 -0.000000
                                 0.000000 -0.000000  0.000001 -0.000003  0.000006 -0.000016  0.000040 -0.000098  0.000238 -0.000573
                                 0.001368 -0.003277  0.007295 -0.006123 -0.045015  0.145319 -0.079728  0.088132 -0.173539 -0.059494
                                -0.006242 -0.015774 -0.092593 -0.025660  0.004147 -0.000000  0.000000 -0.000000  0.000000 -0.000000
                                 0.000000 -0.000000  0.000000 -0.000000  0.000000 -0.000001  0.000004 -0.000011  0.000027 -0.000066
                                 0.000158 -0.000377  0.000807  0.000581 -0.021953  0.067151 -0.000599  0.045760 -0.137078 -0.179307
                                 0.021865 -0.078185 -0.063527 -0.044785 -0.002617  0.001162  0.000000 -0.000000 -0.000000  0.000000
                                 0.000000 -0.000000 -0.000000  0.000000  0.000000 -0.000000 -0.000001  0.000000  0.000004 -0.000000
                                -0.000009  0.000001  0.000015 -0.000002  0.000007  0.000003 -0.000321 -0.000002  0.003422 -0.000029
                                -0.009485  0.000035 -0.024179  0.000645  0.022960 -0.000624  0.042906 -0.000552  0.027053 -0.001934
                                 0.080420  0.001072  0.050083 -0.000151 -0.018629 -0.000083 -0.006844 -0.000292  0.001121  0.000009
                                 0.000000 -0.000000 -0.000000  0.000000  0.000000 -0.000000 -0.000001  0.000001  0.000007 -0.000001
                                 0.000061  0.000011  0.000194  0.000004  0.000460  0.000084 -0.000367 -0.000150  0.003661  0.000393
                                -0.007075 -0.000368  0.023377  0.001439 -0.005722  0.001604  0.007587  0.001937 -0.006061  0.001221
                                 0.000472 -0.000413  0.000416  0.000122  0.001839  0.000039  0.000013  0.004119 -0.000089  0.001341
                                -0.000176 -0.000137  0.000446 -0.000001  0.000006 -0.000047  0.000313 -0.003257 -0.048660 -0.159585
                                 0.550663  0.148739  0.432587 -0.003309  0.047074  0.106251 -0.001130 -0.010979 -0.031757 -0.076605
                                -0.090239 -0.000472  0.000306 -0.020871  0.003946 -0.000509  0.022231  0.000097  0.000150 -0.000131
                                 0.016622 -0.001501 -0.002780 -0.000461 -0.004063 -0.001086

   4.1   2    -0.6664  -11.1554 -0.000000  0.000000 -0.000000  0.000000 -0.000000  0.000000 -0.000000  0.000000 -0.000000  0.000000
                                -0.000000  0.000000 -0.000000  0.000001 -0.000002  0.000005 -0.000013  0.000032 -0.000080  0.000197
                                -0.000490  0.001252 -0.002878  0.000229  0.037138 -0.127212  0.213136 -0.246261  0.253482 -0.180475
                                 0.145640  0.020558  0.100706  0.053471 -0.008890 -0.000000  0.000000 -0.000000  0.000000 -0.000000
                                 0.000000 -0.000000  0.000000 -0.000000  0.000000 -0.000000  0.000001 -0.000001  0.000003 -0.000007
                                 0.000012 -0.000011  0.000018 -0.001116  0.012391 -0.037888  0.038111 -0.062313  0.068045  1.074289
                                -1.023162  0.086162  0.034816  0.058705  0.009992 -0.003387 -0.000000 -0.000000  0.000000  0.000000
                                -0.000000 -0.000000  0.000001  0.000000 -0.000002 -0.000000  0.000008  0.000001 -0.000023 -0.000003
                                 0.000057  0.000007 -0.000118 -0.000018  0.000164  0.000051  0.000350 -0.000206 -0.007050  0.001350
                                 0.018264 -0.004396  0.071718 -0.003409 -0.071578  0.003083 -0.090054  0.018639 -0.104278  0.001557
                                -0.151968  0.028271 -0.166103  0.024250 -0.042434  0.009482  0.013564  0.000535 -0.000713 -0.000014
                                -0.000000  0.000000  0.000001 -0.000000 -0.000004  0.000000  0.000013 -0.000001 -0.000045  0.000002
                                 0.000020 -0.000008 -0.000483  0.000003  0.000096 -0.000065 -0.001961  0.000202 -0.002974 -0.000536
                                 0.015790  0.000862 -0.045009 -0.001722  0.024357  0.000044 -0.016885 -0.001595  0.001470 -0.000775
                                 0.000568 -0.000067  0.001743 -0.000068 -0.002171  0.000195 -0.000367 -0.007114  0.000372 -0.001226
                                 0.001101  0.000669 -0.000564 -0.000000  0.000002 -0.000013  0.000083 -0.000866 -0.013657 -0.043563
                                 0.139397  0.047033  0.139497  0.001976  0.012713 -0.089509  0.007057  0.074369  0.240903  0.393414
                                 0.257122  0.004580 -0.001845  0.029187 -0.012158 -0.000425 -0.039899 -0.001078 -0.000485 -0.000050
                                -0.018324 -0.001004  0.005916  0.001392  0.007362  0.000643

   5.1   2    -0.4865  -11.4746  0.000000 -0.000000  0.000000 -0.000000  0.000000 -0.000000  0.000000 -0.000000  0.000000 -0.000000
                                 0.000000 -0.000000  0.000000 -0.000001  0.000002 -0.000006  0.000015 -0.000036  0.000087 -0.000210
                                 0.000502 -0.001206  0.002700 -0.002272 -0.017021  0.056152 -0.033792  0.037038 -0.076062  0.008740
                                -0.048133  0.057796  0.031540 -0.002507  0.000866  0.000000 -0.000000  0.000000 -0.000000  0.000000
                                -0.000000  0.000000 -0.000000  0.000000 -0.000000  0.000000 -0.000000  0.000000 -0.000001  0.000002
                                -0.000003  0.000004 -0.000007  0.000261 -0.002846  0.008857 -0.014068  0.022896 -0.026107  0.185849
                                -0.203838 -0.003044  0.017750  0.001170 -0.000952  0.000394  0.000000 -0.000000 -0.000000  0.000000
                                 0.000000 -0.000000 -0.000000  0.000001  0.000001 -0.000003 -0.000002  0.000012  0.000006 -0.000035
                                -0.000016  0.000093  0.000037 -0.000235 -0.000087  0.000674  0.000248 -0.002754 -0.001127  0.018180
                                 0.004181 -0.059502 -0.002991 -0.045533  0.003537  0.042049 -0.016684  0.248228  0.013205  0.013484
                                -0.030847  0.390485 -0.010170  0.347290 -0.007804  0.169749 -0.003836  0.026808  0.000260 -0.000825
                                 0.000000  0.000000 -0.000000 -0.000000  0.000000  0.000000 -0.000001 -0.000001  0.000004  0.000002
                                 0.000007 -0.000005  0.000064  0.000018  0.000039 -0.000047  0.000341  0.000408  0.000059 -0.000989
                                -0.000720  0.002275  0.004550 -0.003313 -0.001661  0.003635  0.006617 -0.004779  0.000763 -0.003046
                                -0.000937 -0.000353  0.000023 -0.000075  0.000700  0.001718  0.000305  0.001115  0.002920  0.002814
                                 0.001934  0.004092  0.003050  0.000000 -0.000000  0.000001 -0.000004  0.000046  0.000697  0.002490
                                -0.011198 -0.002952 -0.017542  0.000093 -0.000684  0.002112 -0.000951 -0.009999 -0.032393 -0.051211
                                -0.036552 -0.000594  0.000249 -0.004437  0.000447  0.002425  0.001759  0.008236  0.000014  0.000122
                                 0.000758  0.003593 -0.000194 -0.002092 -0.000328 -0.002163

   6.1   2    -0.3363   -8.7302  0.000000 -0.000000  0.000000 -0.000000  0.000000 -0.000000  0.000000 -0.000000  0.000000 -0.000000
                                 0.000000 -0.000001  0.000003 -0.000006  0.000016 -0.000041  0.000101 -0.000249  0.000604 -0.001453
                                 0.003471 -0.008319  0.018611 -0.016464 -0.110751  0.364753 -0.181258  0.197418 -0.461086  0.025153
                                -0.374787  0.310903  0.591726  0.189107 -0.001706  0.000000 -0.000000  0.000000 -0.000000  0.000000
                                -0.000000  0.000000 -0.000000  0.000000 -0.000000  0.000000 -0.000001  0.000002 -0.000004  0.000009
                                -0.000020  0.000042 -0.000091  0.000323 -0.001857  0.005731 -0.022505  0.032524 -0.027334  0.451627
                                -0.459628  0.012839 -0.024671 -0.042662 -0.007118  0.000627  0.000000  0.000000 -0.000000 -0.000000
                                 0.000000  0.000000 -0.000000 -0.000000  0.000001  0.000000 -0.000004 -0.000001  0.000012  0.000004
                                -0.000031 -0.000011  0.000080  0.000028 -0.000239 -0.000080  0.001027  0.000324 -0.006997 -0.002131
                                 0.022918  0.007043  0.018482  0.005122 -0.016836 -0.004881 -0.097070 -0.029750 -0.002796 -0.001575
                                -0.159698 -0.043928 -0.132249 -0.035360 -0.080978 -0.016405 -0.022039 -0.004498  0.001343 -0.000068
                                 0.000000 -0.000000 -0.000000  0.000000  0.000001 -0.000000 -0.000002  0.000001  0.000008 -0.000001
                                 0.000007  0.000014  0.000113  0.000010  0.000041  0.000120  0.000889 -0.000351 -0.001844  0.000797
                                 0.003960 -0.000611  0.000626  0.002960  0.003576  0.000497  0.009449  0.002551  0.006167  0.002253
                                -0.001396 -0.000078  0.002010  0.000246 -0.000165  0.000374 -0.000892 -0.001321 -0.000028 -0.001143
                                -0.001000 -0.000217 -0.001360  0.000000 -0.000001  0.000005 -0.000033  0.000337  0.005850  0.015981
                                -0.045468 -0.014761 -0.069869 -0.003924 -0.004953 -0.043964 -0.002109 -0.021793 -0.069604 -0.111325
                                -0.099172 -0.001135  0.000558 -0.026215 -0.002646 -0.000274 -0.006669 -0.000099 -0.000129  0.000002
                                 0.000254  0.000348  0.001566 -0.000162  0.000809 -0.001002

   7.1   0     0.0125   -3.6801  0.000000 -0.000000  0.000000 -0.000000  0.000000 -0.000000  0.000000 -0.000000  0.000000 -0.000000
                                 0.000000 -0.000000  0.000001 -0.000001  0.000003 -0.000008  0.000020 -0.000049  0.000120 -0.000285
                                 0.000669 -0.001558  0.003436 -0.004361 -0.008952  0.026461  0.076348 -0.095360  0.050956 -0.274136
                                 0.194550 -0.131220  0.569723  1.326829 -1.317005  0.000000 -0.000000  0.000000 -0.000000  0.000000
                                -0.000000  0.000000 -0.000000  0.000000 -0.000000  0.000001 -0.000004  0.000011 -0.000028  0.000066
                                -0.000146  0.000306 -0.000653  0.002468 -0.015261  0.047147 -0.159983  0.231856 -0.199294  3.009258
                                -3.092757  0.075389 -0.113558  0.824757 -0.137448  0.611625 -0.000000  0.000000  0.000000 -0.000000
                                -0.000000  0.000000  0.000001 -0.000000 -0.000004  0.000000  0.000012 -0.000001 -0.000035  0.000002
                                 0.000087 -0.000005 -0.000194  0.000013  0.000383 -0.000032 -0.000568  0.000107 -0.000900 -0.000589
                                -0.000261  0.002009  0.047171  0.000379 -0.048034 -0.000276 -0.010863 -0.008066 -0.122772  0.001882
                                 0.033796 -0.012563 -0.122795 -0.008714 -0.022561 -0.007444  0.090873 -0.002948 -0.238985 -0.016035
                                 0.000000  0.000000 -0.000000 -0.000000  0.000002  0.000000 -0.000007 -0.000001  0.000023  0.000002
                                -0.000038 -0.000008  0.000199  0.000009 -0.000326 -0.000050  0.003088  0.000341 -0.007790 -0.000988
                                 0.014389  0.001124 -0.015474 -0.001523  0.022415  0.001230 -0.012427 -0.000929  0.034237  0.004213
                                 0.026378 -0.000906 -0.046941  0.007555  0.000214 -0.000187 -0.000285  0.000714 -0.000759  0.000080
                                -0.000140 -0.000819 -0.001213  0.000000 -0.000000  0.000002 -0.000011  0.000097  0.002626  0.003247
                                 0.023920 -0.000452 -0.018512 -0.007190 -0.001414 -1.023174 -0.001542 -0.015818 -0.050321 -0.084377
                                -0.119198 -0.000765  0.000410  0.375596 -0.002153 -0.000121 -0.007791  0.000645 -0.000104 -0.000001
                                 0.018589 -0.000588  0.001180 -0.000194  0.001961 -0.000844

   8.1   0     0.0312   -2.3441 -0.000000  0.000000 -0.000000  0.000000 -0.000000  0.000000 -0.000000  0.000000 -0.000000  0.000000
                                -0.000000  0.000000 -0.000000  0.000001 -0.000002  0.000005 -0.000013  0.000032 -0.000078  0.000186
                                -0.000433  0.000999 -0.002188  0.003025  0.003463 -0.009090 -0.065773  0.079607 -0.044092  0.124192
                                -0.031376 -0.025622 -1.378925 -3.114134  1.765178 -0.000000  0.000000 -0.000000  0.000000 -0.000000
                                 0.000000 -0.000000  0.000000 -0.000000  0.000001 -0.000002  0.000007 -0.000018  0.000046 -0.000110
                                 0.000251 -0.000547  0.001174 -0.002697  0.007655 -0.023102  0.183172 -0.244078  0.158916 -3.356687
                                 3.371996 -0.114043 -0.152024 -1.353549 -1.075683  1.322765 -0.000000 -0.000000  0.000000  0.000000
                                -0.000000 -0.000000  0.000000  0.000000 -0.000001 -0.000000  0.000005  0.000001 -0.000014 -0.000002
                                 0.000036  0.000006 -0.000085 -0.000013  0.000197  0.000030 -0.000536 -0.000074  0.002285  0.000256
                                -0.008314 -0.000995  0.006029  0.001533 -0.006468 -0.001602  0.029307  0.003442 -0.022612 -0.004881
                                 0.061938  0.006859 -0.024869  0.000215 -0.130386  0.003585 -0.510033 -0.002757 -0.000378  0.019993
                                 0.000000  0.000000 -0.000002 -0.000000  0.000008  0.000000 -0.000029 -0.000001  0.000085  0.000002
                                -0.000232 -0.000005  0.000561  0.000015 -0.001793 -0.000042  0.011188  0.000251 -0.029289 -0.000607
                                 0.047663  0.001036 -0.051124 -0.001126  0.040146  0.000897 -0.055705 -0.000496 -0.024952  0.000466
                                -0.134914 -0.002350  0.023386  0.004642  0.000248  0.000052  0.000108 -0.001119  0.000323  0.000146
                                -0.008524  0.000299  0.000217  0.000000 -0.000000  0.000000 -0.000002  0.000038 -0.000029  0.003098
                                -0.050074 -0.004282  0.330088  0.004039 -0.000584  3.358650 -0.000020  0.000737  0.006077 -0.006259
                                -0.273668  0.000423  0.000019 -0.635344 -0.000605  0.000031  0.020773 -0.000194  0.000086  0.000005
                                 0.030515  0.000511 -0.001160 -0.000014 -0.002608  0.000172

                                   1 2px     1 2px     1 2px     1 2px     1 2px     1 2px     1 2px     1 2px     1 2px     1 2px  
                                   1 2px     1 2px     1 2px     1 2px     1 2px     1 2px     1 2px     1 2px     1 2px     1 2px  
                                   1 2px     1 2px     1 2px     1 2px     1 2px     1 2px     1 2px     1 2px     1 2px     1 2px  
                                   1 2px     1 3d1+    1 3d1+    1 3d1+    1 3d1+    1 3d1+    1 3d1+    1 3d1+    1 3d1+    1 3d1+ 
                                   1 3d1+    1 3d1+    1 3d1+    1 3d1+    1 3d1+    1 3d1+    1 3d1+    1 3d1+    1 3d1+    1 3d1+ 
                                   1 3d1+    1 3d1+    1 3d1+    1 4f1+    1 4f3+    1 4f1+    1 4f3+    1 4f1+    1 4f3+    1 4f1+ 
                                   1 4f3+    1 4f1+    1 4f3+    1 4f1+    1 4f3+    1 4f1+    1 4f3+    1 4f1+    1 4f3+    1 4f1+ 
                                   1 4f3+    1 4f1+    1 4f3+    1 4f1+    1 4f3+    1 4f1+    1 4f3+    1 4f1+    1 4f3+    1 4f1+ 
                                   1 4f3+    1 4f1+    1 4f3+    1 4f1+    1 4f3+    1 4f1+    1 4f3+    1 5g1+    1 5g3+    1 5g1+ 
                                   1 5g3+    1 5g1+    1 5g3+    2 2px     2 2px     2 2px     2 2px     2 2px     2 2px     2 2px  
                                   2 2px     2 3d1+    2 3d1+    2 3d1+    2 3d1+    2 4f1+    2 4f3+    2 4f1+    2 4f3+ 

   1.2   2    -2.5079  -17.0831  0.000000 -0.000000  0.000000 -0.000000  0.000000 -0.000000  0.000000 -0.000000  0.000001 -0.000002
                                 0.000007 -0.000019  0.000052 -0.000132  0.000320 -0.000755  0.001745 -0.003680 -0.000355  0.071851
                                -0.214155 -0.111008 -0.027751  0.398057 -0.129238  0.680781  0.258860  0.027269 -0.002352  0.000597
                                -0.000235  0.000000 -0.000000  0.000000 -0.000000  0.000000 -0.000001  0.000002 -0.000005  0.000012
                                -0.000026  0.000059 -0.000175  0.000697 -0.001476  0.001439 -0.000812 -0.003043  0.002121 -0.003677
                                -0.001969 -0.000836 -0.000013 -0.000000 -0.000000  0.000000  0.000000 -0.000001 -0.000000  0.000002
                                 0.000000 -0.000006  0.000001  0.000009  0.000039 -0.000056  0.000098  0.000112  0.000158 -0.001072
                                -0.000099  0.002287  0.002200 -0.004484  0.001503  0.003867  0.004428 -0.001273  0.002501 -0.003035
                                 0.002586 -0.001294  0.000522 -0.000142 -0.000127 -0.000083  0.000051  0.000083  0.000032  0.000991
                                -0.000505 -0.000756  0.000153  0.000222  0.002225  0.006733  0.012681  0.007555  0.000112 -0.000059
                                 0.001009 -0.001570 -0.005461 -0.000070 -0.002169  0.001324  0.000084  0.001223  0.000113

   2.2   2    -0.6146  -11.1559 -0.000000  0.000000 -0.000000  0.000000 -0.000000  0.000000 -0.000000  0.000000 -0.000000  0.000000
                                -0.000000  0.000001 -0.000003  0.000008 -0.000020  0.000050 -0.000121  0.000262  0.000291 -0.008454
                                 0.026290 -0.007517  0.026552 -0.060931  0.282879 -0.357065 -0.000254 -0.006867  0.003375  0.002878
                                -0.001496 -0.000000  0.000000 -0.000000  0.000000 -0.000001  0.000002 -0.000006  0.000017 -0.000053
                                 0.000206 -0.001146  0.008899 -0.027726 -0.035613  0.032256  0.123819  0.007055  0.218720  0.185602
                                 0.038472  0.008245 -0.000696 -0.000000 -0.000000  0.000001  0.000000 -0.000006 -0.000000  0.000020
                                 0.000000 -0.000054 -0.000001  0.000241 -0.000002 -0.000172 -0.000013  0.001807  0.000001 -0.008076
                                -0.000129  0.023225  0.000066 -0.033553 -0.000571  0.046867  0.000140 -0.006517 -0.000493  0.020323
                                 0.000993 -0.013291  0.000948  0.002611 -0.000009 -0.000124  0.000041  0.001080  0.000565  0.009482
                                 0.001368  0.001367  0.001961  0.006345  0.065547  0.209135  0.346554  0.284863  0.003631 -0.001676
                                 0.016281 -0.011208 -0.044070 -0.000529 -0.042835  0.006265  0.001415  0.010043  0.001823

   3.2   0    -0.0024   -6.9659  0.000000 -0.000000  0.000000 -0.000000  0.000000 -0.000000  0.000000 -0.000000  0.000000 -0.000000
                                 0.000001 -0.000002  0.000006 -0.000014  0.000035 -0.000086  0.000207 -0.000448 -0.000420  0.013557
                                -0.042464  0.016516 -0.050605  0.107253 -0.664502  0.782744  0.025215 -0.092926 -0.210780 -0.118954
                                -0.336397 -0.000000  0.000000 -0.000000  0.000000 -0.000002  0.000006 -0.000019  0.000050 -0.000126
                                 0.000361 -0.001473  0.009679 -0.031520 -0.024265  0.021839  0.131455  0.006507  0.210420  0.196573
                                 0.148423  0.104669  0.071853  0.000000 -0.000000 -0.000000  0.000000  0.000000 -0.000000 -0.000000
                                 0.000000 -0.000001 -0.000001 -0.000033  0.000002 -0.000073 -0.000006 -0.000215  0.000014 -0.000081
                                -0.000082 -0.000524  0.000305 -0.000123 -0.000421 -0.004835  0.000342 -0.001194 -0.000534 -0.014676
                                -0.000263 -0.012768 -0.002781  0.000572 -0.000628 -0.005183 -0.004504 -0.000700  0.000236 -0.000921
                                -0.000362 -0.002242  0.001577 -0.002799 -0.028774 -0.091961 -0.152472 -0.167056 -0.001488  0.000742
                                -0.149483 -0.002502 -0.004874 -0.000120  0.003819  0.001323 -0.000485  0.000794 -0.000952

   4.2   0     0.0324   -3.2838  0.000000 -0.000000  0.000000 -0.000000  0.000000 -0.000000  0.000000 -0.000000  0.000000 -0.000001
                                 0.000004 -0.000010  0.000028 -0.000070  0.000167 -0.000383  0.000847 -0.001819  0.003366 -0.002628
                                 0.006995 -0.232417  0.292652 -0.144481  3.444583 -3.373023  0.121518 -0.130516  0.015381 -1.204167
                                 1.528070 -0.000000  0.000000 -0.000000  0.000001 -0.000004  0.000013 -0.000037  0.000095 -0.000224
                                 0.000534 -0.001573  0.007523 -0.026503  0.008508 -0.010786  0.102128 -0.061730  0.187080  0.091722
                                 0.131891 -0.141105 -0.148473  0.000000  0.000000 -0.000001 -0.000000  0.000004  0.000000 -0.000014
                                -0.000001  0.000040  0.000004 -0.000134 -0.000011  0.000211  0.000027 -0.001009 -0.000085  0.005252
                                 0.000524 -0.014304 -0.001322  0.022901  0.002187 -0.030045 -0.002470  0.021117  0.001936 -0.028043
                                -0.001714  0.020155  0.000931 -0.073482 -0.004812 -0.079568  0.007186 -0.000323  0.000125 -0.001434
                                -0.000090  0.000520  0.000770 -0.001791 -0.019566 -0.065873 -0.101926 -0.152189 -0.001432  0.000459
                                 0.423632 -0.001633  0.000373 -0.000057 -0.007368  0.000035 -0.000361  0.001593 -0.000558

                                   1 2py     1 2py     1 2py     1 2py     1 2py     1 2py     1 2py     1 2py     1 2py     1 2py  
                                   1 2py     1 2py     1 2py     1 2py     1 2py     1 2py     1 2py     1 2py     1 2py     1 2py  
                                   1 2py     1 2py     1 2py     1 2py     1 2py     1 2py     1 2py     1 2py     1 2py     1 2py  
                                   1 2py     1 3d1-    1 3d1-    1 3d1-    1 3d1-    1 3d1-    1 3d1-    1 3d1-    1 3d1-    1 3d1- 
                                   1 3d1-    1 3d1-    1 3d1-    1 3d1-    1 3d1-    1 3d1-    1 3d1-    1 3d1-    1 3d1-    1 3d1- 
                                   1 3d1-    1 3d1-    1 3d1-    1 4f1-    1 4f3-    1 4f1-    1 4f3-    1 4f1-    1 4f3-    1 4f1- 
                                   1 4f3-    1 4f1-    1 4f3-    1 4f1-    1 4f3-    1 4f1-    1 4f3-    1 4f1-    1 4f3-    1 4f1- 
                                   1 4f3-    1 4f1-    1 4f3-    1 4f1-    1 4f3-    1 4f1-    1 4f3-    1 4f1-    1 4f3-    1 4f1- 
                                   1 4f3-    1 4f1-    1 4f3-    1 4f1-    1 4f3-    1 4f1-    1 4f3-    1 5g1-    1 5g3-    1 5g1- 
                                   1 5g3-    1 5g1-    1 5g3-    2 2py     2 2py     2 2py     2 2py     2 2py     2 2py     2 2py  
                                   2 2py     2 3d1-    2 3d1-    2 3d1-    2 3d1-    2 4f1-    2 4f3-    2 4f1-    2 4f3- 

   1.3   2    -2.4966  -17.0766  0.000000 -0.000000  0.000000 -0.000000  0.000000 -0.000000  0.000000 -0.000000  0.000001 -0.000002
                                 0.000007 -0.000019  0.000052 -0.000132  0.000321 -0.000757  0.001750 -0.003693 -0.000321  0.071779
                                -0.214158 -0.112229 -0.025167  0.396627 -0.120109  0.669637  0.260877  0.030698 -0.001434  0.000579
                                -0.000214  0.000000 -0.000000  0.000000 -0.000000  0.000000 -0.000000  0.000001 -0.000002  0.000005
                                -0.000009  0.000003  0.000166 -0.000674 -0.001247  0.001533  0.004169 -0.002446  0.007518 -0.005170
                                -0.002458 -0.000760 -0.000030 -0.000000  0.000000  0.000000 -0.000000 -0.000001  0.000000  0.000002
                                -0.000001 -0.000005  0.000002  0.000047 -0.000006  0.000043  0.000017  0.000277 -0.000066 -0.001035
                                 0.000038  0.004120  0.000074 -0.002704  0.000880  0.008311 -0.001021  0.001258 -0.000382 -0.000228
                                -0.001655 -0.000195 -0.000483 -0.000303  0.000099 -0.000005 -0.000043  0.000032  0.000060 -0.000006
                                -0.000491 -0.001334  0.000164  0.000137  0.001425  0.004382  0.007882  0.003317  0.000096 -0.000036
                                 0.000727 -0.001350 -0.004083 -0.000060 -0.001159  0.001218  0.000054  0.000909  0.000064

   2.3   2    -0.6949  -11.3000 -0.000000  0.000000 -0.000000  0.000000 -0.000000  0.000000 -0.000000  0.000000 -0.000000  0.000000
                                -0.000000  0.000001 -0.000002  0.000005 -0.000012  0.000030 -0.000074  0.000159  0.000236 -0.005742
                                 0.017610 -0.005394  0.018045 -0.038689  0.135328 -0.181792 -0.005947 -0.042618 -0.017138  0.003081
                                -0.001617 -0.000000  0.000000 -0.000000  0.000000 -0.000001  0.000002 -0.000008  0.000022 -0.000064
                                 0.000234 -0.001253  0.009593 -0.030297 -0.036503  0.033722  0.134470  0.008836  0.229477  0.185890
                                 0.035287  0.005017 -0.000144 -0.000000 -0.000000  0.000001  0.000000 -0.000004 -0.000000  0.000016
                                 0.000000 -0.000042 -0.000000  0.000173 -0.000002 -0.000165 -0.000006  0.001319 -0.000003 -0.006246
                                -0.000037  0.017753 -0.000013 -0.026877 -0.000234  0.034585 -0.000120 -0.005495 -0.000223  0.005908
                                 0.000448 -0.018482  0.000477  0.001473 -0.000021 -0.000022  0.000020  0.001509  0.000378  0.009093
                                 0.001128  0.001287  0.001316  0.006750  0.070177  0.225187  0.360809  0.272401  0.003922 -0.001779
                                 0.015233 -0.009332 -0.033695 -0.000421 -0.031118  0.006263  0.001484  0.008370  0.001604

   3.3   2    -0.3585  -10.5508  0.000000 -0.000000  0.000000 -0.000000  0.000000 -0.000000  0.000000 -0.000000  0.000000 -0.000000
                                 0.000001 -0.000002  0.000005 -0.000012  0.000031 -0.000074  0.000177 -0.000385 -0.000287  0.010878
                                -0.034288  0.010160 -0.036151  0.085186 -0.488608  0.584596  0.012573 -0.072286 -0.097920 -0.005947
                                -0.000062 -0.000000  0.000000 -0.000000  0.000001 -0.000003  0.000011 -0.000033  0.000087 -0.000218
                                 0.000608 -0.002396  0.015432 -0.051146 -0.033823  0.031429  0.211848  0.002215  0.335267  0.290222
                                 0.184588  0.029957  0.004598  0.000000  0.000000 -0.000001 -0.000000  0.000003  0.000000 -0.000010
                                -0.000000  0.000026  0.000001 -0.000142 -0.000001  0.000029  0.000012 -0.001035 -0.000015  0.003664
                                -0.000006 -0.010754  0.000054  0.015072  0.000504 -0.027236 -0.000213  0.008317 -0.000025 -0.033075
                                -0.000813 -0.002422 -0.000841 -0.011843 -0.000096  0.003096 -0.000044  0.000098  0.000679  0.000252
                                 0.001124  0.001399  0.001787 -0.005565 -0.057187 -0.182584 -0.297540 -0.296483 -0.002832  0.001477
                                -0.060928 -0.002719  0.000200 -0.000129  0.015940  0.000458 -0.001038 -0.001643 -0.001334

   4.3   0     0.0252   -2.3833  0.000000 -0.000000  0.000000 -0.000000  0.000000 -0.000000  0.000000 -0.000000  0.000000 -0.000001
                                 0.000002 -0.000007  0.000017 -0.000044  0.000105 -0.000237  0.000516 -0.001106  0.002644 -0.008396
                                 0.025403 -0.176482  0.236399 -0.155945  2.810802 -2.815101  0.074604 -0.047665  0.127526 -0.773188
                                 1.377880 -0.000000  0.000000 -0.000000  0.000001 -0.000002  0.000007 -0.000020  0.000050 -0.000117
                                 0.000265 -0.000681  0.002635 -0.009957  0.011484 -0.012277  0.036055 -0.042095  0.072678  0.012065
                                 0.047738 -0.140330 -0.165519  0.000000  0.000000 -0.000001 -0.000000  0.000003  0.000000 -0.000012
                                -0.000001  0.000035  0.000004 -0.000105 -0.000010  0.000204  0.000024 -0.000796 -0.000075  0.004535
                                 0.000490 -0.012111 -0.001307  0.019563  0.001956 -0.024023 -0.002201  0.018095  0.001864 -0.017886
                                -0.000685  0.023166  0.003476 -0.058358 -0.003540 -0.048007  0.010395  0.000020  0.000105 -0.000589
                                 0.000405  0.001259  0.000028 -0.000627 -0.007404 -0.026468 -0.037035 -0.074267 -0.000714  0.000153
                                 0.354062 -0.000593  0.001847 -0.000011 -0.006015 -0.000520 -0.000148  0.000640 -0.000132

   5.3   0     0.0771   -3.3688 -0.000000  0.000000 -0.000000  0.000000 -0.000000  0.000000 -0.000000  0.000000 -0.000001  0.000002
                                -0.000007  0.000019 -0.000052  0.000131 -0.000314  0.000716 -0.001578  0.003389 -0.006649  0.009161
                                -0.026253  0.455729 -0.583187  0.312875 -6.913199  6.812134 -0.234477  0.209127 -0.234870  1.628984
                                -1.033961  0.000000 -0.000000  0.000001 -0.000003  0.000011 -0.000037  0.000107 -0.000270  0.000612
                                -0.001288  0.002588 -0.004624  0.023449 -0.107108  0.110228 -0.059435  0.282192 -0.193571  0.156503
                                -0.173452  0.368508 -0.742466  0.000000 -0.000000 -0.000001  0.000000  0.000004 -0.000000 -0.000016
                                 0.000000  0.000044 -0.000001 -0.000139  0.000000  0.000253 -0.000008 -0.001041  0.000012  0.005712
                                -0.000033 -0.015204 -0.000030  0.023941 -0.000489 -0.029840  0.000358  0.022340 -0.000322 -0.030280
                                 0.002088 -0.030669  0.005109  0.021684  0.001090  0.071740  0.011539 -0.000697  0.000184  0.002020
                                 0.000986 -0.008873 -0.000294 -0.001215 -0.012326 -0.039070 -0.065993  0.000575 -0.000537  0.000325
                                -0.273619 -0.001601 -0.003912 -0.000073 -0.050771 -0.000157 -0.000200  0.004556 -0.000235

                                   1 3d2-    1 3d2-    1 3d2-    1 3d2-    1 3d2-    1 3d2-    1 3d2-    1 3d2-    1 3d2-    1 3d2- 
                                   1 3d2-    1 3d2-    1 3d2-    1 3d2-    1 3d2-    1 3d2-    1 3d2-    1 3d2-    1 3d2-    1 3d2- 
                                   1 3d2-    1 3d2-    1 4f2-    1 4f2-    1 4f2-    1 4f2-    1 4f2-    1 4f2-    1 4f2-    1 4f2- 
                                   1 4f2-    1 4f2-    1 4f2-    1 4f2-    1 4f2-    1 4f2-    1 4f2-    1 4f2-    1 4f2-    1 5g2- 
                                   1 5g4-    1 5g2-    1 5g4-    1 5g2-    1 5g4-    2 3d2-    2 3d2-    2 3d2-    2 3d2-    2 4f2- 
                                   2 4f2- 

   1.4   +    -0.5233  -11.5949 -0.000000  0.000000 -0.000000  0.000001 -0.000004  0.000012 -0.000037  0.000097 -0.000247  0.000702
                                -0.002840  0.018587 -0.060746 -0.045384  0.040922  0.253871  0.012885  0.403168  0.350660  0.159962
                                 0.021685 -0.000682  0.000000 -0.000000  0.000000 -0.000001  0.000003 -0.000007  0.000020 -0.000068
                                 0.000478 -0.001135  0.002514 -0.003820  0.003671 -0.005327 -0.003043 -0.000233 -0.000106 -0.000428
                                 0.001681  0.000825  0.003032  0.001562  0.003974  0.002276  0.007783  0.000113  0.002830 -0.001900
                                -0.001862

   2.4   0     0.0824   -2.6255 -0.000000  0.000000 -0.000001  0.000005 -0.000019  0.000064 -0.000184  0.000467 -0.001064  0.002279
                                -0.004877  0.011548 -0.051711  0.168165 -0.173868  0.152154 -0.465878  0.407462 -0.190049  0.217081
                                -0.487332  1.264817 -0.000000  0.000001 -0.000004  0.000014 -0.000040  0.000104 -0.000271  0.000796
                                -0.005061  0.013014 -0.021430  0.023427 -0.020658  0.014706 -0.022735  0.052103 -0.099287 -0.000000
                                -0.000058  0.000020 -0.000343 -0.000226  0.000208  0.000429 -0.000590  0.000001  0.005623 -0.000088
                                 0.000139

   3.4   0     0.1469   -2.5483 -0.000000  0.000000 -0.000000  0.000001 -0.000002  0.000007 -0.000021  0.000053 -0.000120  0.000258
                                -0.000558  0.001380 -0.006080  0.018587 -0.019257  0.018390 -0.052650  0.048395 -0.020242  0.025276
                                -0.052028  0.092731  0.000002 -0.000015  0.000069 -0.000247  0.000724 -0.001886  0.004891 -0.014471
                                 0.091521 -0.235447  0.385784 -0.421455  0.368009 -0.262988  0.371473 -1.008064  1.633104  0.000003
                                -0.000010  0.000057  0.000018 -0.000479 -0.000061  0.000802  0.002375  0.000027 -0.000851  0.000074
                                -0.001504

 HOMO      6.1    -0.336281 =      -9.1507eV
 LUMO      3.2    -0.002368 =      -0.0644eV
 LUMO-HOMO         0.333914 =       9.0863eV


 **********************************************************************************************************************************
 DATASETS  * FILE   NREC   LENGTH (MB)   RECORD NAMES
              1      19       22.57       500      610      700      900      950      970     1000      129      960     1100   
                                          VAR    BASINP    GEOM    SYMINP    ZMAT    AOBASIS   BASIS     P2S    ABASIS      S 
                                         1400     1410     1420     1200     1210     1080     1600     1650     1700   
                                           T        V       ECP      H0       H01     AOSYM     SMH    MOLCAS    OPER   

              2       4        4.55       700     1000      520     2100   
                                         GEOM     BASIS   MCVARS     RHF  

 PROGRAMS   *        TOTAL       RHF       INT
 CPU TIMES  *       218.83     11.24    207.30
 REAL TIME  *       231.62 SEC
 DISK USED  *        11.98 GB      
 SF USED    *         0.25 MB      
 GA USED    *         0.00 MB       (max)       0.00 MB       (current)
 **********************************************************************************************************************************
 SETTING SCF(1)         =      -119.38050634  AU                              


 PROGRAM * CCSD (Restricted open-shell coupled cluster)     Authors: C. Hampel, H.-J. Werner, 1991, M. Deegan, P.J. Knowles, 1992


 Convergence thresholds:  THRVAR = 1.00D-08  THRDEN = 1.00D-06

 CCSD(T)     terms to be evaluated (factor= 1.000)


 Number of closed-shell orbitals:  11 (   6   2   3   0 )
 Number of active  orbitals:        1 (   0   0   0   1 )
 Number of external orbitals:     443 ( 180 107 106  50 )

 Memory could be reduced to 445.68 Mwords without degradation in triples

 Number of N-1 electron functions:              23
 Number of N-2 electron functions:             253
 Number of singly external CSFs:              3275
 Number of doubly external CSFs:           9817564
 Total number of CSFs:                     9820839

 Molecular orbitals read from record     2100.2  Type=RHF/CANONICAL (state 1.4)

 Integral transformation finished. Total CPU:  16.23 sec, npass=  1  Memory used:  43.25 MW

 Starting RMP2 calculation

 Wavefunction is spin-projected

 ITER.      SQ.NORM     CORR.ENERGY   TOTAL ENERGY   ENERGY CHANGE        DEN1      VAR(S)    VAR(P)  DIIS     TIME
   1      1.24169799    -0.94603243  -120.32653876    -0.94603243    -0.00281049  0.64D-05  0.14D-02  1  1    17.62
   2      1.24511571    -0.94905184  -120.32955818    -0.00301942    -0.00000983  0.36D-07  0.77D-05  2  2    18.84
   3      1.24532659    -0.94915458  -120.32966092    -0.00010274    -0.00000006  0.15D-09  0.54D-07  3  3    20.13
   4      1.24533399    -0.94915602  -120.32966235    -0.00000144    -0.00000000  0.28D-11  0.25D-09  4  4    21.62
   5      1.24533402    -0.94915601  -120.32966234     0.00000001    -0.00000000  0.12D-12  0.14D-11  5  5    23.30

 Norm of t1 vector:      0.02783554      S-energy:    -0.00260246      T1 diagnostic:  0.00004477
 Norm of t2 vector:      0.49452927      P-energy:    -0.94655355
                                         Alpha-Beta:  -0.66774708
                                         Alpha-Alpha: -0.15132188
                                         Beta-Beta:   -0.12748460

 Spin contamination <S**2-Sz**2-Sz>     0.00000000
  Reference energy                   -119.380506335026
  RHF-RMP2 correlation energy          -0.949156008486
 !RHF-RMP2 energy                    -120.329662343513
 (NB above energy spin projected)

 Starting RCCSD calculation

 ITER.      SQ.NORM     CORR.ENERGY   TOTAL ENERGY   ENERGY CHANGE        DEN1      VAR(S)    VAR(P)  DIIS     TIME
   1      1.19406561    -0.86000842  -120.24051476    -0.86000842    -0.03664285  0.10D-01  0.75D-02  1  1    37.62
   2      1.21528198    -0.88833867  -120.26884501    -0.02833025    -0.00327000  0.41D-03  0.13D-02  2  2    50.58
   3      1.22530146    -0.89049635  -120.27100268    -0.00215768    -0.00064474  0.39D-03  0.18D-03  3  3    63.68
   4      1.23255328    -0.89260891  -120.27311524    -0.00211256    -0.00011020  0.43D-04  0.46D-04  4  4    77.00
   5      1.23706213    -0.89350396  -120.27401029    -0.00089505    -0.00001931  0.68D-05  0.11D-04  5  5    90.46
   6      1.23849367    -0.89363199  -120.27413833    -0.00012804    -0.00000538  0.16D-05  0.33D-05  6  6   103.90
   7      1.23921690    -0.89368209  -120.27418843    -0.00005010    -0.00000136  0.45D-06  0.76D-06  7  7   117.54
   8      1.23950373    -0.89370427  -120.27421061    -0.00002218    -0.00000027  0.98D-07  0.13D-06  8  8   131.34
   9      1.23957021    -0.89370561  -120.27421194    -0.00000134    -0.00000006  0.20D-07  0.31D-07  9  9   145.26
  10      1.23958179    -0.89370568  -120.27421201    -0.00000007    -0.00000001  0.37D-08  0.72D-08 10 10   160.71
  11      1.23958572    -0.89370677  -120.27421311    -0.00000110    -0.00000000  0.10D-08  0.26D-08 11 11   177.54
  12      1.23958689    -0.89370705  -120.27421339    -0.00000028    -0.00000000  0.22D-09  0.77D-09 12 12   195.59

 Norm of t1 vector:      0.14307648      S-energy:    -0.00278497      T1 diagnostic:  0.02030444
                                                                       D1 diagnostic:  0.05457182
 Norm of t2 vector:      0.46809829      P-energy:    -0.89092208
                                         Alpha-Beta:  -0.65751362
                                         Alpha-Alpha: -0.12657414
                                         Beta-Beta:   -0.10683432

 Spin contamination <S**2-Sz**2-Sz>     0.00000000

 Memory could be reduced to 458.42 Mwords without degradation in triples
 

  Correlated core orbitals:             1.1       2.1       1.2       1.3
  Orbital energies:                    -4.3241   -2.5775   -2.5578   -2.5467
 
  RCCSD core-core energy               -0.121964133575
  RCCSD core-valence energy            -0.221168551348
  RCCSD valence correlation energy     -0.550574369561
 

 RESULTS
 =======

  Reference energy                   -119.380506335026
  RCCSD singles energy                 -0.002784974302
  RCCSD pair energy                    -0.890922080182
  RCCSD correlation energy             -0.893707054484
  Triples (T) contribution             -0.047437376026
  Total correlation energy             -0.941144430510
 
  RHF-RCCSD energy                   -120.274213389510
  RHF-RCCSD[T] energy                -120.325421052620
  RHF-RCCSD-T energy                 -120.321152243778
 !RHF-RCCSD(T) energy                -120.321650765536

 Program statistics:

 Available memory in ccsd:              1023998628
 Min. memory needed in ccsd:              28062859
 Max. memory used in ccsd:                40287473
 Max. memory used in cckext:              32692403 (12 integral passes)
 Max. memory used in cckint:              43251562 ( 1 integral passes)



 **********************************************************************************************************************************
 DATASETS  * FILE   NREC   LENGTH (MB)   RECORD NAMES
              1      19       22.57       500      610      700      900      950      970     1000      129      960     1100   
                                          VAR    BASINP    GEOM    SYMINP    ZMAT    AOBASIS   BASIS     P2S    ABASIS      S 
                                         1400     1410     1420     1200     1210     1080     1600     1650     1700   
                                           T        V       ECP      H0       H01     AOSYM     SMH    MOLCAS    OPER   

              2       4        4.55       700     1000      520     2100   
                                         GEOM     BASIS   MCVARS     RHF  

 PROGRAMS   *        TOTAL  RCCSD(T)       RHF       INT
 CPU TIMES  *       696.00    477.14     11.24    207.30
 REAL TIME  *       784.94 SEC
 DISK USED  *        38.94 GB      
 SF USED    *         7.46 GB      
 GA USED    *         0.00 MB       (max)       0.00 MB       (current)
 **********************************************************************************************************************************
 SETTING CCSD(1)        =      -120.32165077  AU                              

 DO I                   =         2.00000000   
 SETTING Z(2)           =         1.60000000                                  

Geometry recognized as XYZ



 Recomputing integrals since geometry changed


 PROGRAM * SEWARD (Integral evaluation for generally contracted gaussian basis sets)     Author: Roland Lindh, 1990

 Geometry written to block  1 of record 700


 Point group  C2v 



 ATOMIC COORDINATES

 NR  ATOM    CHARGE       X              Y              Z

   1  IR     17.00    0.000000000    0.000000000    0.000000000
   2  O       6.00    0.000000000    0.000000000    3.023561799

 Bond lengths in Bohr (Angstrom)

 1-2  3.023561799
     ( 1.600000000)

 NUCLEAR CHARGE:                   23
 NUMBER OF PRIMITIVE AOS:         556
 NUMBER OF SYMMETRY AOS:          455
 NUMBER OF CONTRACTIONS:          455   ( 186A1  + 109B1  + 109B2  +  51A2  )
 NUMBER OF CORE ORBITALS:           4   (   2A1  +   1B1  +   1B2  +   0A2  )
 NUMBER OF VALENCE ORBITALS:       10   (   5A1  +   2B1  +   2B2  +   1A2  )


 NUCLEAR REPULSION ENERGY   33.73504720

 EXTRA SYMMETRY OF AOS IN SYMMETRY 1:   1 1 1 1 1 1 1 1 1 1   1 1 1 1 1 1 1 1 1 1   1 1 1 1 1 1 1 1 1 1   1 1 1 1 1 1 1 1 1 1
                                        1 1 1 1 1 1 1 1 1 1   1 1 1 1 1 1 1 1 1 1   1 1 1 1 1 1 1 2 1 2   1 2 1 2 1 2 1 2 1 2
                                        1 2 1 2 1 2 1 2 1 2   1 2 1 2 1 2 1 2 1 2   1 2 1 2 1 2 1 2 1 2   1 2 1 2 1 2 1 2 1 2
                                        1 2 1 2 1 2 1 2 1 2   1 2 1 2 1 2 1 2 1 2   1 2 1 2 1 3 2 1 3 2   1 3 2 1 1 1 1 1 1 1
                                        1 1 1 1 1 1 1 1 1 1   1 1 1 1 1 2 1 2 1 2   1 2 1 2 1 2
 EXTRA SYMMETRY OF AOS IN SYMMETRY 2:   1 1 1 1 1 1 1 1 1 1   1 1 1 1 1 1 1 1 1 1   1 1 1 1 1 1 1 1 1 1   1 1 1 1 1 1 1 1 1 1
                                        1 1 1 1 1 1 1 1 1 1   1 1 1 1 2 1 2 1 2 1   2 1 2 1 2 1 2 1 2 1   2 1 2 1 2 1 2 1 2 1
                                        2 1 2 1 2 1 2 1 2 1   2 1 2 1 1 1 1 1 1 1   1 1 1 1 1 1 2 1 2
 EXTRA SYMMETRY OF AOS IN SYMMETRY 3:   1 1 1 1 1 1 1 1 1 1   1 1 1 1 1 1 1 1 1 1   1 1 1 1 1 1 1 1 1 1   1 1 1 1 1 1 1 1 1 1
                                        1 1 1 1 1 1 1 1 1 1   1 1 1 1 2 1 2 1 2 1   2 1 2 1 2 1 2 1 2 1   2 1 2 1 2 1 2 1 2 1
                                        2 1 2 1 2 1 2 1 2 1   2 1 2 1 1 1 1 1 1 1   1 1 1 1 1 1 2 1 2
 EXTRA SYMMETRY OF AOS IN SYMMETRY 4:   1 1 1 1 1 1 1 1 1 1   1 1 1 1 1 1 1 1 1 1   1 1 1 1 1 1 1 1 1 1   1 1 1 1 1 1 1 1 1 1
                                        2 1 2 1 2 1 1 1 1 1   1

 Eigenvalues of metric

         1 0.732E-07 0.926E-06 0.345E-05 0.104E-04 0.155E-04 0.160E-04 0.249E-04 0.423E-04
         2 0.907E-07 0.372E-05 0.153E-04 0.523E-04 0.539E-04 0.125E-03 0.141E-03 0.433E-03
         3 0.907E-07 0.372E-05 0.153E-04 0.523E-04 0.539E-04 0.125E-03 0.141E-03 0.433E-03
         4 0.155E-04 0.537E-04 0.146E-03 0.607E-03 0.970E-03 0.208E-02 0.547E-02 0.578E-02


 Contracted 2-electron integrals neglected if value below      1.0D-15

 Warning: maximum contribution to expansion of local PP integrals   0.5D+07
 AO integral compression algorithm  1   Integral accuracy      1.0D-15

     4837.868 MB (compressed) written to integral file ( 37.8%)

     Node minimum: 261.358 MB, node maximum: 913.834 MB


 NUMBER OF SORTED TWO-ELECTRON INTEGRALS:  125132898.     BUFFER LENGTH:  32768
 NUMBER OF SEGMENTS:   4  SEGMENT LENGTH:   31982049      RECORD LENGTH: 524288

 Memory used in sort:      32.54 MW

 SORT1 READ  1600176772. AND WROTE    48944183. INTEGRALS IN    142 RECORDS. CPU TIME:    23.52 SEC, REAL TIME:    31.86 SEC
 SORT2 READ   537107521. AND WROTE  1376419418. INTEGRALS IN  15499 RECORDS. CPU TIME:     1.98 SEC, REAL TIME:     3.16 SEC

 Node minimum:   125060912.  Node maximum:   125200036. integrals

 OPERATOR DM      FOR CENTER  0  COORDINATES:    0.000000    0.000000    0.000000


 **********************************************************************************************************************************
 DATASETS  * FILE   NREC   LENGTH (MB)   RECORD NAMES
              1      19       22.49       500      610      700      900      950      970     1000      129      960     1100   
                                          VAR    BASINP    GEOM    SYMINP    ZMAT    AOBASIS   BASIS     P2S    ABASIS      S 
                                         1400     1410     1420     1200     1210     1080     1600     1650     1700   
                                           T        V       ECP      H0       H01     AOSYM     SMH    MOLCAS    OPER   

              2       4        4.55       700     1000      520     2100   
                                         GEOM     BASIS   MCVARS     RHF  

 PROGRAMS   *        TOTAL       INT  RCCSD(T)       RHF       INT
 CPU TIMES  *       903.55    207.55    477.14     11.24    207.30
 REAL TIME  *      1002.54 SEC
 DISK USED  *        39.87 GB      
 SF USED    *         7.46 GB      
 GA USED    *         0.00 MB       (max)       0.00 MB       (current)
 **********************************************************************************************************************************


 PROGRAM * RHF-SCF (OPEN SHELL)       Authors: W. Meyer, H.-J. Werner


 NUMBER OF ELECTRONS:      12+   11-    SPACE SYMMETRY=4    SPIN SYMMETRY: Doublet 
 CONVERGENCE THRESHOLDS:    1.00E-05 (Density)    1.00E-07 (Energy)
 MAX. NUMBER OF ITERATIONS:       60
 INTERPOLATION TYPE:            DIIS
 INTERPOLATION STEPS:              2 (START)      1 (STEP)
 LEVEL SHIFTS:                 -1.00 (CLOSED) -0.50 (OPEN) 

 Number of closed-shell orbitals:   11 (   6   2   3   0 )
 Number of open-shell orbitals:      1 (   0   0   0   1 )


 Molecular orbitals read from record     2100.2  Type=RHF/CANONICAL (state 1.4)

 Molecular orbital dump at record        2100.2

 ITERATION    DDIFF          GRAD             ENERGY        2-EL.EN.            DIPOLE MOMENTS         DIIS   ORB.
    1      0.000D+00      0.000D+00      -119.40499242    240.318569    0.00000    0.00000   -1.09188    0    start
    2      0.000D+00      0.180D-01      -119.41750287    240.293539    0.00000    0.00000   -1.03168    1    diag,B
    3      0.379D-01      0.870D-03      -119.41886565    240.335061    0.00000    0.00000   -1.07726    2    diag,B
    4      0.452D-02      0.453D-03      -119.41961091    240.415111    0.00000    0.00000   -1.09839    3    diag,B
    5      0.514D-02      0.247D-03      -119.41994351    240.475185    0.00000    0.00000   -1.12875    4    diag,B
    6      0.667D-03      0.158D-03      -119.42016569    240.551662    0.00000    0.00000   -1.15813    5    diag,B
    7      0.193D-02      0.980D-04      -119.42028119    240.618149    0.00000    0.00000   -1.18531    6    diag,B
    8      0.573D-03      0.594D-04      -119.42032980    240.663766    0.00000    0.00000   -1.20229    7    orth
    9      0.111D-02      0.367D-04      -119.42035034    240.690112    0.00000    0.00000   -1.21199    8    diag,B
   10      0.216D-03      0.213D-04      -119.42035706    240.701141    0.00000    0.00000   -1.21665    9    diag,B
   11      0.478D-03      0.128D-04      -119.42035936    240.706018    0.00000    0.00000   -1.21954   10    diag,B
   12      0.135D-03      0.749D-05      -119.42036008    240.707742    0.00000    0.00000   -1.22102   11    diag,B
   13      0.180D-03      0.433D-05      -119.42036030    240.708552    0.00000    0.00000   -1.22190   12    diag,B
   14      0.277D-04      0.269D-05      -119.42036034    240.708746    0.00000    0.00000   -1.22213   13    diag,B
   15      0.323D-04      0.183D-05      -119.42036037    240.709018    0.00000    0.00000   -1.22245   14    diag,B
   16      0.383D-04      0.129D-05      -119.42036038    240.709060    0.00000    0.00000   -1.22253   15    diag,B
   17      0.495D-05      0.108D-05      -119.42036038    240.709114    0.00000    0.00000   -1.22257    0    orth

 Final alpha occupancy:   6   2   3   1
 Final beta  occupancy:   6   2   3   0

 !RHF STATE 1.4 Energy               -119.420360383507
 Nuclear energy                        33.73504720
 One-electron energy                 -273.50996451
 Two-electron energy                  120.35455693
 Virial quotient                       -2.53912428
 !RHF STATE 1.4 Dipole moment           0.00000000     0.00000000    -1.22256572
 Dipole moment /Debye                   0.00000000     0.00000000    -3.10724858

 ELECTRON ORBITALS
 =================


   Orb  Occ    Energy  Couls-En    Coefficients

                                   1 1s      1 1s      1 1s      1 1s      1 1s      1 1s      1 1s      1 1s      1 1s      1 1s   
                                   1 1s      1 1s      1 1s      1 1s      1 1s      1 1s      1 1s      1 1s      1 1s      1 1s   
                                   1 1s      1 1s      1 1s      1 1s      1 1s      1 1s      1 1s      1 1s      1 1s      1 1s   
                                   1 1s      1 1s      1 1s      1 1s      1 1s      1 2pz     1 2pz     1 2pz     1 2pz     1 2pz  
                                   1 2pz     1 2pz     1 2pz     1 2pz     1 2pz     1 2pz     1 2pz     1 2pz     1 2pz     1 2pz  
                                   1 2pz     1 2pz     1 2pz     1 2pz     1 2pz     1 2pz     1 2pz     1 2pz     1 2pz     1 2pz  
                                   1 2pz     1 2pz     1 2pz     1 2pz     1 2pz     1 2pz     1 3d0     1 3d2+    1 3d0     1 3d2+ 
                                   1 3d0     1 3d2+    1 3d0     1 3d2+    1 3d0     1 3d2+    1 3d0     1 3d2+    1 3d0     1 3d2+ 
                                   1 3d0     1 3d2+    1 3d0     1 3d2+    1 3d0     1 3d2+    1 3d0     1 3d2+    1 3d0     1 3d2+ 
                                   1 3d0     1 3d2+    1 3d0     1 3d2+    1 3d0     1 3d2+    1 3d0     1 3d2+    1 3d0     1 3d2+ 
                                   1 3d0     1 3d2+    1 3d0     1 3d2+    1 3d0     1 3d2+    1 3d0     1 3d2+    1 3d0     1 3d2+ 
                                   1 4f0     1 4f2+    1 4f0     1 4f2+    1 4f0     1 4f2+    1 4f0     1 4f2+    1 4f0     1 4f2+ 
                                   1 4f0     1 4f2+    1 4f0     1 4f2+    1 4f0     1 4f2+    1 4f0     1 4f2+    1 4f0     1 4f2+ 
                                   1 4f0     1 4f2+    1 4f0     1 4f2+    1 4f0     1 4f2+    1 4f0     1 4f2+    1 4f0     1 4f2+ 
                                   1 4f0     1 4f2+    1 4f0     1 4f2+    1 5g0     1 5g4+    1 5g2+    1 5g0     1 5g4+    1 5g2+ 
                                   1 5g0     1 5g4+    1 5g2+    2 1s      2 1s      2 1s      2 1s      2 1s      2 1s      2 1s   
                                   2 1s      2 1s      2 1s      2 1s      2 1s      2 1s      2 2pz     2 2pz     2 2pz     2 2pz  
                                   2 2pz     2 2pz     2 2pz     2 2pz     2 3d0     2 3d2+    2 3d0     2 3d2+    2 3d0     2 3d2+ 
                                   2 3d0     2 3d2+    2 4f0     2 4f2+    2 4f0     2 4f2+ 

   1.1   2    -4.2857  -20.9287 -0.000000  0.000000 -0.000000  0.000000 -0.000000  0.000000 -0.000000  0.000000 -0.000000  0.000000
                                -0.000001  0.000003 -0.000008  0.000019 -0.000049  0.000121 -0.000301  0.000740 -0.001798  0.004314
                                -0.010264  0.024396 -0.053420  0.041108  0.333391 -1.000268  0.452690 -0.509920  1.006204 -0.111856
                                 0.590195  0.020074 -0.013370 -0.001575  0.000171 -0.000000  0.000000 -0.000000  0.000000 -0.000000
                                 0.000000 -0.000000  0.000000 -0.000000  0.000000 -0.000000  0.000000 -0.000001  0.000003 -0.000007
                                 0.000017 -0.000037  0.000079 -0.000164  0.000363 -0.001237  0.013439 -0.018145  0.013948 -0.269459
                                 0.265230 -0.008266 -0.005715 -0.004768 -0.000482  0.000185  0.000000 -0.000000 -0.000000  0.000000
                                 0.000000 -0.000000 -0.000000  0.000000  0.000000 -0.000000 -0.000001  0.000000  0.000002 -0.000000
                                -0.000004  0.000001  0.000010 -0.000002 -0.000020  0.000006  0.000028 -0.000028  0.000057  0.000192
                                -0.000051 -0.000626 -0.002225 -0.000659  0.002027  0.000781  0.002645  0.003195 -0.000800  0.000456
                                 0.006389  0.001297 -0.004222 -0.000181 -0.002453 -0.000121 -0.001117  0.000005  0.000149 -0.000003
                                -0.000000  0.000000  0.000000 -0.000000 -0.000000  0.000000  0.000001 -0.000000 -0.000004 -0.000000
                                 0.000007 -0.000004 -0.000032 -0.000007  0.000035 -0.000050 -0.000457  0.000171  0.001599 -0.000282
                                -0.003893 -0.000303  0.003165 -0.000818 -0.001152  0.000282 -0.001200  0.000087 -0.000588  0.000080
                                -0.000054 -0.000030  0.000039  0.000011 -0.000061  0.000047 -0.000105  0.000479  0.000764 -0.000759
                                -0.000773  0.000374 -0.000399 -0.000000  0.000000 -0.000000  0.000003 -0.000030 -0.000306 -0.001440
                                 0.006995  0.000918  0.010057 -0.000557  0.000400  0.009037 -0.000099 -0.000936 -0.002540 -0.006947
                                -0.005422 -0.000036  0.000027 -0.001892  0.000823  0.000038  0.002631  0.000380  0.000033  0.000002
                                 0.000684  0.000143 -0.000589 -0.000088 -0.000201 -0.000249

   2.1   2    -2.5370  -17.1584 -0.000000  0.000000 -0.000000  0.000000 -0.000000  0.000000 -0.000000  0.000000 -0.000000  0.000000
                                -0.000000  0.000000 -0.000000  0.000000 -0.000000  0.000001 -0.000002  0.000005 -0.000011  0.000025
                                -0.000054  0.000106 -0.000213  0.000868 -0.004493  0.014990 -0.041746  0.046126 -0.025617  0.013093
                                -0.002404 -0.031894 -0.022608 -0.010727  0.001513  0.000000 -0.000000  0.000000 -0.000000  0.000000
                                -0.000000  0.000000 -0.000000  0.000001 -0.000002  0.000006 -0.000018  0.000049 -0.000124  0.000303
                                -0.000713  0.001653 -0.003481 -0.000655  0.071353 -0.212862 -0.080744 -0.066174  0.419354 -0.887570
                                 1.429843  0.233337  0.000180 -0.015009 -0.001943  0.000487  0.000000  0.000000 -0.000000 -0.000000
                                 0.000000  0.000000 -0.000000 -0.000000  0.000001  0.000000 -0.000003 -0.000000  0.000010  0.000000
                                -0.000025 -0.000000  0.000058  0.000001 -0.000124 -0.000003  0.000273  0.000012 -0.000735 -0.000098
                                 0.003257  0.000409 -0.008412  0.000059  0.007987 -0.000193 -0.006092 -0.001494 -0.000900 -0.000628
                                 0.005327 -0.001482 -0.011738  0.001232 -0.007207  0.000948 -0.002988  0.000054 -0.000117  0.000010
                                -0.000000  0.000000  0.000000 -0.000000 -0.000001  0.000000  0.000002 -0.000001 -0.000006  0.000002
                                 0.000033 -0.000014 -0.000013 -0.000004  0.000293 -0.000095 -0.001917  0.000049  0.005846 -0.000416
                                -0.009579  0.000637  0.014025 -0.002152 -0.003708 -0.000365 -0.003416 -0.001799 -0.002646 -0.000391
                                 0.000544  0.000057 -0.000483 -0.000021  0.000227 -0.000011  0.000087  0.001085 -0.000010  0.000007
                                -0.001454  0.000013  0.000781 -0.000000  0.000001 -0.000005  0.000033 -0.000345 -0.004942 -0.016323
                                 0.054235  0.013147  0.052593 -0.000477  0.004867  0.029447 -0.000622 -0.006340 -0.019086 -0.039058
                                -0.029949 -0.000379  0.000165 -0.004549  0.003597  0.000092  0.012043  0.000813  0.000147 -0.000006
[...]
                                 0.000021  0.000229 -0.000075  0.002641  0.000820  0.001175 -0.001124  0.003213 -0.000479  0.000101
                                -0.001827  0.000316 -0.000534 -0.000256  0.000106  0.000040 -0.000047 -0.000066  0.000058 -0.000555
                                -0.000356 -0.000202  0.000176  0.000029  0.000255  0.000662  0.001403  0.000125  0.000001 -0.000008
                                 0.000118 -0.000200 -0.000914 -0.000012 -0.000047  0.000204  0.000007  0.000317  0.000054

   2.3   2    -0.5439   -9.9439  0.000000 -0.000000  0.000000 -0.000000  0.000000 -0.000000  0.000000 -0.000000  0.000000 -0.000000
                                 0.000000 -0.000000  0.000001 -0.000002  0.000004 -0.000009  0.000018 -0.000038  0.000266 -0.002236
                                 0.006836 -0.016551  0.025765 -0.025508  0.368307 -0.381825  0.003904 -0.011092 -0.005990  0.001543
                                -0.001181 -0.000000  0.000000 -0.000000  0.000000 -0.000002  0.000006 -0.000016  0.000044 -0.000114
                                 0.000335 -0.001424  0.009643 -0.031230 -0.027105  0.025235  0.130403  0.016019  0.198754  0.198606
                                 0.078987  0.014618 -0.000836  0.000000 -0.000000 -0.000000  0.000000  0.000000 -0.000000 -0.000001
                                 0.000000  0.000004 -0.000000 -0.000004 -0.000000  0.000046 -0.000003 -0.000039  0.000000  0.000726
                                -0.000043 -0.001992  0.000068  0.003935 -0.000200 -0.004484  0.000080  0.005149 -0.000367  0.001394
                                 0.000356 -0.010727  0.000562  0.000533  0.000150  0.000951 -0.000007  0.000265  0.000353  0.003687
                                 0.000757  0.005950  0.001390  0.007053  0.073128  0.235081  0.368561  0.277713  0.003936 -0.001862
                                 0.024412 -0.003686 -0.014464 -0.000213 -0.016388  0.001824  0.002014  0.005013  0.002118

   3.3   2    -0.3987  -10.3644  0.000000 -0.000000  0.000000 -0.000000  0.000000 -0.000000  0.000000 -0.000000  0.000000 -0.000000
                                 0.000000 -0.000001  0.000003 -0.000008  0.000020 -0.000049  0.000115 -0.000249 -0.000076  0.005775
                                -0.018208  0.000031 -0.012489  0.042222 -0.210428  0.264334  0.006380 -0.054854 -0.052683  0.000152
                                -0.000020 -0.000000  0.000000 -0.000000  0.000001 -0.000003  0.000010 -0.000030  0.000081 -0.000205
                                 0.000582 -0.002353  0.015423 -0.050655 -0.037419  0.034836  0.210138  0.010819  0.329790  0.294441
                                 0.167523  0.030068  0.002872  0.000000  0.000000 -0.000001 -0.000000  0.000002  0.000000 -0.000009
                                -0.000000  0.000022  0.000000 -0.000104  0.000000  0.000057  0.000004 -0.000748  0.000000  0.003060
                                -0.000058 -0.008914  0.000149  0.012475  0.000056 -0.019405  0.000152  0.005760 -0.000186 -0.026035
                                -0.000313 -0.009126 -0.000181 -0.006046 -0.000065  0.001509  0.000010  0.000371  0.000542  0.000532
                                 0.001241  0.002186  0.001289 -0.005360 -0.055754 -0.180182 -0.280842 -0.241247 -0.003022  0.001414
                                -0.046101 -0.000640 -0.000185 -0.000002  0.010240  0.000601 -0.001540 -0.002340 -0.001234

   4.3   0     0.0223   -2.4959  0.000000 -0.000000  0.000000 -0.000000  0.000000 -0.000000  0.000000 -0.000000  0.000000 -0.000001
                                 0.000003 -0.000008  0.000021 -0.000052  0.000125 -0.000283  0.000614 -0.001315  0.003248 -0.011157
                                 0.033867 -0.216108  0.291482 -0.197699  3.488266 -3.501953  0.092937 -0.067170  0.230950 -0.529913
                                 1.247206  0.000000 -0.000000  0.000000 -0.000000  0.000001 -0.000003  0.000009 -0.000022  0.000049
                                -0.000095  0.000126  0.000392 -0.000500 -0.012474  0.012627  0.005983  0.026931  0.000960  0.030833
                                -0.000665 -0.014331 -0.248679  0.000000  0.000000 -0.000001 -0.000000  0.000003  0.000000 -0.000010
                                -0.000001  0.000028  0.000002 -0.000082 -0.000007  0.000174  0.000013 -0.000619 -0.000051  0.003625
                                 0.000338 -0.009497 -0.000930  0.015167  0.001229 -0.017907 -0.001501  0.013970  0.001229 -0.013768
                                -0.000087  0.012904  0.003293 -0.025164 -0.002305 -0.026743  0.008332  0.000029  0.000057 -0.000081
                                 0.000367  0.000079 -0.000140 -0.000443 -0.005632 -0.021213 -0.026628 -0.051035 -0.000673  0.000103
                                 0.140547 -0.000402 -0.000492 -0.000008 -0.003430 -0.000126 -0.000181  0.000732 -0.000049

   5.3   0     0.0701   -3.3183 -0.000000  0.000000 -0.000000  0.000000 -0.000000  0.000000 -0.000000  0.000000 -0.000001  0.000003
                                -0.000009  0.000025 -0.000066  0.000166 -0.000397  0.000907 -0.001998  0.004291 -0.008434  0.011789
                                -0.033887  0.579323 -0.742058  0.400080 -8.871171  8.747707 -0.306079  0.311686 -0.318599  1.776876
                                -1.244386  0.000000 -0.000000  0.000000 -0.000002  0.000007 -0.000023  0.000068 -0.000172  0.000389
                                -0.000817  0.001623 -0.002717  0.014246 -0.069492  0.071518 -0.035157  0.183042 -0.121248  0.110450
                                -0.078122  0.184985 -0.520128  0.000000 -0.000000 -0.000001  0.000000  0.000003 -0.000000 -0.000012
                                 0.000001  0.000033 -0.000002 -0.000100  0.000003  0.000200 -0.000020 -0.000752  0.000038  0.004252
                                -0.000197 -0.011081  0.000389  0.017198 -0.001300 -0.020451  0.001108  0.014179 -0.001051 -0.014754
                                 0.002633  0.006310  0.004420 -0.029293  0.002470  0.147859  0.007297 -0.000249  0.000095  0.000988
                                 0.000777 -0.002196 -0.000456 -0.000826 -0.008437 -0.026906 -0.043291 -0.033222 -0.000388  0.000220
                                -0.194373 -0.000967 -0.002679 -0.000043 -0.008638  0.000120 -0.000232  0.000001 -0.000072

                                   1 3d2-    1 3d2-    1 3d2-    1 3d2-    1 3d2-    1 3d2-    1 3d2-    1 3d2-    1 3d2-    1 3d2- 
                                   1 3d2-    1 3d2-    1 3d2-    1 3d2-    1 3d2-    1 3d2-    1 3d2-    1 3d2-    1 3d2-    1 3d2- 
                                   1 3d2-    1 3d2-    1 4f2-    1 4f2-    1 4f2-    1 4f2-    1 4f2-    1 4f2-    1 4f2-    1 4f2- 
                                   1 4f2-    1 4f2-    1 4f2-    1 4f2-    1 4f2-    1 4f2-    1 4f2-    1 4f2-    1 4f2-    1 5g2- 
                                   1 5g4-    1 5g2-    1 5g4-    1 5g2-    1 5g4-    2 3d2-    2 3d2-    2 3d2-    2 3d2-    2 4f2- 
                                   2 4f2- 

   1.4   +    -0.4912  -11.1635 -0.000000  0.000000 -0.000000  0.000001 -0.000003  0.000012 -0.000035  0.000093 -0.000236  0.000676
                                -0.002770  0.018277 -0.059495 -0.046750  0.042409  0.249011  0.017797  0.392616  0.353216  0.170401
                                 0.025815 -0.000809  0.000000 -0.000000  0.000001 -0.000004  0.000009 -0.000044  0.000019 -0.000311
                                 0.001281 -0.003758  0.005011 -0.008269  0.002106 -0.011496 -0.007982  0.000138 -0.000548 -0.000855
                                 0.001436 -0.000827  0.002788  0.000674  0.003539  0.000620  0.002808  0.000035  0.001812 -0.000480
                                -0.001099

   2.4   0     0.0801   -2.5954 -0.000000  0.000000 -0.000001  0.000005 -0.000018  0.000062 -0.000179  0.000453 -0.001034  0.002213
                                -0.004731  0.011158 -0.050050  0.163656 -0.169177  0.146998 -0.453004  0.394914 -0.186596  0.208879
                                -0.476007  1.250351 -0.000000  0.000002 -0.000008  0.000030 -0.000087  0.000228 -0.000589  0.001749
                                -0.011039  0.028425 -0.046569  0.051029 -0.044454  0.032243 -0.045328  0.114730 -0.223445  0.000070
                                -0.000055 -0.000045 -0.000313  0.000098  0.000149  0.000362 -0.000409  0.000004  0.005358 -0.000068
                                 0.000549

   3.4   0     0.1477   -2.5590 -0.000000  0.000000 -0.000000  0.000001 -0.000005  0.000016 -0.000045  0.000115 -0.000262  0.000562
                                -0.001220  0.003040 -0.013344  0.040323 -0.041759  0.040318 -0.113526  0.104847 -0.042576  0.056969
                                -0.120948  0.211831  0.000002 -0.000015  0.000068 -0.000243  0.000714 -0.001859  0.004821 -0.014262
                                 0.090161 -0.231901  0.379821 -0.414700  0.361471 -0.257742  0.367257 -0.996297  1.616564  0.000022
                                -0.000007 -0.000132  0.000006  0.000460 -0.000033  0.000730  0.001591  0.000028 -0.000642 -0.000996
                                 0.002924

 HOMO      6.1    -0.354833 =      -9.6555eV
 LUMO      3.2    -0.026418 =      -0.7189eV
 LUMO-HOMO         0.328414 =       8.9366eV


 **********************************************************************************************************************************
 DATASETS  * FILE   NREC   LENGTH (MB)   RECORD NAMES
              1      19       22.57       500      610      700      900      950      970     1000      129      960     1100   
                                          VAR    BASINP    GEOM    SYMINP    ZMAT    AOBASIS   BASIS     P2S    ABASIS      S 
                                         1400     1410     1420     1200     1210     1080     1600     1650     1700   
                                           T        V       ECP      H0       H01     AOSYM     SMH    MOLCAS    OPER   

              2       4        4.55       700     1000      520     2100   
                                         GEOM     BASIS   MCVARS     RHF  

 PROGRAMS   *        TOTAL       RHF       INT  RCCSD(T)       RHF       INT  RCCSD(T)       RHF       INT  RCCSD(T)       RHF
 CPU TIMES  *      3038.25     10.58    224.29    499.81      9.39    207.56    466.44      9.84    223.12    473.51      9.74
 REAL TIME  *      3416.65 SEC
 DISK USED  *        44.42 GB      
 SF USED    *         7.46 GB      
 GA USED    *         0.00 MB       (max)       0.00 MB       (current)
 **********************************************************************************************************************************
 SETTING SCF(5)         =      -119.39423002  AU                              


 PROGRAM * CCSD (Restricted open-shell coupled cluster)     Authors: C. Hampel, H.-J. Werner, 1991, M. Deegan, P.J. Knowles, 1992


 Convergence thresholds:  THRVAR = 1.00D-08  THRDEN = 1.00D-06

 CCSD(T)     terms to be evaluated (factor= 1.000)


 Number of closed-shell orbitals:  11 (   6   2   3   0 )
 Number of active  orbitals:        1 (   0   0   0   1 )
 Number of external orbitals:     443 ( 180 107 106  50 )

 Memory could be reduced to 458.57 Mwords without degradation in triples

 Number of N-1 electron functions:              23
 Number of N-2 electron functions:             253
 Number of singly external CSFs:              3275
 Number of doubly external CSFs:           9817564
 Total number of CSFs:                     9820839

 Molecular orbitals read from record     2100.2  Type=RHF/CANONICAL (state 1.4)

 Integral transformation finished. Total CPU:  15.45 sec, npass=  1  Memory used:  43.25 MW

 Starting RMP2 calculation

 Wavefunction is spin-projected

 ITER.      SQ.NORM     CORR.ENERGY   TOTAL ENERGY   ENERGY CHANGE        DEN1      VAR(S)    VAR(P)  DIIS     TIME
   1      1.29740307    -0.96872115  -120.36295116    -0.96872115    -0.00436833  0.59D-05  0.29D-02  1  1    16.80
   2      1.30472961    -0.97351175  -120.36774176    -0.00479060    -0.00002420  0.21D-07  0.21D-04  2  2    18.11
   3      1.30531046    -0.97375015  -120.36798017    -0.00023840    -0.00000008  0.95D-10  0.63D-07  3  3    19.61
   4      1.30532478    -0.97375318  -120.36798319    -0.00000303    -0.00000000  0.39D-11  0.26D-09  4  4    21.24
   5      1.30532500    -0.97375324  -120.36798325    -0.00000006    -0.00000000  0.19D-12  0.12D-11  5  5    23.02

 Norm of t1 vector:      0.02752539      S-energy:    -0.00255154      T1 diagnostic:  0.00006301
 Norm of t2 vector:      0.55187621      P-energy:    -0.97120170
                                         Alpha-Beta:  -0.69138639
                                         Alpha-Alpha: -0.15150743
                                         Beta-Beta:   -0.12830788

 Spin contamination <S**2-Sz**2-Sz>     0.00000000
  Reference energy                   -119.394230016435
  RHF-RMP2 correlation energy          -0.973753237342
 !RHF-RMP2 energy                    -120.367983253777
 (NB above energy spin projected)

 Starting RCCSD calculation

 ITER.      SQ.NORM     CORR.ENERGY   TOTAL ENERGY   ENERGY CHANGE        DEN1      VAR(S)    VAR(P)  DIIS     TIME
   1      1.22825014    -0.86851434  -120.26274436    -0.86851434    -0.04823491  0.19D-01  0.11D-01  1  1    36.61
   2      1.26446921    -0.90421241  -120.29844243    -0.03569807    -0.00572148  0.12D-02  0.26D-02  2  2    49.85
   3      1.28910096    -0.90767558  -120.30190560    -0.00346318    -0.00172772  0.15D-02  0.38D-03  3  3    63.25
   4      1.31231025    -0.91192809  -120.30615810    -0.00425250    -0.00048768  0.42D-03  0.11D-03  4  4    76.54
   5      1.33484733    -0.91466769  -120.30889771    -0.00273960    -0.00014955  0.16D-03  0.23D-04  5  5    90.04
   6      1.34796475    -0.91539101  -120.30962102    -0.00072331    -0.00006053  0.69D-04  0.10D-04  6  6   103.77
   7      1.35825873    -0.91579037  -120.31002039    -0.00039937    -0.00002222  0.24D-04  0.45D-05  7  7   117.59
   8      1.36539940    -0.91599390  -120.31022392    -0.00020353    -0.00000666  0.55D-05  0.19D-05  8  8   131.58
   9      1.36801104    -0.91603679  -120.31026681    -0.00004289    -0.00000202  0.17D-05  0.56D-06  9  9   145.18
  10      1.36926425    -0.91604768  -120.31027770    -0.00001089    -0.00000056  0.47D-06  0.15D-06 10 10   160.19
  11      1.36958384    -0.91605415  -120.31028417    -0.00000647    -0.00000019  0.14D-06  0.57D-07 11 11   173.95
  12      1.36982916    -0.91605621  -120.31028622    -0.00000206    -0.00000006  0.50D-07  0.15D-07 12 12   187.08
  13      1.36988838    -0.91605352  -120.31028354     0.00000269    -0.00000002  0.18D-07  0.49D-08 13 13   200.53
  14      1.36990403    -0.91605388  -120.31028390    -0.00000036    -0.00000001  0.72D-08  0.21D-08 14 14   217.71

 Norm of t1 vector:      0.29743070      S-energy:    -0.00285914      T1 diagnostic:  0.04319598
                                                                       D1 diagnostic:  0.18444882
 Norm of t2 vector:      0.53050825      P-energy:    -0.91319474
                                         Alpha-Beta:  -0.68392566
                                         Alpha-Alpha: -0.12397879
                                         Beta-Beta:   -0.10529029

 Singles amplitudes (print threshold =  0.500E-01):

         I         SYM. A    A   T(IA) [Alpha-Alpha]

         4         1         1      0.06841284
         6         1         1     -0.11370844
         6         1         2      0.05049228
 
         I         SYM. A    A   T(IA) [Beta-Beta]

         4         1         1      0.05682904
         6         1         1     -0.13396050
         6         1         2      0.05657097

 Doubles amplitudes (print threshold =  0.500E-01):

         I         J         SYM. A    SYM. B    A         B      T(IJ, AB) [Alpha-Beta]

         8         8         2         2         1         1     -0.16733444
         8         8         2         2         1         2     -0.05341753
         8         8         2         2         2         1     -0.05341753

 Spin contamination <S**2-Sz**2-Sz>     0.00000000

 Memory could be reduced to 458.42 Mwords without degradation in triples
 

  Correlated core orbitals:             1.1       2.1       1.2       1.3
  Orbital energies:                    -4.2675   -2.4802   -2.5133   -2.5036
 
  RCCSD core-core energy               -0.125094916980
  RCCSD core-valence energy            -0.216707415555
  RCCSD valence correlation energy     -0.574251548719
 

 RESULTS
 =======

  Reference energy                   -119.394230016435
  RCCSD singles energy                 -0.002859144826
  RCCSD pair energy                    -0.913194736427
  RCCSD correlation energy             -0.916053881254
  Triples (T) contribution             -0.059383712615
  Total correlation energy             -0.975437593868
 
  RHF-RCCSD energy                   -120.310283897688
  RHF-RCCSD[T] energy                -120.378698852942
  RHF-RCCSD-T energy                 -120.368761236397
 !RHF-RCCSD(T) energy                -120.369667610303

 Program statistics:

 Available memory in ccsd:              1023998628
 Min. memory needed in ccsd:              28062859
 Max. memory used in ccsd:                40287473
 Max. memory used in cckext:              32692403 (14 integral passes)
 Max. memory used in cckint:              43251562 ( 1 integral passes)



 **********************************************************************************************************************************
 DATASETS  * FILE   NREC   LENGTH (MB)   RECORD NAMES
              1      19       22.57       500      610      700      900      950      970     1000      129      960     1100   
                                          VAR    BASINP    GEOM    SYMINP    ZMAT    AOBASIS   BASIS     P2S    ABASIS      S 
                                         1400     1410     1420     1200     1210     1080     1600     1650     1700   
                                           T        V       ECP      H0       H01     AOSYM     SMH    MOLCAS    OPER   

              2       4        4.55       700     1000      520     2100   
                                         GEOM     BASIS   MCVARS     RHF  

 PROGRAMS   *        TOTAL  RCCSD(T)       RHF       INT  RCCSD(T)       RHF       INT  RCCSD(T)       RHF       INT  RCCSD(T)
 CPU TIMES  *      3539.91    501.62     10.58    224.29    499.81      9.39    207.56    466.44      9.84    223.12    473.51
 REAL TIME  *      4027.16 SEC
 DISK USED  *        44.42 GB      
 SF USED    *         7.46 GB      
 GA USED    *         0.00 MB       (max)       0.00 MB       (current)
 **********************************************************************************************************************************
 SETTING CCSD(5)        =      -120.36966761  AU                              
 Output type csv         
                                                                                                                                                                                                                                                                

     Z,SCF,CCSD
   1.5,   -119.3805063,   -120.3216508
   1.6,   -119.4203604,   -120.3695801
   1.7,   -119.4274233,   -120.3852182
   1.8,   -119.4156897,   -120.3823008
   1.9,   -119.3942300,   -120.3696676
                                                  

 RCCSD(T)/USERDEF energy=   -120.369667610303

        RCCSD(T)        RHF-SCF         RCCSD(T)        RHF-SCF         RCCSD(T)        RHF-SCF         RCCSD(T)        RHF-SCF 
   -120.36966761   -119.39423002   -120.38230084   -119.41568966   -120.38521823   -119.42742330   -120.36958013   -119.42036038
 **********************************************************************************************************************************
 Molpro calculation terminated
 Variable memory released
