
 Primary working directories    : /global/cscratch1/sd/bkincaid
 Secondary working directories  : /global/cscratch1/sd/bkincaid
 Wavefunction directory         : /global/homes/b/bkincaid/wfu/
 Main file repository           : /global/cscratch1/sd/bkincaid/

 SHA1      : 19cd028119e0e09f93f0674bd8af7968d9b3eff6
 NAME      : 2015.1.36
 ARCHNAME  : linux/x86_64
 FC        : /opt/cray/pe/craype/2.5.14/bin/ftn
 BLASLIB   : -L/opt/intel/compilers_and_libraries_2018.1.163/linux/mkl/lib/intel64 -Wl,-_start-group -lmkl_intel_ilp64 -lmkl_intel_thread -lmkl_core -Wl,-_end-group -liomp5
 id        : lbl

 Nodes     nprocs
 nid02291    23
 Number of processes for MPI-2 version of Molpro:   nprocs(total)=   24   nprocs(compute)=   23   nprocs(helper)=    1

 Using customized tuning parameters: mindgm=7; mindgv=16; mindgc=1; mindgr=1; noblas=0; minvec=7
 default implementation of scratch files=sf  

 ***,Calculation for PdH groundstate
 memory,512,m
 gthresh,twoint=1.0E-12
 gthresh,throvl=1.0E-12
                                                                                 !symmetry,nosym
 
 set,dkroll=1,dkho=10,dkhp=4
 
 basis={
 
 Including file /global/u1/b/bkincaid/molpro/pd/molecules/PdH/tz/ae/1.529/c-Pd-aug-cc-pwCVTZ.basis
 
 Including file /global/u1/b/bkincaid/molpro/pd/molecules/PdH/tz/ae/1.529/c-H-aug-cc-pVTZ.basis
 }
 
 ne = 47
 
 geometry={
 2
 PdH
 Pd 0.0 0.0 0.0
 H 0.0 0.0 1.529
 }
 
 A1=12
 B1=5
 B2=5
 A2=2
 
 {rks,pbe0
 wf,nele=ne,spin=1,sym=1
 occ,A1,B1,B2,A2
 closed,A1-1,B1,B2,A2
 }
 {rhf
 wf,nelec=ne,spin=1,sym=1
 occ,A1,B1,B2,A2
 closed,A1-1,B1,B2,A2
 }
 
 
 basis={
 
 Including file /global/u1/b/bkincaid/molpro/pd/molecules/PdH/tz/ae/1.529/Pd-aug-cc-pwCVTZ.basis
 
 Including file /global/u1/b/bkincaid/molpro/pd/molecules/PdH/tz/ae/1.529/H-aug-cc-pVTZ.basis
 }
 
 {rhf
 wf,nelec=ne,spin=1,sym=1
 occ,A1,B1,B2,A2
 closed,A1-1,B1,B2,A2
 }
 
 E_Pd = -5044.366379
 E_H = -0.49982785
 
 scf=energy
 _CC_NORM_MAX=2.0
 {rccsd(t);maxit,100;core}
 ccsd=energy
 BE = ccsd - E_Pd - E_H
 
 table,scf,ccsd,BE
 save
 type,csv

 Variables initialized (889), CPU time= 0.01 sec
 Commands  initialized (702), CPU time= 0.02 sec, 572 directives.
 Default parameters read. Elapsed time= 0.29 sec

 Checking input...
 Passed
1


                                         ***  PROGRAM SYSTEM MOLPRO  ***
                                       Copyright, TTI GmbH Stuttgart, 2015
                                    Version 2015.1 linked Dec 29 2018 15:55:43


 **********************************************************************************************************************************
 LABEL *   Calculation for PdH groundstate                                               
  64 bit mpp version                                                                     DATE: 11-Sep-20          TIME: 01:24:58  
 **********************************************************************************************************************************

 SHA1:             19cd028119e0e09f93f0674bd8af7968d9b3eff6
 **********************************************************************************************************************************

 THRESHOLDS:

 ZERO    =  1.00D-12  ONEINT  =  1.00D-12  TWOINT  =  1.00D-12  PREFAC  =  1.00D-14  LOCALI  =  1.00D-09  EORDER  =  1.00D-04
 ENERGY  =  0.00D+00  ETEST   =  0.00D+00  EDENS   =  0.00D+00  THRDEDEF=  1.00D-06  GRADIENT=  1.00D-02  STEP    =  1.00D-03
 ORBITAL =  1.00D-05  CIVEC   =  1.00D-05  COEFF   =  1.00D-04  PRINTCI =  5.00D-02  PUNCHCI =  9.90D+01  OPTGRAD =  3.00D-04
 OPTENERG=  1.00D-06  OPTSTEP =  3.00D-04  THRGRAD =  1.00D-10  COMPRESS=  1.00D-11  VARMIN  =  1.00D-07  VARMAX  =  1.00D-03
 THRDOUB =  0.00D+00  THRDIV  =  1.00D-05  THRRED  =  1.00D-07  THRPSP  =  1.00D+00  THRDC   =  1.00D-10  THRCS   =  1.00D-10
 THRNRM  =  1.00D-08  THREQ   =  0.00D+00  THRDE   =  1.00D+00  THRREF  =  1.00D-05  SPARFAC =  1.00D+00  THRDLP  =  1.00D-07
 THRDIA  =  1.00D-10  THRDLS  =  1.00D-07  THRGPS  =  0.00D+00  THRKEX  =  0.00D+00  THRDIS  =  2.00D-01  THRVAR  =  1.00D-10
 THRLOC  =  1.00D-06  THRGAP  =  1.00D-06  THRLOCT = -1.00D+00  THRGAPT = -1.00D+00  THRORB  =  1.00D-06  THRMLTP =  0.00D+00
 THRCPQCI=  1.00D-10  KEXTA   =  0.00D+00  THRCOARS=  0.00D+00  SYMTOL  =  1.00D-06  GRADTOL =  1.00D-06  THROVL  =  1.00D-08
 THRORTH =  1.00D-08  GRID    =  1.00D-06  GRIDMAX =  1.00D-03  DTMAX   =  0.00D+00  THROCCDE=  1.00D-01  THROCCDE=  1.00D-01



 THRESHOLDS:

 ZERO    =  1.00D-12  ONEINT  =  1.00D-12  TWOINT  =  1.00D-12  PREFAC  =  1.00D-14  LOCALI  =  1.00D-09  EORDER  =  1.00D-04
 ENERGY  =  0.00D+00  ETEST   =  0.00D+00  EDENS   =  0.00D+00  THRDEDEF=  1.00D-06  GRADIENT=  1.00D-02  STEP    =  1.00D-03
 ORBITAL =  1.00D-05  CIVEC   =  1.00D-05  COEFF   =  1.00D-04  PRINTCI =  5.00D-02  PUNCHCI =  9.90D+01  OPTGRAD =  3.00D-04
 OPTENERG=  1.00D-06  OPTSTEP =  3.00D-04  THRGRAD =  1.00D-10  COMPRESS=  1.00D-11  VARMIN  =  1.00D-07  VARMAX  =  1.00D-03
 THRDOUB =  0.00D+00  THRDIV  =  1.00D-05  THRRED  =  1.00D-07  THRPSP  =  1.00D+00  THRDC   =  1.00D-10  THRCS   =  1.00D-10
 THRNRM  =  1.00D-08  THREQ   =  0.00D+00  THRDE   =  1.00D+00  THRREF  =  1.00D-05  SPARFAC =  1.00D+00  THRDLP  =  1.00D-07
 THRDIA  =  1.00D-10  THRDLS  =  1.00D-07  THRGPS  =  0.00D+00  THRKEX  =  0.00D+00  THRDIS  =  2.00D-01  THRVAR  =  1.00D-10
 THRLOC  =  1.00D-06  THRGAP  =  1.00D-06  THRLOCT = -1.00D+00  THRGAPT = -1.00D+00  THRORB  =  1.00D-06  THRMLTP =  0.00D+00
 THRCPQCI=  1.00D-10  KEXTA   =  0.00D+00  THRCOARS=  0.00D+00  SYMTOL  =  1.00D-06  GRADTOL =  1.00D-06  THROVL  =  1.00D-12
 THRORTH =  1.00D-08  GRID    =  1.00D-06  GRIDMAX =  1.00D-03  DTMAX   =  0.00D+00  THROCCDE=  1.00D-01  THROCCDE=  1.00D-01


 SETTING DKROLL         =         1.00000000                                  
 SETTING DKHO           =        10.00000000                                  
 SETTING DKHP           =         4.00000000                                  

 Variable memory set to  512000000 words,  buffer space   230000 words

 SETTING BASIS          =    USERDEF
 SETTING NE             =        47.00000000                                  

Geometry recognized as XYZ

 SETTING A1             =        12.00000000                                  
 SETTING B1             =         5.00000000                                  
 SETTING B2             =         5.00000000                                  
 SETTING A2             =         2.00000000                                  


 Recomputing integrals since basis changed


 Using spherical harmonics



 PROGRAM * SEWARD (Integral evaluation for generally contracted gaussian basis sets)     Author: Roland Lindh, 1990

 Geometry written to block  1 of record 700


 Point group  C2v 



 ATOMIC COORDINATES

 NR  ATOM    CHARGE       X              Y              Z

   1  PD     46.00    0.000000000    0.000000000    0.000000000
   2  H       1.00    0.000000000    0.000000000    2.889391244

 Bond lengths in Bohr (Angstrom)

 1-2  2.889391244
     ( 1.529000000)

 NUCLEAR CHARGE:                   47
 NUMBER OF PRIMITIVE AOS:         315
 NUMBER OF SYMMETRY AOS:          266
 NUMBER OF CONTRACTIONS:          159   (  65A1  +  37B1  +  37B2  +  20A2  )
 NUMBER OF CORE ORBITALS:          18   (   9A1  +   4B1  +   4B2  +   1A2  )
 NUMBER OF VALENCE ORBITALS:        7   (   4A1  +   1B1  +   1B2  +   1A2  )


 NUCLEAR REPULSION ENERGY   15.92030850

 One-electron integrals computed with SEWARD

 10nd-order Douglas-Kroll-Hess method activated. McWeeny DKH parametrization is used.

 Computing Douglas-Kroll / X2C integrals

 AO integral compression algorithm  1   Integral accuracy      1.0D-12

     96.469 MB (compressed) written to integral file ( 53.3%)

     Node minimum: 1.835 MB, node maximum: 8.126 MB


 NUMBER OF SORTED TWO-ELECTRON INTEGRALS:     906300.     BUFFER LENGTH:  32768
 NUMBER OF SEGMENTS:   1  SEGMENT LENGTH:     906300      RECORD LENGTH: 524288

 Memory used in sort:       1.46 MW

 SORT1 READ    22613812. AND WROTE      510282. INTEGRALS IN      2 RECORDS. CPU TIME:     1.02 SEC, REAL TIME:     1.24 SEC
 SORT2 READ    11897147. AND WROTE    20925119. INTEGRALS IN    713 RECORDS. CPU TIME:     0.03 SEC, REAL TIME:     0.31 SEC

 Node minimum:      897627.  Node maximum:      932430. integrals

 OPERATOR DM      FOR CENTER  0  COORDINATES:    0.000000    0.000000    0.000000

 EXTRA SYMMETRY OF AOS IN SYMMETRY 1:   1 1 1 1 1 1 1 1 1 1   1 1 1 1 1 1 1 1 1 1   1 1 2 1 2 1 2 1 2 1   2 1 2 1 2 1 2 1 2 1
                                        2 1 2 1 2 1 3 2 1 3   2 1 3 2 1 1 1 1 1 1   1 1 2 1 2
 EXTRA SYMMETRY OF AOS IN SYMMETRY 2:   1 1 1 1 1 1 1 1 1 1   1 1 1 1 1 1 1 1 1 2   1 2 1 2 1 2 1 2 1 2   1 2 1 1 1 1 1
 EXTRA SYMMETRY OF AOS IN SYMMETRY 3:   1 1 1 1 1 1 1 1 1 1   1 1 1 1 1 1 1 1 1 2   1 2 1 2 1 2 1 2 1 2   1 2 1 1 1 1 1
 EXTRA SYMMETRY OF AOS IN SYMMETRY 4:   1 1 1 1 1 1 1 1 1 1   1 1 1 2 1 2 1 2 1 1

 Eigenvalues of metric

         1 0.841E-04 0.158E-03 0.389E-03 0.621E-03 0.108E-02 0.155E-02 0.157E-02 0.382E-02
         2 0.638E-03 0.157E-02 0.196E-02 0.130E-01 0.244E-01 0.479E-01 0.540E-01 0.893E-01
         3 0.638E-03 0.157E-02 0.196E-02 0.130E-01 0.244E-01 0.479E-01 0.540E-01 0.893E-01
         4 0.157E-02 0.224E-01 0.857E-01 0.104E+00 0.139E+00 0.148E+00 0.243E+00 0.402E+00


 **********************************************************************************************************************************
 DATASETS  * FILE   NREC   LENGTH (MB)   RECORD NAMES
              1      22       20.70       500      610      700      900      950      970     1000      129      960     1700   
                                          VAR    BASINP    GEOM    SYMINP    ZMAT    AOBASIS   BASIS     P2S    ABASIS    OPER   
                                         1101     1401     1411     1412     1650     1100     1400     1410     1200     1210   
                                          SR      EKINR    POTR     PVPR    MOLCAS      S      EKIN      POT      H0       H01  
                                         1080     1600   
                                         AOSYM     SMH  

 PROGRAMS   *        TOTAL       INT
 CPU TIMES  *         7.30      6.81
 REAL TIME  *         9.50 SEC
 DISK USED  *       267.36 MB      
 GA USED    *         0.00 MB       (max)       0.00 MB       (current)
 **********************************************************************************************************************************

 Density functional group PBE0=PBEX+PBEC
 Functional: PBEX(Automatically generated (new) PBEX)                          Gradient terms: 1
 Functional: PBEC(Automatically generated (new) PBEC)                          Gradient terms: 1
 Use grid at  1800.2
 

 Exact exchange will be calculated, factor:  0.2500

 Functional: PBEX                      Factor:  0.7500
 Functional: PBEC                      Factor:  1.0000
 
 Generated new metagrid on record  1800.2 with target accuracy 1.0D-06 and 4054 points in CPU time    0.0
 Computed new grid on record 1800.1 in CPU time    0.0
  133744 words reserved for DFT integration

 PROGRAM * RKS-SCF (Restricted open shell Kohn-Sham)     Authors: W. Meyer, H.-J. Werner, P.J. Knowles, 1993

 NUMBER OF ELECTRONS:      24+   23-    SPACE SYMMETRY=1    SPIN SYMMETRY: Doublet 
 CONVERGENCE THRESHOLDS:    1.00E-05 (Density)    1.00E-06 (Energy)
 MAX. NUMBER OF ITERATIONS:       60
 INTERPOLATION TYPE:            DIIS
 INTERPOLATION STEPS:              2 (START)      1 (STEP)
 LEVEL SHIFTS:                 -0.60 (CLOSED) -0.30 (OPEN) 

 Number of closed-shell orbitals:   23 (  11   5   5   2 )
 Number of open-shell orbitals:      1 (   1   0   0   0 )


 Use fine grid record 1800.2 for energy threshold  1.0D-06
 Orbital guess generated from atomic densities. Full valence occupancy:   13   5   5   2

 Molecular orbital dump at record        2100.2

 ITERATION    DDIFF          GRAD             ENERGY        2-EL.EN.            DIPOLE MOMENTS         DIIS   ORB.
    1      0.000D+00      0.000D+00     -5022.09115167   3515.702548    0.00000    0.00000   -3.71146    0    start
    2      0.000D+00      0.831D-01     -5034.67716341   4459.529605    0.00000    0.00000    2.25800    1    diag,B
    3      0.327D+01      0.180D+00     -5040.77058306   4325.949654    0.00000    0.00000    1.55810    2    diag,B
    4      0.292D-01      0.102D+00     -5044.05825916   4220.378654    0.00000    0.00000    0.70168    3    diag,B
    5      0.223D-01      0.538D-01     -5045.26030146   4147.781667    0.00000    0.00000   -0.09351    4    diag,B
    6      0.159D-01      0.242D-01     -5045.63056486   4088.733501    0.00000    0.00000   -0.74065    5    diag,B
    7      0.113D-01      0.291D-02     -5045.64934293   4077.066059    0.00000    0.00000   -0.94666    6    fixocc
    8      0.619D-02      0.157D-02     -5045.65310605   4077.100114    0.00000    0.00000   -0.90431    7    diag,B
    9      0.211D-02      0.944D-03     -5045.65543033   4076.926098    0.00000    0.00000   -0.88883    8    diag,B
   10      0.189D-02      0.508D-03     -5045.65646948   4077.346244    0.00000    0.00000   -0.85116    9    orth
   11      0.135D-02      0.149D-03     -5045.65686941   4077.348745    0.00000    0.00000   -0.81665    9    diag,B
   12      0.760D-03      0.595D-04     -5045.65690495   4077.229429    0.00000    0.00000   -0.81130    9    diag,B
   13      0.358D-03      0.237D-04     -5045.65691123   4077.166994    0.00000    0.00000   -0.80847    9    diag,B
   14      0.192D-03      0.775D-05     -5045.65691186   4077.161842    0.00000    0.00000   -0.80764    9    diag,B
   15      0.547D-04      0.222D-05     -5045.65691190   4077.161597    0.00000    0.00000   -0.80744    9    diag,B
   16      0.340D-04      0.102D-05     -5045.65691192   4077.162041    0.00000    0.00000   -0.80729    9    diag,B
   17      0.771D-05      0.597D-06     -5045.65691192   4077.161454    0.00000    0.00000   -0.80727    0    orth

 Final alpha occupancy:  12   5   5   2
 Final beta  occupancy:  11   5   5   2

 !RKS STATE 1.1 Energy              -5045.656911918455
 Nuclear energy                        15.92030850
 One-electron energy                -6990.53767667
 Two-electron energy                 2038.58072716
 Density functional                  -109.62027091     PBEX=-142.91880150 PBEC=  -2.43116979
 Virial quotient                       -0.88628270
 !RKS STATE 1.1 Dipole moment           0.00000000     0.00000000    -0.80726613
 Dipole moment /Debye                   0.00000000     0.00000000    -2.05173146

 Orbital energies:

         1.1          2.1          3.1          4.1          5.1          6.1          7.1          8.1          9.1         10.1
   -889.925886  -130.800324  -117.268326   -23.994137   -19.517037   -12.369687   -12.357569    -3.407855    -2.119768    -0.359175

        11.1         12.1         13.1         14.1
     -0.261808    -0.229973    -0.059240     0.014464

         1.2          2.2          3.2          4.2          5.2          6.2          7.2
   -117.262083   -19.502057   -12.366644    -2.097683    -0.279339    -0.008558     0.040719

         1.3          2.3          3.3          4.3          5.3          6.3          7.3
   -117.262083   -19.502057   -12.366644    -2.097683    -0.279339    -0.008558     0.040719

         1.4          2.4          3.4          4.4
    -12.357567    -0.261809     0.070893     0.263756

 HOMO     12.1    -0.229973 =      -6.2579eV
 LUMO     13.1    -0.059240 =      -1.6120eV
 LUMO-HOMO         0.170733 =       4.6459eV


 **********************************************************************************************************************************
 DATASETS  * FILE   NREC   LENGTH (MB)   RECORD NAMES
              1      23       20.70       500      610      700      900      950      970     1000      129      960     1700   
                                          VAR    BASINP    GEOM    SYMINP    ZMAT    AOBASIS   BASIS     P2S    ABASIS    OPER   
                                         1101     1401     1411     1412     1650     1100     1400     1410     1200     1210   
                                          SR      EKINR    POTR     PVPR    MOLCAS      S      EKIN      POT      H0       H01  
                                         1080     1600     1800   
                                         AOSYM     SMH     GRID   

              2       5        3.01       700     1000      520     1800     2100   
                                         GEOM     BASIS   MCVARS    GRID      RKS  

 PROGRAMS   *        TOTAL       RKS       INT
 CPU TIMES  *         8.58      1.24      6.81
 REAL TIME  *        11.28 SEC
 DISK USED  *       839.20 MB      
 SF USED    *         0.03 MB      
 GA USED    *         0.20 MB       (max)       0.20 MB       (current)
 **********************************************************************************************************************************


 PROGRAM * RHF-SCF (OPEN SHELL)       Authors: W. Meyer, H.-J. Werner


 NUMBER OF ELECTRONS:      24+   23-    SPACE SYMMETRY=1    SPIN SYMMETRY: Doublet 
 CONVERGENCE THRESHOLDS:    1.00E-05 (Density)    1.00E-07 (Energy)
 MAX. NUMBER OF ITERATIONS:       60
 INTERPOLATION TYPE:            DIIS
 INTERPOLATION STEPS:              2 (START)      1 (STEP)
 LEVEL SHIFTS:                 -0.60 (CLOSED) -0.30 (OPEN) 

 Number of closed-shell orbitals:   23 (  11   5   5   2 )
 Number of open-shell orbitals:      1 (   1   0   0   0 )


 Molecular orbitals read from record     2100.2  Type=RKS/CANONICAL (state 1.1)

 Molecular orbital dump at record        2101.2

 ITERATION    DDIFF          GRAD             ENERGY        2-EL.EN.            DIPOLE MOMENTS         DIIS   ORB.
    1      0.000D+00      0.000D+00     -5043.37488586   3862.484965    0.00000    0.00000   -0.80727    0    start
    2      0.000D+00      0.131D-01     -5043.39120246   3862.388251    0.00000    0.00000   -0.93948    1    diag,B
    3      0.791D-02      0.127D-02     -5043.39363042   3863.078082    0.00000    0.00000   -1.02199    2    diag,B
    4      0.118D-02      0.551D-03     -5043.39506344   3862.590133    0.00000    0.00000   -1.11032    3    diag,B
    5      0.735D-03      0.366D-03     -5043.39580416   3862.835136    0.00000    0.00000   -1.16441    4    diag,B
    6      0.482D-03      0.242D-03     -5043.39646697   3862.593368    0.00000    0.00000   -1.23171    5    diag,B
    7      0.591D-03      0.157D-03     -5043.39686406   3862.471631    0.00000    0.00000   -1.28200    6    diag,B
    8      0.584D-03      0.961D-04     -5043.39704259   3862.378747    0.00000    0.00000   -1.30959    7    orth
    9      0.497D-03      0.499D-04     -5043.39708895   3862.324784    0.00000    0.00000   -1.32076    8    diag,B
   10      0.286D-03      0.208D-04     -5043.39709415   3862.304885    0.00000    0.00000   -1.32397    9    diag,B
   11      0.853D-04      0.106D-04     -5043.39709505   3862.304420    0.00000    0.00000   -1.32478    9    diag,B
   12      0.641D-04      0.367D-05     -5043.39709513   3862.302859    0.00000    0.00000   -1.32495    9    diag,B
   13      0.206D-04      0.162D-05     -5043.39709514   3862.303036    0.00000    0.00000   -1.32503    9    diag,B
   14      0.136D-04      0.614D-06     -5043.39709515   3862.302787    0.00000    0.00000   -1.32510    9    diag,B
   15      0.608D-05      0.232D-06     -5043.39709515   3862.302743    0.00000    0.00000   -1.32511    0    orth

 Final alpha occupancy:  12   5   5   2
 Final beta  occupancy:  11   5   5   2

 !RHF STATE 1.1 Energy              -5043.397095146891
 Nuclear energy                        15.92030850
 One-electron energy                -6990.46877532
 Two-electron energy                 1931.15137167
 Virial quotient                       -0.88564113
 !RHF STATE 1.1 Dipole moment           0.00000000     0.00000000    -1.32511402
 Dipole moment /Debye                   0.00000000     0.00000000    -3.36788328

 Orbital energies:

         1.1          2.1          3.1          4.1          5.1          6.1          7.1          8.1          9.1         10.1
   -899.549828  -134.508527  -120.402300   -25.661533   -20.906348   -13.317448   -13.316798    -3.964278    -2.520457    -0.441948

        11.1         12.1         13.1         14.1
     -0.422782    -0.363568     0.005152     0.030020

         1.2          2.2          3.2          4.2          5.2          6.2          7.2
   -120.397635   -20.889873   -13.327580    -2.513432    -0.446176     0.023997     0.080964

         1.3          2.3          3.3          4.3          5.3          6.3          7.3
   -120.397635   -20.889873   -13.327580    -2.513432    -0.446176     0.023997     0.080964

         1.4          2.4          3.4          4.4
    -13.316798    -0.422782     0.098966     0.335002

 HOMO     12.1    -0.363568 =      -9.8932eV
 LUMO     13.1     0.005152 =       0.1402eV
 LUMO-HOMO         0.368721 =      10.0334eV


 **********************************************************************************************************************************
 DATASETS  * FILE   NREC   LENGTH (MB)   RECORD NAMES
              1      23       20.70       500      610      700      900      950      970     1000      129      960     1700   
                                          VAR    BASINP    GEOM    SYMINP    ZMAT    AOBASIS   BASIS     P2S    ABASIS    OPER   
                                         1101     1401     1411     1412     1650     1100     1400     1410     1200     1210   
                                          SR      EKINR    POTR     PVPR    MOLCAS      S      EKIN      POT      H0       H01  
                                         1080     1600     1800   
                                         AOSYM     SMH     GRID   

              2       6        5.80       700     1000      520     1800     2100     2101   
                                         GEOM     BASIS   MCVARS    GRID      RKS      RHF  

 PROGRAMS   *        TOTAL       RHF       RKS       INT
 CPU TIMES  *         9.50      0.92      1.24      6.81
 REAL TIME  *        12.44 SEC
 DISK USED  *       903.45 MB      
 SF USED    *         0.03 MB      
 GA USED    *         0.20 MB       (max)       0.20 MB       (current)
 **********************************************************************************************************************************
 SETTING BASIS          =    USERDEF


 Recomputing integrals since basis changed


 Using spherical harmonics



 PROGRAM * SEWARD (Integral evaluation for generally contracted gaussian basis sets)     Author: Roland Lindh, 1990

 Geometry written to block  1 of record 700


 Point group  C2v 



 ATOMIC COORDINATES

 NR  ATOM    CHARGE       X              Y              Z

   1  PD     46.00    0.000000000    0.000000000    0.000000000
   2  H       1.00    0.000000000    0.000000000    2.889391244

 Bond lengths in Bohr (Angstrom)

 1-2  2.889391244
     ( 1.529000000)

 NUCLEAR CHARGE:                   47
 NUMBER OF PRIMITIVE AOS:         312
 NUMBER OF SYMMETRY AOS:          263
 NUMBER OF CONTRACTIONS:          263   ( 116A1  +  59B1  +  59B2  +  29A2  )
 NUMBER OF CORE ORBITALS:          18   (   9A1  +   4B1  +   4B2  +   1A2  )
 NUMBER OF VALENCE ORBITALS:        7   (   4A1  +   1B1  +   1B2  +   1A2  )


 NUCLEAR REPULSION ENERGY   15.92030850

 One-electron integrals computed with SEWARD

 10nd-order Douglas-Kroll-Hess method activated. McWeeny DKH parametrization is used.

 Computing Douglas-Kroll / X2C integrals

 AO integral compression algorithm  1   Integral accuracy      1.0D-12

     504.627 MB (compressed) written to integral file ( 36.8%)

     Node minimum: 6.291 MB, node maximum: 54.264 MB


 NUMBER OF SORTED TWO-ELECTRON INTEGRALS:    6738189.     BUFFER LENGTH:  32768
 NUMBER OF SEGMENTS:   1  SEGMENT LENGTH:    6738189      RECORD LENGTH: 524288

 Memory used in sort:       7.30 MW

 SORT1 READ   171363336. AND WROTE     2745844. INTEGRALS IN      8 RECORDS. CPU TIME:     5.94 SEC, REAL TIME:     6.64 SEC
 SORT2 READ    64742788. AND WROTE   156329493. INTEGRALS IN    552 RECORDS. CPU TIME:     0.18 SEC, REAL TIME:     0.74 SEC

 Node minimum:     6738189.  Node maximum:     6815662. integrals

 OPERATOR DM      FOR CENTER  0  COORDINATES:    0.000000    0.000000    0.000000

 EXTRA SYMMETRY OF AOS IN SYMMETRY 1:   1 1 1 1 1 1 1 1 1 1   1 1 1 1 1 1 1 1 1 1   1 1 1 1 1 1 1 1 1 1   1 1 1 1 1 1 1 1 1 1
                                        1 1 1 1 1 1 1 1 1 1   1 1 1 2 1 2 1 2 1 2   1 2 1 2 1 2 1 2 1 2   1 2 1 2 1 2 1 2 1 2
                                        1 2 1 2 1 2 1 2 1 2   1 2 1 2 1 3 2 1 3 2   1 3 2 1 1 1 1 1 1 1   1 1 1 2 1 2
 EXTRA SYMMETRY OF AOS IN SYMMETRY 2:   1 1 1 1 1 1 1 1 1 1   1 1 1 1 1 1 1 1 1 1   1 1 1 1 1 1 1 1 1 1   1 1 1 1 1 1 1 1 1 1
                                        1 2 1 2 1 2 1 2 1 2   1 2 1 2 1 1 1 1 1
 EXTRA SYMMETRY OF AOS IN SYMMETRY 3:   1 1 1 1 1 1 1 1 1 1   1 1 1 1 1 1 1 1 1 1   1 1 1 1 1 1 1 1 1 1   1 1 1 1 1 1 1 1 1 1
                                        1 2 1 2 1 2 1 2 1 2   1 2 1 2 1 1 1 1 1
 EXTRA SYMMETRY OF AOS IN SYMMETRY 4:   1 1 1 1 1 1 1 1 1 1   1 1 1 1 1 1 1 1 1 1   1 1 2 1 2 1 2 1 1

 Eigenvalues of metric

         1 0.922E-06 0.192E-05 0.893E-05 0.951E-05 0.273E-04 0.118E-03 0.157E-03 0.271E-03
         2 0.982E-06 0.947E-05 0.304E-03 0.471E-03 0.163E-02 0.301E-02 0.405E-02 0.926E-02
         3 0.982E-06 0.947E-05 0.304E-03 0.471E-03 0.163E-02 0.301E-02 0.405E-02 0.926E-02
         4 0.951E-05 0.307E-03 0.302E-02 0.107E-01 0.287E-01 0.529E-01 0.858E-01 0.105E+00


 **********************************************************************************************************************************
 DATASETS  * FILE   NREC   LENGTH (MB)   RECORD NAMES
              1      22       21.38       500      610      700      900      950      970     1001      129      960     1700   
                                          VAR    BASINP    GEOM    SYMINP    ZMAT    AOBASIS   BASIS     P2S    ABASIS    OPER   
                                         1101     1401     1411     1412     1650     1100     1400     1410     1200     1210   
                                          SR      EKINR    POTR     PVPR    MOLCAS      S      EKIN      POT      H0       H01  
                                         1080     1600   
                                         AOSYM     SMH  

              2       7        5.94       700     1000      520     1800     2100     2101     1001   
                                         GEOM     BASIS   MCVARS    GRID      RKS      RHF     BASIS   

 PROGRAMS   *        TOTAL       INT       RHF       RKS       INT
 CPU TIMES  *        33.76     24.26      0.92      1.24      6.81
 REAL TIME  *        39.20 SEC
 DISK USED  *         1.93 GB      
 SF USED    *         0.03 MB      
 GA USED    *         0.20 MB       (max)       0.00 MB       (current)
 **********************************************************************************************************************************


 PROGRAM * RHF-SCF (OPEN SHELL)       Authors: W. Meyer, H.-J. Werner


 NUMBER OF ELECTRONS:      24+   23-    SPACE SYMMETRY=1    SPIN SYMMETRY: Doublet 
 CONVERGENCE THRESHOLDS:    1.00E-05 (Density)    1.00E-07 (Energy)
 MAX. NUMBER OF ITERATIONS:       60
 INTERPOLATION TYPE:            DIIS
 INTERPOLATION STEPS:              2 (START)      1 (STEP)
 LEVEL SHIFTS:                 -0.60 (CLOSED) -0.30 (OPEN) 

 Number of closed-shell orbitals:   23 (  11   5   5   2 )
 Number of open-shell orbitals:      1 (   1   0   0   0 )


 Molecular orbitals read from record     2101.2  Type=RHF/CANONICAL (state 1.1)
 
 Present basis size:     116  59  59  29
 Previous basis size:     65  37  37  20
 Previous occupation:     12   5   5   2
 Previous closed-shells:  11   5   5   2
 Previous core-orbitals:   9   4   4   1
 Present occupation:      12   5   5   2
 Present closed-shells:   11   5   5   2
 Present core-orbitals:    9   4   4   1
 Wavefunction symmetry:    1   Doublet 

 Orbital overlap <old|new>:  < 1.1| 1.1> = 1.000000   < 2.1| 2.1> = 1.000000   < 3.1| 3.1> = 1.000000   < 4.1| 4.1> = 1.000000
                             < 5.1| 5.1> = 1.000000   < 6.1| 6.1> = 1.000000   < 7.1| 7.1> = 1.000000   < 8.1| 8.1> = 1.000000
                             < 9.1| 9.1> = 1.000000   < 1.2| 1.2> = 1.000000   < 2.2| 2.2> = 1.000000   < 3.2| 3.2> = 1.000000
                             < 4.2| 4.2> = 1.000000   < 1.3| 1.3> = 1.000000   < 2.3| 2.3> = 1.000000   < 3.3| 3.3> = 1.000000
                             < 4.3| 4.3> = 1.000000   < 1.4| 1.4> = 1.000000   <10.1|10.1> = 1.000000   <11.1|11.1> = 1.000000
                             < 5.2| 5.2> = 1.000000   < 5.3| 5.3> = 1.000000   < 2.4| 2.4> = 1.000000   <12.1|12.1> = 1.000000

 Molecular orbital dump at record        2102.2

 ITERATION    DDIFF          GRAD             ENERGY        2-EL.EN.            DIPOLE MOMENTS         DIIS   ORB.
    1      0.000D+00      0.000D+00     -5043.39709424   3862.302742    0.00000    0.00000   -1.32511    0    start
    2      0.000D+00      0.669D-01     -5043.39765205   3862.350608    0.00000    0.00000   -1.32512    1    diag,B
    3      0.362D-02      0.106D-03     -5043.39765298   3862.340147    0.00000    0.00000   -1.32519    2    diag,B
    4      0.215D-03      0.796D-05     -5043.39765305   3862.345513    0.00000    0.00000   -1.32520    3    diag,B
    5      0.634D-04      0.240D-05     -5043.39765306   3862.342767    0.00000    0.00000   -1.32522    4    diag,B
    6      0.300D-04      0.992D-06     -5043.39765306   3862.344092    0.00000    0.00000   -1.32522    5    diag,B
    7      0.179D-04      0.356D-06     -5043.39765306   3862.343626    0.00000    0.00000   -1.32523    6    diag,B
    8      0.960D-05      0.140D-06     -5043.39765306   3862.343761    0.00000    0.00000   -1.32523    0    orth

 Final alpha occupancy:  12   5   5   2
 Final beta  occupancy:  11   5   5   2

 !RHF STATE 1.1 Energy              -5043.397653062837
 Nuclear energy                        15.92030850
 One-electron energy                -6990.48984226
 Two-electron energy                 1931.17188070
 Virial quotient                       -0.88521201
 !RHF STATE 1.1 Dipole moment           0.00000000     0.00000000    -1.32523212
 Dipole moment /Debye                   0.00000000     0.00000000    -3.36818346

 Orbital energies:

         1.1          2.1          3.1          4.1          5.1          6.1          7.1          8.1          9.1         10.1
   -899.543162  -134.508112  -120.401313   -25.661550   -20.906262   -13.317486   -13.316864    -3.964279    -2.520441    -0.441983

        11.1         12.1         13.1         14.1
     -0.422789    -0.363583     0.005140     0.029989

         1.2          2.2          3.2          4.2          5.2          6.2          7.2
   -120.396670   -20.889793   -13.327632    -2.513419    -0.446181     0.023978     0.080848

         1.3          2.3          3.3          4.3          5.3          6.3          7.3
   -120.396670   -20.889793   -13.327632    -2.513419    -0.446181     0.023978     0.080848

         1.4          2.4          3.4          4.4
    -13.316864    -0.422789     0.098157     0.326932

 HOMO     12.1    -0.363583 =      -9.8936eV
 LUMO     13.1     0.005140 =       0.1399eV
 LUMO-HOMO         0.368723 =      10.0335eV


 **********************************************************************************************************************************
 DATASETS  * FILE   NREC   LENGTH (MB)   RECORD NAMES
              1      22       21.38       500      610      700      900      950      970     1001      129      960     1700   
                                          VAR    BASINP    GEOM    SYMINP    ZMAT    AOBASIS   BASIS     P2S    ABASIS    OPER   
                                         1101     1401     1411     1412     1650     1100     1400     1410     1200     1210   
                                          SR      EKINR    POTR     PVPR    MOLCAS      S      EKIN      POT      H0       H01  
                                         1080     1600   
                                         AOSYM     SMH  

              2       8        9.03       700     1000      520     1800     2100     2101     1001     2102   
                                         GEOM     BASIS   MCVARS    GRID      RKS      RHF     BASIS     RHF  

 PROGRAMS   *        TOTAL       RHF       INT       RHF       RKS       INT
 CPU TIMES  *        34.71      0.95     24.26      0.92      1.24      6.81
 REAL TIME  *        40.30 SEC
 DISK USED  *         2.06 GB      
 SF USED    *         0.09 MB      
 GA USED    *         0.20 MB       (max)       0.00 MB       (current)
 **********************************************************************************************************************************
 SETTING E_PD           =     -5044.36637900                                  
 SETTING E_H            =        -0.49982785                                  
 SETTING SCF            =     -5043.39765306  AU                              
 SETTING _CC_NORM_MAX   =         2.00000000                                  


 PROGRAM * CCSD (Restricted open-shell coupled cluster)     Authors: C. Hampel, H.-J. Werner, 1991, M. Deegan, P.J. Knowles, 1992


 Convergence thresholds:  THRVAR = 1.00D-08  THRDEN = 1.00D-06

 CCSD(T)     terms to be evaluated (factor= 1.000)


 Number of closed-shell orbitals:  23 (  11   5   5   2 )
 Number of active  orbitals:        1 (   1   0   0   0 )
 Number of external orbitals:     239 ( 104  54  54  27 )

 Memory could be reduced to 156.26 Mwords without degradation in triples

 Number of N-1 electron functions:              47
 Number of N-2 electron functions:            1081
 Number of singly external CSFs:              3603
 Number of doubly external CSFs:          12114663
 Total number of CSFs:                    12118266

 Molecular orbitals read from record     2102.2  Type=RHF/CANONICAL (state 1.1)

 Integral transformation finished. Total CPU:   7.96 sec, npass=  1  Memory used:  16.31 MW

 Starting RMP2 calculation

 Wavefunction is spin-projected

 ITER.      SQ.NORM     CORR.ENERGY   TOTAL ENERGY   ENERGY CHANGE        DEN1      VAR(S)    VAR(P)  DIIS     TIME
   1      1.15915256    -1.60081410 -5044.99846716    -1.60081410    -0.00137069  0.17D-04  0.54D-03  1  1    20.57
   2      1.16050478    -1.60226671 -5044.99991977    -0.00145261    -0.00000758  0.86D-06  0.45D-05  2  2    32.56
   3      1.16061622    -1.60233139 -5044.99998446    -0.00006468    -0.00000007  0.28D-07  0.39D-07  3  3    39.83
   4      1.16062113    -1.60233230 -5044.99998536    -0.00000091    -0.00000000  0.57D-09  0.40D-09  4  4    52.16

 Norm of t1 vector:      0.03003661      S-energy:    -0.00220548      T1 diagnostic:  0.00048313
 Norm of t2 vector:      0.39964851      P-energy:    -1.60012682
                                         Alpha-Beta:  -1.07938576
                                         Alpha-Alpha: -0.27091286
                                         Beta-Beta:   -0.24982819

 Spin contamination <S**2-Sz**2-Sz>     0.00000000
  Reference energy                  -5043.397653062836
  RHF-RMP2 correlation energy          -1.602332298459
 !RHF-RMP2 energy                   -5044.999985361295
 (NB above energy spin projected)

 Starting RCCSD calculation

 ITER.      SQ.NORM     CORR.ENERGY   TOTAL ENERGY   ENERGY CHANGE        DEN1      VAR(S)    VAR(P)  DIIS     TIME
   1      1.13218143    -1.49313275 -5044.89078582    -1.49313275    -0.03213669  0.62D-02  0.44D-02  0  0    83.29
   2      1.14940210    -1.52292838 -5044.92058145    -0.02979563    -0.00284851  0.52D-03  0.82D-03  1  1   120.79
   3      1.15454902    -1.51999807 -5044.91765113     0.00293032    -0.00067572  0.68D-03  0.87D-04  2  2   179.52
   4      1.16392697    -1.52210135 -5044.91975441    -0.00210329    -0.00024514  0.26D-03  0.33D-04  3  3   225.59
   5      1.17583259    -1.52369765 -5044.92135071    -0.00159630    -0.00006749  0.71D-04  0.99D-05  4  4   262.32
   6      1.18277746    -1.52410078 -5044.92175385    -0.00040314    -0.00001571  0.17D-04  0.23D-05  5  5   299.00
   7      1.18699418    -1.52434800 -5044.92200106    -0.00024722    -0.00000377  0.39D-05  0.56D-06  6  6   340.98
   8      1.18739210    -1.52433254 -5044.92198560     0.00001546    -0.00000089  0.75D-06  0.18D-06  6  1   383.73
   9      1.18824074    -1.52439330 -5044.92204636    -0.00006076    -0.00000020  0.17D-06  0.41D-07  6  3   419.97
  10      1.18820229    -1.52438920 -5044.92204226     0.00000410    -0.00000004  0.42D-07  0.71D-08  6  2   464.50
  11      1.18822731    -1.52438976 -5044.92204282    -0.00000056    -0.00000002  0.15D-07  0.23D-08  6  4   506.36
  12      1.18820017    -1.52438442 -5044.92203748     0.00000534    -0.00000001  0.48D-08  0.11D-08  6  3   546.17
  13      1.18819333    -1.52438188 -5044.92203495     0.00000254    -0.00000000  0.85D-09  0.19D-09  6  6   585.18
  14      1.18819609    -1.52438190 -5044.92203497    -0.00000002    -0.00000000  0.27D-09  0.69D-10  6  5   621.76

 Norm of t1 vector:      0.20226403      S-energy:    -0.00214467      T1 diagnostic:  0.02058663
                                                                       D1 diagnostic:  0.08904827
 Norm of t2 vector:      0.38377774      P-energy:    -1.52223723
                                         Alpha-Beta:  -1.05376500
                                         Alpha-Alpha: -0.24278586
                                         Beta-Beta:   -0.22568636

 Singles amplitudes (print threshold =  0.500E-01):

         I         SYM. A    A   T(IA) [Alpha-Alpha]

        12         1         2     -0.06412678
        12         1         4      0.06847537
        12         1         8     -0.05135712
 
         I         SYM. A    A   T(IA) [Beta-Beta]

        10         1         1     -0.12583133

 Spin contamination <S**2-Sz**2-Sz>     0.00000000

 Memory could be reduced to 172.83 Mwords without degradation in triples
 

  Correlated core orbitals:             1.1       2.1       3.1       4.1       5.1       6.1       7.1       8.1       9.1       1.2
                                        2.2       3.2       4.2       1.3       2.3       3.3       4.3       1.4
  Orbital energies:                  -899.5436 -134.5120 -120.4071  -25.6641  -20.9123  -13.3365  -13.3181   -3.9868   -2.5696 -120.3992
                                      -20.8907  -13.3296   -2.5293 -120.3992  -20.8907  -13.3296   -2.5293  -13.3181
 
  RCCSD core-core energy               -0.842296354014
  RCCSD core-valence energy            -0.316133970549
  RCCSD valence correlation energy     -0.365951580101
 

 RESULTS
 =======

  Reference energy                  -5043.397653062836
  RCCSD singles energy                 -0.002144673871
  RCCSD pair energy                    -1.522237230794
  RCCSD correlation energy             -1.524381904665
  Triples (T) contribution             -0.033884520979
  Total correlation energy             -1.558266425644
 
  RHF-RCCSD energy                  -5044.922034967501
  RHF-RCCSD[T] energy               -5044.958296748572
  RHF-RCCSD-T energy                -5044.955688969107
 !RHF-RCCSD(T) energy               -5044.955919488481

 Program statistics:

 Available memory in ccsd:               511995052
 Min. memory needed in ccsd:              33536188
 Max. memory used in ccsd:                49128406
 Max. memory used in cckext:              40408815 (14 integral passes)
 Max. memory used in cckint:              16314950 ( 1 integral passes)



 **********************************************************************************************************************************
 DATASETS  * FILE   NREC   LENGTH (MB)   RECORD NAMES
              1      22       21.38       500      610      700      900      950      970     1001      129      960     1700   
                                          VAR    BASINP    GEOM    SYMINP    ZMAT    AOBASIS   BASIS     P2S    ABASIS    OPER   
                                         1101     1401     1411     1412     1650     1100     1400     1410     1200     1210   
                                          SR      EKINR    POTR     PVPR    MOLCAS      S      EKIN      POT      H0       H01  
                                         1080     1600   
                                         AOSYM     SMH  

              2       8        9.03       700     1000      520     1800     2100     2101     1001     2102   
                                         GEOM     BASIS   MCVARS    GRID      RKS      RHF     BASIS     RHF  

 PROGRAMS   *        TOTAL  RCCSD(T)       RHF       INT       RHF       RKS       INT
 CPU TIMES  *       947.57    912.77      0.95     24.26      0.92      1.24      6.81
 REAL TIME  *      2278.81 SEC
 DISK USED  *        37.43 GB      
 SF USED    *         3.36 GB      
 GA USED    *         0.20 MB       (max)       0.00 MB       (current)
 **********************************************************************************************************************************
 SETTING CCSD           =     -5044.95591949  AU                              
 SETTING BE             =        -0.08971264  AU                              
 Output type csv         
                                                                                                                                                                                                                                                                

         SCF,CCSD,BE
   -5043.397653,   -5044.955919,   -0.08971264
                                                  

 RCCSD(T)/USERDEF energy=  -5044.955919488481

        RCCSD(T)        RHF-SCF         RHF-SCF         RKS-SCF 
  -5044.95591949  -5043.39765306  -5043.39709515  -5045.65691192
 **********************************************************************************************************************************
 Molpro calculation terminated
 Variable memory released
