/global/cscratch1/sd/bkincaid/cutoffs/Pd/250-610/runs/scf_310

     Program PWSCF v.6.4.1 starts on 17Jan2022 at 15:40:45 

     This program is part of the open-source Quantum ESPRESSO suite
     for quantum simulation of materials; please cite
         "P. Giannozzi et al., J. Phys.:Condens. Matter 21 395502 (2009);
         "P. Giannozzi et al., J. Phys.:Condens. Matter 29 465901 (2017);
          URL http://www.quantum-espresso.org", 
     in publications or presentations arising from this work. More details at
     http://www.quantum-espresso.org/quote

     Parallel version (MPI & OpenMP), running on      32 processor cores
     Number of MPI processes:                32
     Threads/MPI process:                     1

     MPI processes distributed on     1 nodes
     R & G space division:  proc/nbgrp/npool/nimage =      32
     Reading input from scf_310.in

     Current dimensions of program PWSCF are:
     Max number of different atomic species (ntypx) = 10
     Max number of k-points (npk) =  40000
     Max angular momentum in pseudopotentials (lmaxx) =  3

     IMPORTANT: XC functional enforced from input :
     Exchange-correlation      = PBE ( 1  4  3  4 0 0)
     Any further DFT definition will be discarded
     Please, verify this is what you really want


     gamma-point specific algorithms are used

     Subspace diagonalization in iterative solution of the eigenvalue problem:
     one sub-group per band group will be used
     scalapack distributed-memory algorithm (size of sub-group:  4*  4 procs)

     Message from routine setup:
     DEPRECATED: symmetry with ibrav=0, use correct ibrav instead
 
     Parallelization info
     --------------------
     sticks:   dense  smooth     PW     G-vecs:    dense   smooth      PW
     Min        1584    1584    396               268684   268684   33572
     Max        1586    1586    398               268694   268694   33584
     Sum       50729   50729  12677              8598039  8598039 1074475
 


     bravais-lattice index     =            0
     lattice parameter (alat)  =      22.6767  a.u.
     unit-cell volume          =   11661.1222 (a.u.)^3
     number of atoms/cell      =            1
     number of atomic types    =            1
     number of electrons       =        18.00 (up:   9.00, down:   9.00)
     number of Kohn-Sham states=           12
     kinetic-energy cutoff     =     310.0000  Ry
     charge density cutoff     =    1240.0000  Ry
     convergence threshold     =      1.0E-06
     mixing beta               =       0.7000
     number of iterations used =            8  plain     mixing
     Exchange-correlation      = PBE ( 1  4  3  4 0 0)

     celldm(1)=  22.676714  celldm(2)=   0.000000  celldm(3)=   0.000000
     celldm(4)=   0.000000  celldm(5)=   0.000000  celldm(6)=   0.000000

     crystal axes: (cart. coord. in units of alat)
               a(1) = (   1.000000   0.000000   0.000000 )  
               a(2) = (   0.000000   1.000000   0.000000 )  
               a(3) = (   0.000000   0.000000   1.000000 )  

     reciprocal axes: (cart. coord. in units 2 pi/alat)
               b(1) = (  1.000000  0.000000  0.000000 )  
               b(2) = (  0.000000  1.000000  0.000000 )  
               b(3) = (  0.000000  0.000000  1.000000 )  


     PseudoPot. # 1 for Pd read from file:
     ./Pd.upf
     MD5 check sum: 2db6b29890942ac22920366b342684d2
     Pseudo is Norm-conserving, Zval = 18.0
     Generated by new atomic code, or converted to UPF format
     Using radial grid of 1174 points,  2 beta functions with: 
                l(1) =   0
                l(2) =   2

     atomic species   valence    mass     pseudopotential
        Pd            18.00   106.42000     Pd( 1.00)

     Starting magnetic structure 
     atomic species   magnetization
        Pd           0.500

     48 Sym. Ops., with inversion, found


                                    s                        frac. trans.

      isym =  1     identity                                     

 cryst.   s( 1) = (     1          0          0      )
                  (     0          1          0      )
                  (     0          0          1      )

 cart.    s( 1) = (  1.0000000  0.0000000  0.0000000 )
                  (  0.0000000  1.0000000  0.0000000 )
                  (  0.0000000  0.0000000  1.0000000 )


      isym =  2     180 deg rotation - cart. axis [0,0,1]        

 cryst.   s( 2) = (    -1          0          0      )
                  (     0         -1          0      )
                  (     0          0          1      )

 cart.    s( 2) = ( -1.0000000  0.0000000  0.0000000 )
                  (  0.0000000 -1.0000000  0.0000000 )
                  (  0.0000000  0.0000000  1.0000000 )


      isym =  3     180 deg rotation - cart. axis [0,1,0]        

 cryst.   s( 3) = (    -1          0          0      )
                  (     0          1          0      )
                  (     0          0         -1      )

 cart.    s( 3) = ( -1.0000000  0.0000000  0.0000000 )
                  (  0.0000000  1.0000000  0.0000000 )
                  (  0.0000000  0.0000000 -1.0000000 )


      isym =  4     180 deg rotation - cart. axis [1,0,0]        

 cryst.   s( 4) = (     1          0          0      )
                  (     0         -1          0      )
                  (     0          0         -1      )

 cart.    s( 4) = (  1.0000000  0.0000000  0.0000000 )
                  (  0.0000000 -1.0000000  0.0000000 )
                  (  0.0000000  0.0000000 -1.0000000 )


      isym =  5     180 deg rotation - cart. axis [1,1,0]        

 cryst.   s( 5) = (     0          1          0      )
                  (     1          0          0      )
                  (     0          0         -1      )

 cart.    s( 5) = (  0.0000000  1.0000000  0.0000000 )
                  (  1.0000000  0.0000000  0.0000000 )
                  (  0.0000000  0.0000000 -1.0000000 )


      isym =  6     180 deg rotation - cart. axis [1,-1,0]       

 cryst.   s( 6) = (     0         -1          0      )
                  (    -1          0          0      )
                  (     0          0         -1      )

 cart.    s( 6) = (  0.0000000 -1.0000000  0.0000000 )
                  ( -1.0000000  0.0000000  0.0000000 )
                  (  0.0000000  0.0000000 -1.0000000 )


      isym =  7      90 deg rotation - cart. axis [0,0,-1]       

 cryst.   s( 7) = (     0         -1          0      )
                  (     1          0          0      )
                  (     0          0          1      )

 cart.    s( 7) = (  0.0000000  1.0000000  0.0000000 )
                  ( -1.0000000  0.0000000  0.0000000 )
                  (  0.0000000  0.0000000  1.0000000 )


      isym =  8      90 deg rotation - cart. axis [0,0,1]        

 cryst.   s( 8) = (     0          1          0      )
                  (    -1          0          0      )
                  (     0          0          1      )

 cart.    s( 8) = (  0.0000000 -1.0000000  0.0000000 )
                  (  1.0000000  0.0000000  0.0000000 )
                  (  0.0000000  0.0000000  1.0000000 )


      isym =  9     180 deg rotation - cart. axis [1,0,1]        

 cryst.   s( 9) = (     0          0          1      )
                  (     0         -1          0      )
                  (     1          0          0      )

 cart.    s( 9) = (  0.0000000  0.0000000  1.0000000 )
                  (  0.0000000 -1.0000000  0.0000000 )
                  (  1.0000000  0.0000000  0.0000000 )


      isym = 10     180 deg rotation - cart. axis [-1,0,1]       

 cryst.   s(10) = (     0          0         -1      )
                  (     0         -1          0      )
                  (    -1          0          0      )

 cart.    s(10) = (  0.0000000  0.0000000 -1.0000000 )
                  (  0.0000000 -1.0000000  0.0000000 )
                  ( -1.0000000  0.0000000  0.0000000 )


      isym = 11      90 deg rotation - cart. axis [0,1,0]        

 cryst.   s(11) = (     0          0         -1      )
                  (     0          1          0      )
                  (     1          0          0      )

 cart.    s(11) = (  0.0000000  0.0000000  1.0000000 )
                  (  0.0000000  1.0000000  0.0000000 )
                  ( -1.0000000  0.0000000  0.0000000 )


      isym = 12      90 deg rotation - cart. axis [0,-1,0]       

 cryst.   s(12) = (     0          0          1      )
                  (     0          1          0      )
                  (    -1          0          0      )

 cart.    s(12) = (  0.0000000  0.0000000 -1.0000000 )
                  (  0.0000000  1.0000000  0.0000000 )
                  (  1.0000000  0.0000000  0.0000000 )


      isym = 13     180 deg rotation - cart. axis [0,1,1]        

 cryst.   s(13) = (    -1          0          0      )
                  (     0          0          1      )
                  (     0          1          0      )

 cart.    s(13) = ( -1.0000000  0.0000000  0.0000000 )
                  (  0.0000000  0.0000000  1.0000000 )
                  (  0.0000000  1.0000000  0.0000000 )


      isym = 14     180 deg rotation - cart. axis [0,1,-1]       

 cryst.   s(14) = (    -1          0          0      )
                  (     0          0         -1      )
                  (     0         -1          0      )

 cart.    s(14) = ( -1.0000000  0.0000000  0.0000000 )
                  (  0.0000000  0.0000000 -1.0000000 )
                  (  0.0000000 -1.0000000  0.0000000 )


      isym = 15      90 deg rotation - cart. axis [-1,0,0]       

 cryst.   s(15) = (     1          0          0      )
                  (     0          0         -1      )
                  (     0          1          0      )

 cart.    s(15) = (  1.0000000  0.0000000  0.0000000 )
                  (  0.0000000  0.0000000  1.0000000 )
                  (  0.0000000 -1.0000000  0.0000000 )


      isym = 16      90 deg rotation - cart. axis [1,0,0]        

 cryst.   s(16) = (     1          0          0      )
                  (     0          0          1      )
                  (     0         -1          0      )

 cart.    s(16) = (  1.0000000  0.0000000  0.0000000 )
                  (  0.0000000  0.0000000 -1.0000000 )
                  (  0.0000000  1.0000000  0.0000000 )


      isym = 17     120 deg rotation - cart. axis [-1,-1,-1]     

 cryst.   s(17) = (     0          0          1      )
                  (     1          0          0      )
                  (     0          1          0      )

 cart.    s(17) = (  0.0000000  1.0000000  0.0000000 )
                  (  0.0000000  0.0000000  1.0000000 )
                  (  1.0000000  0.0000000  0.0000000 )


      isym = 18     120 deg rotation - cart. axis [-1,1,1]       

 cryst.   s(18) = (     0          0         -1      )
                  (    -1          0          0      )
                  (     0          1          0      )

 cart.    s(18) = (  0.0000000 -1.0000000  0.0000000 )
                  (  0.0000000  0.0000000  1.0000000 )
                  ( -1.0000000  0.0000000  0.0000000 )


      isym = 19     120 deg rotation - cart. axis [1,1,-1]       

 cryst.   s(19) = (     0          0         -1      )
                  (     1          0          0      )
                  (     0         -1          0      )

 cart.    s(19) = (  0.0000000  1.0000000  0.0000000 )
                  (  0.0000000  0.0000000 -1.0000000 )
                  ( -1.0000000  0.0000000  0.0000000 )


      isym = 20     120 deg rotation - cart. axis [1,-1,1]       

 cryst.   s(20) = (     0          0          1      )
                  (    -1          0          0      )
                  (     0         -1          0      )

 cart.    s(20) = (  0.0000000 -1.0000000  0.0000000 )
                  (  0.0000000  0.0000000 -1.0000000 )
                  (  1.0000000  0.0000000  0.0000000 )


      isym = 21     120 deg rotation - cart. axis [1,1,1]        

 cryst.   s(21) = (     0          1          0      )
                  (     0          0          1      )
                  (     1          0          0      )

 cart.    s(21) = (  0.0000000  0.0000000  1.0000000 )
                  (  1.0000000  0.0000000  0.0000000 )
                  (  0.0000000  1.0000000  0.0000000 )


      isym = 22     120 deg rotation - cart. axis [-1,1,-1]      

 cryst.   s(22) = (     0         -1          0      )
                  (     0          0         -1      )
                  (     1          0          0      )

 cart.    s(22) = (  0.0000000  0.0000000  1.0000000 )
                  ( -1.0000000  0.0000000  0.0000000 )
                  (  0.0000000 -1.0000000  0.0000000 )


      isym = 23     120 deg rotation - cart. axis [1,-1,-1]      

 cryst.   s(23) = (     0         -1          0      )
                  (     0          0          1      )
                  (    -1          0          0      )

 cart.    s(23) = (  0.0000000  0.0000000 -1.0000000 )
                  ( -1.0000000  0.0000000  0.0000000 )
                  (  0.0000000  1.0000000  0.0000000 )


      isym = 24     120 deg rotation - cart. axis [-1,-1,1]      

 cryst.   s(24) = (     0          1          0      )
                  (     0          0         -1      )
                  (    -1          0          0      )

 cart.    s(24) = (  0.0000000  0.0000000 -1.0000000 )
                  (  1.0000000  0.0000000  0.0000000 )
                  (  0.0000000 -1.0000000  0.0000000 )


      isym = 25     inversion                                    

 cryst.   s(25) = (    -1          0          0      )
                  (     0         -1          0      )
                  (     0          0         -1      )

 cart.    s(25) = ( -1.0000000  0.0000000  0.0000000 )
                  (  0.0000000 -1.0000000  0.0000000 )
                  (  0.0000000  0.0000000 -1.0000000 )


      isym = 26     inv. 180 deg rotation - cart. axis [0,0,1]   

 cryst.   s(26) = (     1          0          0      )
                  (     0          1          0      )
                  (     0          0         -1      )

 cart.    s(26) = (  1.0000000  0.0000000  0.0000000 )
                  (  0.0000000  1.0000000  0.0000000 )
                  (  0.0000000  0.0000000 -1.0000000 )


      isym = 27     inv. 180 deg rotation - cart. axis [0,1,0]   

 cryst.   s(27) = (     1          0          0      )
                  (     0         -1          0      )
                  (     0          0          1      )

 cart.    s(27) = (  1.0000000  0.0000000  0.0000000 )
                  (  0.0000000 -1.0000000  0.0000000 )
                  (  0.0000000  0.0000000  1.0000000 )


      isym = 28     inv. 180 deg rotation - cart. axis [1,0,0]   

 cryst.   s(28) = (    -1          0          0      )
                  (     0          1          0      )
                  (     0          0          1      )

 cart.    s(28) = ( -1.0000000  0.0000000  0.0000000 )
                  (  0.0000000  1.0000000  0.0000000 )
                  (  0.0000000  0.0000000  1.0000000 )


      isym = 29     inv. 180 deg rotation - cart. axis [1,1,0]   

 cryst.   s(29) = (     0         -1          0      )
                  (    -1          0          0      )
                  (     0          0          1      )

 cart.    s(29) = (  0.0000000 -1.0000000  0.0000000 )
                  ( -1.0000000  0.0000000  0.0000000 )
                  (  0.0000000  0.0000000  1.0000000 )


      isym = 30     inv. 180 deg rotation - cart. axis [1,-1,0]  

 cryst.   s(30) = (     0          1          0      )
                  (     1          0          0      )
                  (     0          0          1      )

 cart.    s(30) = (  0.0000000  1.0000000  0.0000000 )
                  (  1.0000000  0.0000000  0.0000000 )
                  (  0.0000000  0.0000000  1.0000000 )


      isym = 31     inv.  90 deg rotation - cart. axis [0,0,-1]  

 cryst.   s(31) = (     0          1          0      )
                  (    -1          0          0      )
                  (     0          0         -1      )

 cart.    s(31) = (  0.0000000 -1.0000000  0.0000000 )
                  (  1.0000000  0.0000000  0.0000000 )
                  (  0.0000000  0.0000000 -1.0000000 )


      isym = 32     inv.  90 deg rotation - cart. axis [0,0,1]   

 cryst.   s(32) = (     0         -1          0      )
                  (     1          0          0      )
                  (     0          0         -1      )

 cart.    s(32) = (  0.0000000  1.0000000  0.0000000 )
                  ( -1.0000000  0.0000000  0.0000000 )
                  (  0.0000000  0.0000000 -1.0000000 )


      isym = 33     inv. 180 deg rotation - cart. axis [1,0,1]   

 cryst.   s(33) = (     0          0         -1      )
                  (     0          1          0      )
                  (    -1          0          0      )

 cart.    s(33) = (  0.0000000  0.0000000 -1.0000000 )
                  (  0.0000000  1.0000000  0.0000000 )
                  ( -1.0000000  0.0000000  0.0000000 )


      isym = 34     inv. 180 deg rotation - cart. axis [-1,0,1]  

 cryst.   s(34) = (     0          0          1      )
                  (     0          1          0      )
                  (     1          0          0      )

 cart.    s(34) = (  0.0000000  0.0000000  1.0000000 )
                  (  0.0000000  1.0000000  0.0000000 )
                  (  1.0000000  0.0000000  0.0000000 )


      isym = 35     inv.  90 deg rotation - cart. axis [0,1,0]   

 cryst.   s(35) = (     0          0          1      )
                  (     0         -1          0      )
                  (    -1          0          0      )

 cart.    s(35) = (  0.0000000  0.0000000 -1.0000000 )
                  (  0.0000000 -1.0000000  0.0000000 )
                  (  1.0000000  0.0000000  0.0000000 )


      isym = 36     inv.  90 deg rotation - cart. axis [0,-1,0]  

 cryst.   s(36) = (     0          0         -1      )
                  (     0         -1          0      )
                  (     1          0          0      )

 cart.    s(36) = (  0.0000000  0.0000000  1.0000000 )
                  (  0.0000000 -1.0000000  0.0000000 )
                  ( -1.0000000  0.0000000  0.0000000 )


      isym = 37     inv. 180 deg rotation - cart. axis [0,1,1]   

 cryst.   s(37) = (     1          0          0      )
                  (     0          0         -1      )
                  (     0         -1          0      )

 cart.    s(37) = (  1.0000000  0.0000000  0.0000000 )
                  (  0.0000000  0.0000000 -1.0000000 )
                  (  0.0000000 -1.0000000  0.0000000 )


      isym = 38     inv. 180 deg rotation - cart. axis [0,1,-1]  

 cryst.   s(38) = (     1          0          0      )
                  (     0          0          1      )
                  (     0          1          0      )

 cart.    s(38) = (  1.0000000  0.0000000  0.0000000 )
                  (  0.0000000  0.0000000  1.0000000 )
                  (  0.0000000  1.0000000  0.0000000 )


      isym = 39     inv.  90 deg rotation - cart. axis [-1,0,0]  

 cryst.   s(39) = (    -1          0          0      )
                  (     0          0          1      )
                  (     0         -1          0      )

 cart.    s(39) = ( -1.0000000  0.0000000  0.0000000 )
                  (  0.0000000  0.0000000 -1.0000000 )
                  (  0.0000000  1.0000000  0.0000000 )


      isym = 40     inv.  90 deg rotation - cart. axis [1,0,0]   

 cryst.   s(40) = (    -1          0          0      )
                  (     0          0         -1      )
                  (     0          1          0      )

 cart.    s(40) = ( -1.0000000  0.0000000  0.0000000 )
                  (  0.0000000  0.0000000  1.0000000 )
                  (  0.0000000 -1.0000000  0.0000000 )


      isym = 41     inv. 120 deg rotation - cart. axis [-1,-1,-1]

 cryst.   s(41) = (     0          0         -1      )
                  (    -1          0          0      )
                  (     0         -1          0      )

 cart.    s(41) = (  0.0000000 -1.0000000  0.0000000 )
                  (  0.0000000  0.0000000 -1.0000000 )
                  ( -1.0000000  0.0000000  0.0000000 )


      isym = 42     inv. 120 deg rotation - cart. axis [-1,1,1]  

 cryst.   s(42) = (     0          0          1      )
                  (     1          0          0      )
                  (     0         -1          0      )

 cart.    s(42) = (  0.0000000  1.0000000  0.0000000 )
                  (  0.0000000  0.0000000 -1.0000000 )
                  (  1.0000000  0.0000000  0.0000000 )


      isym = 43     inv. 120 deg rotation - cart. axis [1,1,-1]  

 cryst.   s(43) = (     0          0          1      )
                  (    -1          0          0      )
                  (     0          1          0      )

 cart.    s(43) = (  0.0000000 -1.0000000  0.0000000 )
                  (  0.0000000  0.0000000  1.0000000 )
                  (  1.0000000  0.0000000  0.0000000 )


      isym = 44     inv. 120 deg rotation - cart. axis [1,-1,1]  

 cryst.   s(44) = (     0          0         -1      )
                  (     1          0          0      )
                  (     0          1          0      )

 cart.    s(44) = (  0.0000000  1.0000000  0.0000000 )
                  (  0.0000000  0.0000000  1.0000000 )
                  ( -1.0000000  0.0000000  0.0000000 )


      isym = 45     inv. 120 deg rotation - cart. axis [1,1,1]   

 cryst.   s(45) = (     0         -1          0      )
                  (     0          0         -1      )
                  (    -1          0          0      )

 cart.    s(45) = (  0.0000000  0.0000000 -1.0000000 )
                  ( -1.0000000  0.0000000  0.0000000 )
                  (  0.0000000 -1.0000000  0.0000000 )


      isym = 46     inv. 120 deg rotation - cart. axis [-1,1,-1] 

 cryst.   s(46) = (     0          1          0      )
                  (     0          0          1      )
                  (    -1          0          0      )

 cart.    s(46) = (  0.0000000  0.0000000 -1.0000000 )
                  (  1.0000000  0.0000000  0.0000000 )
                  (  0.0000000  1.0000000  0.0000000 )


      isym = 47     inv. 120 deg rotation - cart. axis [1,-1,-1] 

 cryst.   s(47) = (     0          1          0      )
                  (     0          0         -1      )
                  (     1          0          0      )

 cart.    s(47) = (  0.0000000  0.0000000  1.0000000 )
                  (  1.0000000  0.0000000  0.0000000 )
                  (  0.0000000 -1.0000000  0.0000000 )


      isym = 48     inv. 120 deg rotation - cart. axis [-1,-1,1] 

 cryst.   s(48) = (     0         -1          0      )
                  (     0          0          1      )
                  (     1          0          0      )

 cart.    s(48) = (  0.0000000  0.0000000  1.0000000 )
                  ( -1.0000000  0.0000000  0.0000000 )
                  (  0.0000000  1.0000000  0.0000000 )


   Cartesian axes

     site n.     atom                  positions (alat units)
         1           Pd  tau(   1) = (   0.5000000   0.5000000   0.5000000  )

   Crystallographic axes

     site n.     atom                  positions (cryst. coord.)
         1           Pd  tau(   1) = (  0.5000000  0.5000000  0.5000000  )

     number of k points=     1
                       cart. coord. in units 2pi/alat
        k(    1) = (   0.0000000   0.0000000   0.0000000), wk =   1.0000000

                       cryst. coord.
        k(    1) = (   0.0000000   0.0000000   0.0000000), wk =   1.0000000

     Dense  grid:  4299020 G-vectors     FFT dimensions: ( 256, 256, 256)

     Dynamical RAM for                 wfc:       3.07 MB

     Dynamical RAM for     wfc (w. buffer):       9.22 MB

     Dynamical RAM for           str. fact:       2.05 MB

     Dynamical RAM for           local pot:       0.00 MB

     Dynamical RAM for          nlocal pot:       1.54 MB

     Dynamical RAM for                qrad:       1.45 MB

     Dynamical RAM for          rho,v,vnew:      36.30 MB

     Dynamical RAM for               rhoin:      12.10 MB

     Dynamical RAM for            rho*nmix:      65.60 MB

     Dynamical RAM for           G-vectors:       8.71 MB

     Dynamical RAM for          h,s,v(r/c):       0.00 MB

     Dynamical RAM for          <psi|beta>:       0.00 MB

     Dynamical RAM for                 psi:      12.30 MB

     Dynamical RAM for                hpsi:      12.30 MB

     Dynamical RAM for      wfcinit/wfcrot:       6.15 MB

     Estimated static dynamical RAM per process >     165.08 MB

     Estimated max dynamical RAM per process >     189.68 MB

     Estimated total dynamical RAM >       5.93 GB
     Generating pointlists ...
     new r_m :   0.4125 (alat units)  9.3541 (a.u.) for type    1

     Initial potential from superposition of free atoms

     starting charge   16.00000, renormalised to   18.00000

     negative rho (up, down):  2.170E-04 0.000E+00
     Starting wfcs are    9 randomized atomic wfcs +    3 random wfcs

     total cpu time spent up to now is        5.1 secs

     Self-consistent Calculation

     iteration #  1     ecut=   310.00 Ry     beta= 0.70
     Davidson diagonalization with overlap
     ethr =  1.00E-02,  avg # of iterations =  9.0

     total cpu time spent up to now is       13.5 secs

     total energy              =    -216.02799423 Ry
     Harris-Foulkes estimate   =    -260.39538898 Ry
     estimated scf accuracy    <      54.38102367 Ry

     total magnetization       =     0.00 Bohr mag/cell
     absolute magnetization    =     2.01 Bohr mag/cell

     iteration #  2     ecut=   310.00 Ry     beta= 0.70
     Davidson diagonalization with overlap
     ethr =  1.00E-02,  avg # of iterations =  7.5

     total cpu time spent up to now is       20.7 secs

     total energy              =    -258.19697043 Ry
     Harris-Foulkes estimate   =    -279.76838178 Ry
     estimated scf accuracy    <      36.86856669 Ry

     total magnetization       =     0.00 Bohr mag/cell
     absolute magnetization    =     1.50 Bohr mag/cell

     iteration #  3     ecut=   310.00 Ry     beta= 0.70
     Davidson diagonalization with overlap
     ethr =  1.00E-02,  avg # of iterations =  2.5

     total cpu time spent up to now is       25.7 secs

     total energy              =    -256.75684132 Ry
     Harris-Foulkes estimate   =    -260.13827505 Ry
     estimated scf accuracy    <       8.19038268 Ry

     total magnetization       =    -0.00 Bohr mag/cell
     absolute magnetization    =     1.53 Bohr mag/cell

     iteration #  4     ecut=   310.00 Ry     beta= 0.70
     Davidson diagonalization with overlap
     ethr =  1.00E-02,  avg # of iterations =  2.0

     total cpu time spent up to now is       30.2 secs

     total energy              =    -254.12338323 Ry
     Harris-Foulkes estimate   =    -256.88780396 Ry
     estimated scf accuracy    <       3.56515571 Ry

     total magnetization       =     0.00 Bohr mag/cell
     absolute magnetization    =     1.56 Bohr mag/cell

     iteration #  5     ecut=   310.00 Ry     beta= 0.70
     Davidson diagonalization with overlap
     ethr =  1.00E-02,  avg # of iterations =  2.0

     total cpu time spent up to now is       34.9 secs

     total energy              =    -254.62275982 Ry
     Harris-Foulkes estimate   =    -254.59161536 Ry
     estimated scf accuracy    <       0.03996726 Ry

     total magnetization       =    -0.00 Bohr mag/cell
     absolute magnetization    =     1.67 Bohr mag/cell

     iteration #  6     ecut=   310.00 Ry     beta= 0.70
     Davidson diagonalization with overlap
     ethr =  2.22E-04,  avg # of iterations =  7.5

     total cpu time spent up to now is       41.1 secs

     total energy              =    -254.56075613 Ry
     Harris-Foulkes estimate   =    -255.00458943 Ry
     estimated scf accuracy    <       1.05954062 Ry

     total magnetization       =    -0.00 Bohr mag/cell
     absolute magnetization    =     0.18 Bohr mag/cell

     iteration #  7     ecut=   310.00 Ry     beta= 0.70
     Davidson diagonalization with overlap
     ethr =  2.22E-04,  avg # of iterations =  3.5

     negative rho (up, down):  7.580E-09 1.022E-01

     total cpu time spent up to now is       46.8 secs

     total energy              =    -254.60381126 Ry
     Harris-Foulkes estimate   =    -254.66808591 Ry
     estimated scf accuracy    <       0.09515403 Ry

     total magnetization       =     0.00 Bohr mag/cell
     absolute magnetization    =     0.25 Bohr mag/cell

     iteration #  8     ecut=   310.00 Ry     beta= 0.70
     Davidson diagonalization with overlap
     ethr =  2.22E-04,  avg # of iterations =  2.5

     negative rho (up, down):  9.205E-03 8.868E-02

     total cpu time spent up to now is       51.5 secs

     total energy              =    -254.68634515 Ry
     Harris-Foulkes estimate   =    -254.67586177 Ry
     estimated scf accuracy    <       0.55345544 Ry

     total magnetization       =    -0.00 Bohr mag/cell
     absolute magnetization    =     1.54 Bohr mag/cell

     iteration #  9     ecut=   310.00 Ry     beta= 0.70
     Davidson diagonalization with overlap
     ethr =  2.22E-04,  avg # of iterations =  1.0

     negative rho (up, down):  8.500E-03 8.329E-02

     total cpu time spent up to now is       55.6 secs

     total energy              =    -254.68969604 Ry
     Harris-Foulkes estimate   =    -254.68699392 Ry
     estimated scf accuracy    <       0.60664458 Ry

     total magnetization       =    -0.00 Bohr mag/cell
     absolute magnetization    =     1.45 Bohr mag/cell

     iteration # 10     ecut=   310.00 Ry     beta= 0.70
     Davidson diagonalization with overlap
     ethr =  2.22E-04,  avg # of iterations =  1.0

     total cpu time spent up to now is       59.8 secs

     total energy              =    -254.68286611 Ry
     Harris-Foulkes estimate   =    -254.68986992 Ry
     estimated scf accuracy    <       0.62837149 Ry

     total magnetization       =     0.00 Bohr mag/cell
     absolute magnetization    =     1.42 Bohr mag/cell

     iteration # 11     ecut=   310.00 Ry     beta= 0.70
     Davidson diagonalization with overlap
     ethr =  2.22E-04,  avg # of iterations =  1.5

     total cpu time spent up to now is       64.1 secs

     total energy              =    -254.69509779 Ry
     Harris-Foulkes estimate   =    -254.68805473 Ry
     estimated scf accuracy    <       0.53719054 Ry

     total magnetization       =    -0.00 Bohr mag/cell
     absolute magnetization    =     1.66 Bohr mag/cell

     iteration # 12     ecut=   310.00 Ry     beta= 0.70
     Davidson diagonalization with overlap
     ethr =  2.22E-04,  avg # of iterations =  1.0

     negative rho (up, down):  8.830E-03 1.561E-01

     total cpu time spent up to now is       68.3 secs

     total energy              =    -254.69842605 Ry
     Harris-Foulkes estimate   =    -254.69658338 Ry
     estimated scf accuracy    <       0.66559526 Ry

     total magnetization       =     0.00 Bohr mag/cell
     absolute magnetization    =     1.66 Bohr mag/cell

     iteration # 13     ecut=   310.00 Ry     beta= 0.70
     Davidson diagonalization with overlap
     ethr =  2.22E-04,  avg # of iterations =  8.0

     negative rho (up, down):  1.817E-02 1.388E-01

     total cpu time spent up to now is       73.9 secs

     total energy              =    -254.78583728 Ry
     Harris-Foulkes estimate   =    -254.76208005 Ry
     estimated scf accuracy    <       1.44673106 Ry

     total magnetization       =     0.00 Bohr mag/cell
     absolute magnetization    =     1.37 Bohr mag/cell

     iteration # 14     ecut=   310.00 Ry     beta= 0.70
     Davidson diagonalization with overlap
     ethr =  2.22E-04,  avg # of iterations =  1.0

     total cpu time spent up to now is       78.1 secs

     total energy              =    -254.39678470 Ry
     Harris-Foulkes estimate   =    -254.79017698 Ry
     estimated scf accuracy    <       1.58526068 Ry

     total magnetization       =     0.00 Bohr mag/cell
     absolute magnetization    =     0.62 Bohr mag/cell

     iteration # 15     ecut=   310.00 Ry     beta= 0.70
     Davidson diagonalization with overlap
     ethr =  2.22E-04,  avg # of iterations =  3.5

     negative rho (up, down):  2.286E-03 4.588E-02

     total cpu time spent up to now is       83.6 secs

     total energy              =    -254.66967411 Ry
     Harris-Foulkes estimate   =    -254.67799034 Ry
     estimated scf accuracy    <       0.07113433 Ry

     total magnetization       =     0.00 Bohr mag/cell
     absolute magnetization    =     0.34 Bohr mag/cell

     iteration # 16     ecut=   310.00 Ry     beta= 0.70
     Davidson diagonalization with overlap
     ethr =  2.22E-04,  avg # of iterations =  1.5

     negative rho (up, down):  7.659E-04 8.493E-02

     total cpu time spent up to now is       87.8 secs

     total energy              =    -254.66904789 Ry
     Harris-Foulkes estimate   =    -254.67202087 Ry
     estimated scf accuracy    <       0.03645717 Ry

     total magnetization       =     0.00 Bohr mag/cell
     absolute magnetization    =     0.54 Bohr mag/cell

     iteration # 17     ecut=   310.00 Ry     beta= 0.70
     Davidson diagonalization with overlap
     ethr =  2.03E-04,  avg # of iterations =  1.0

     negative rho (up, down):  1.023E-08 4.125E-02

     total cpu time spent up to now is       91.9 secs

     total energy              =    -254.66934952 Ry
     Harris-Foulkes estimate   =    -254.66996256 Ry
     estimated scf accuracy    <       0.02372817 Ry

     total magnetization       =     0.00 Bohr mag/cell
     absolute magnetization    =     0.68 Bohr mag/cell

     iteration # 18     ecut=   310.00 Ry     beta= 0.70
     Davidson diagonalization with overlap
     ethr =  1.32E-04,  avg # of iterations =  1.0

     total cpu time spent up to now is       96.1 secs

     total energy              =    -254.66936745 Ry
     Harris-Foulkes estimate   =    -254.66951089 Ry
     estimated scf accuracy    <       0.01914605 Ry

     total magnetization       =     0.00 Bohr mag/cell
     absolute magnetization    =     0.71 Bohr mag/cell

     iteration # 19     ecut=   310.00 Ry     beta= 0.70
     Davidson diagonalization with overlap
     ethr =  1.06E-04,  avg # of iterations =  1.0

     total cpu time spent up to now is      100.4 secs

     total energy              =    -254.67060133 Ry
     Harris-Foulkes estimate   =    -254.66976240 Ry
     estimated scf accuracy    <       0.01740570 Ry

     total magnetization       =    -0.00 Bohr mag/cell
     absolute magnetization    =     0.62 Bohr mag/cell

     iteration # 20     ecut=   310.00 Ry     beta= 0.70
     Davidson diagonalization with overlap
     ethr =  9.67E-05,  avg # of iterations =  1.5

     negative rho (up, down):  3.269E-04 8.508E-02

     total cpu time spent up to now is      104.6 secs

     total energy              =    -254.66761432 Ry
     Harris-Foulkes estimate   =    -254.67486958 Ry
     estimated scf accuracy    <       0.01919699 Ry

     total magnetization       =     0.00 Bohr mag/cell
     absolute magnetization    =     0.34 Bohr mag/cell

     iteration # 21     ecut=   310.00 Ry     beta= 0.70
     Davidson diagonalization with overlap
     ethr =  9.67E-05,  avg # of iterations =  2.0

     negative rho (up, down):  1.050E-03 4.689E-02

     total cpu time spent up to now is      109.1 secs

     total energy              =    -254.67080345 Ry
     Harris-Foulkes estimate   =    -254.67088580 Ry
     estimated scf accuracy    <       0.00082440 Ry

     total magnetization       =    -0.00 Bohr mag/cell
     absolute magnetization    =     0.45 Bohr mag/cell

     iteration # 22     ecut=   310.00 Ry     beta= 0.70
     Davidson diagonalization with overlap
     ethr =  4.58E-06,  avg # of iterations =  4.0

     negative rho (up, down):  1.012E-03 6.058E-02

     total cpu time spent up to now is      114.2 secs

     total energy              =    -254.67113296 Ry
     Harris-Foulkes estimate   =    -254.67112334 Ry
     estimated scf accuracy    <       0.00033641 Ry

     total magnetization       =     0.00 Bohr mag/cell
     absolute magnetization    =     0.37 Bohr mag/cell

     iteration # 23     ecut=   310.00 Ry     beta= 0.70
     Davidson diagonalization with overlap
     ethr =  1.87E-06,  avg # of iterations =  6.0

     negative rho (up, down):  9.168E-04 4.828E-02

     total cpu time spent up to now is      119.4 secs

     total energy              =    -254.67111358 Ry
     Harris-Foulkes estimate   =    -254.67120770 Ry
     estimated scf accuracy    <       0.00042896 Ry

     total magnetization       =     0.00 Bohr mag/cell
     absolute magnetization    =     0.38 Bohr mag/cell

     iteration # 24     ecut=   310.00 Ry     beta= 0.70
     Davidson diagonalization with overlap
     ethr =  1.87E-06,  avg # of iterations =  2.0

     negative rho (up, down):  8.671E-05 6.886E-02

     total cpu time spent up to now is      124.0 secs

     total energy              =    -254.67120673 Ry
     Harris-Foulkes estimate   =    -254.67117920 Ry
     estimated scf accuracy    <       0.00003139 Ry

     total magnetization       =    -0.00 Bohr mag/cell
     absolute magnetization    =     0.37 Bohr mag/cell

     iteration # 25     ecut=   310.00 Ry     beta= 0.70
     Davidson diagonalization with overlap
     ethr =  1.74E-07,  avg # of iterations =  3.5

     negative rho (up, down):  3.969E-05 7.806E-02

     total cpu time spent up to now is      128.7 secs

     total energy              =    -254.67123063 Ry
     Harris-Foulkes estimate   =    -254.67122272 Ry
     estimated scf accuracy    <       0.00002923 Ry

     total magnetization       =     0.00 Bohr mag/cell
     absolute magnetization    =     0.35 Bohr mag/cell

     iteration # 26     ecut=   310.00 Ry     beta= 0.70
     Davidson diagonalization with overlap
     ethr =  1.62E-07,  avg # of iterations =  2.0

     total cpu time spent up to now is      133.2 secs

     total energy              =    -254.67124000 Ry
     Harris-Foulkes estimate   =    -254.67123929 Ry
     estimated scf accuracy    <       0.00000708 Ry

     total magnetization       =     0.00 Bohr mag/cell
     absolute magnetization    =     0.33 Bohr mag/cell

     iteration # 27     ecut=   310.00 Ry     beta= 0.70
     Davidson diagonalization with overlap
     ethr =  3.93E-08,  avg # of iterations =  4.0

     total cpu time spent up to now is      138.4 secs

     total energy              =    -254.67126154 Ry
     Harris-Foulkes estimate   =    -254.67126276 Ry
     estimated scf accuracy    <       0.00000150 Ry

     total magnetization       =    -0.00 Bohr mag/cell
     absolute magnetization    =     0.30 Bohr mag/cell

     iteration # 28     ecut=   310.00 Ry     beta= 0.70
     Davidson diagonalization with overlap
     ethr =  8.32E-09,  avg # of iterations =  3.5
 
     Magnetic moment per site:
     atom:    1    charge:   17.9998    magn:   -0.0000    constr:    0.0000

     total cpu time spent up to now is      143.1 secs

     End of self-consistent calculation

 ------ SPIN UP ------------


          k = 0.0000 0.0000 0.0000 (537238 PWs)   bands (ev):

   -85.5290 -51.1418 -51.0911 -51.0911  -3.9175  -3.9174  -3.8840  -3.8829
    -3.8827  -3.1733  -0.1040  -0.1020

     occupation numbers 
     1.0000   1.0000   1.0000   1.0000   1.0000   1.0000   1.0000   1.0000
     1.0000   0.0000   0.0000   0.0000

 ------ SPIN DOWN ----------


          k = 0.0000 0.0000 0.0000 (537238 PWs)   bands (ev):

   -85.5286 -51.1100 -51.1088 -51.1045  -3.9458  -3.9144  -3.9140  -3.8560
    -3.8559  -3.1732  -0.0394   0.0485

     occupation numbers 
     1.0000   1.0000   1.0000   1.0000   1.0000   1.0000   1.0000   1.0000
     1.0000   0.0000   0.0000   0.0000

     highest occupied, lowest unoccupied level (ev):    -3.8559   -3.1733

!    total energy              =    -254.67127388 Ry
     Harris-Foulkes estimate   =    -254.67127285 Ry
     estimated scf accuracy    <       0.00000056 Ry

     The total energy is the sum of the following terms:

     one-electron contribution =    -372.43251852 Ry
     hartree contribution      =     183.87179387 Ry
     xc contribution           =     -25.57185389 Ry
     ewald contribution        =     -40.53869533 Ry

     total magnetization       =     0.00 Bohr mag/cell
     absolute magnetization    =     0.28 Bohr mag/cell

     convergence has been achieved in  28 iterations

     Writing output data file pwscf.save/
 
     init_run     :      4.60s CPU      4.88s WALL (       1 calls)
     electrons    :    135.76s CPU    138.50s WALL (       1 calls)

     Called by init_run:
     wfcinit      :      0.79s CPU      0.84s WALL (       1 calls)
     wfcinit:atom :      0.01s CPU      0.02s WALL (       2 calls)
     wfcinit:wfcr :      0.76s CPU      0.80s WALL (       2 calls)
     potinit      :      1.24s CPU      1.32s WALL (       1 calls)
     hinit0       :      0.14s CPU      0.26s WALL (       1 calls)

     Called by electrons:
     c_bands      :     67.47s CPU     68.55s WALL (      28 calls)
     sum_band     :     21.13s CPU     21.22s WALL (      28 calls)
     v_of_rho     :     34.26s CPU     35.43s WALL (      29 calls)
     v_h          :      2.61s CPU      2.64s WALL (      29 calls)
     v_xc         :     31.65s CPU     32.78s WALL (      29 calls)
     mix_rho      :     12.72s CPU     12.85s WALL (      28 calls)

     Called by c_bands:
     init_us_2    :      0.43s CPU      0.43s WALL (     114 calls)
     regterg      :     66.83s CPU     67.90s WALL (      56 calls)

     Called by sum_band:

     Called by *egterg:
     h_psi        :     61.30s CPU     61.55s WALL (     231 calls)
     g_psi        :      0.22s CPU      0.22s WALL (     173 calls)
     rdiaghg      :      0.23s CPU      0.24s WALL (     229 calls)
     regterg:over :      1.48s CPU      1.49s WALL (     173 calls)
     regterg:upda :      2.47s CPU      2.49s WALL (     173 calls)
     regterg:last :      0.80s CPU      0.81s WALL (      63 calls)
     rdiaghg:chol :      0.03s CPU      0.04s WALL (     229 calls)
     rdiaghg:inve :      0.01s CPU      0.01s WALL (     229 calls)
     rdiaghg:para :      0.03s CPU      0.03s WALL (     458 calls)

     Called by h_psi:
     h_psi:pot    :     60.86s CPU     61.10s WALL (     231 calls)
     h_psi:calbec :      0.33s CPU      0.34s WALL (     231 calls)
     vloc_psi     :     60.19s CPU     60.42s WALL (     231 calls)
     add_vuspsi   :      0.34s CPU      0.34s WALL (     231 calls)

     General routines
     calbec       :      0.32s CPU      0.34s WALL (     231 calls)
     fft          :     28.80s CPU     29.17s WALL (     431 calls)
     ffts         :      3.18s CPU      3.19s WALL (      56 calls)
     fftw         :     57.52s CPU     57.74s WALL (    2344 calls)
 
     Parallel routines
     fft_scatt_xy :     17.66s CPU     17.70s WALL (    2831 calls)
     fft_scatt_yz :     30.89s CPU     31.22s WALL (    2831 calls)
 
     PWSCF        :   2m20.67s CPU   2m24.77s WALL

 
   This run was terminated on:  15:43:10  17Jan2022            

=------------------------------------------------------------------------------=
   JOB DONE.
=------------------------------------------------------------------------------=
