
 Primary working directories    : /global/cscratch1/sd/bkincaid
 Secondary working directories  : /global/cscratch1/sd/bkincaid
 Wavefunction directory         : /global/homes/b/bkincaid/wfu/
 Main file repository           : /global/cscratch1/sd/bkincaid/

 SHA1      : 19cd028119e0e09f93f0674bd8af7968d9b3eff6
 NAME      : 2015.1.36
 ARCHNAME  : linux/x86_64
 FC        : /opt/cray/pe/craype/2.5.14/bin/ftn
 BLASLIB   : -L/opt/intel/compilers_and_libraries_2018.1.163/linux/mkl/lib/intel64 -Wl,-_start-group -lmkl_intel_ilp64 -lmkl_intel_thread -lmkl_core -Wl,-_end-group -liomp5
 id        : lbl

 Nodes     nprocs
 nid00754    23
 Number of processes for MPI-2 version of Molpro:   nprocs(total)=   24   nprocs(compute)=   23   nprocs(helper)=    1

 Using customized tuning parameters: mindgm=7; mindgv=16; mindgc=1; mindgr=1; noblas=0; minvec=7
 default implementation of scratch files=sf  

 ***,Calculation for Ag atom, singlet and triplet
 memory,512,m
 geometry={
 1
 Pd
 Pd  0.0 0.0 0.0
 }
 
 basis={
 Including file /global/u1/b/bkincaid/molpro/Pd/atoms/ecps/UC/basis/aug-cc-pwCVTZ.basis
 }
 
 Including file /global/u1/b/bkincaid/molpro/Pd/atoms/ecps/UC/basis/states.proc
 
 do i=1,13
     if (i.eq.1) then
         Idten
     else if (i.eq.2) then
         EAs2d9
     else if (i.eq.3) then
         Is1d9
     else if (i.eq.4) then
         Is2d8
     else if (i.eq.5) then
         IId9
     else if (i.eq.6) then
         IIs1d8
     else if (i.eq.7) then
         IIId8
     else if (i.eq.8) then
         IVd7
     else if (i.eq.9) then
         Vd6
     else if (i.eq.10) then
         VId5
     else if (i.eq.11) then
         XIKr
     else if (i.eq.12) then
         XIVp3
     else if (i.eq.13) then
         XVIIs2
     endif
     scf(i)=energy
     _CC_NORM_MAX=2.0
    {rccsd(t),maxit=100;core,5,2,2,1,2,1,1,0}
     ccsd(i)=energy
 enddo
 
 table,scf,ccsd
 type,csv
 save

 Variables initialized (889), CPU time= 0.01 sec
 Commands  initialized (702), CPU time= 0.02 sec, 572 directives.
 Default parameters read. Elapsed time= 0.15 sec

 Checking input...
 Passed
1


                                         ***  PROGRAM SYSTEM MOLPRO  ***
                                       Copyright, TTI GmbH Stuttgart, 2015
                                    Version 2015.1 linked Dec 29 2018 15:55:43


 **********************************************************************************************************************************
 LABEL *   Calculation for Ag atom, singlet and triplet                                  
  64 bit mpp version                                                                     DATE: 15-Feb-21          TIME: 11:06:37  
 **********************************************************************************************************************************

 SHA1:             19cd028119e0e09f93f0674bd8af7968d9b3eff6
 **********************************************************************************************************************************

Geometry recognized as XYZ


 Variable memory set to  512000000 words,  buffer space   230000 words

 SETTING BASIS          =    USERDEF

 DO I                   =         1.00000000   

 Running procedure=IDTEN


 Recomputing integrals since basis changed


 Using spherical harmonics



 PROGRAM * SEWARD (Integral evaluation for generally contracted gaussian basis sets)     Author: Roland Lindh, 1990

 Geometry written to block  1 of record 700

 Orientation using atomic masses  
 Molecule type: Atom
 Symmetry elements: X,Y,Z
 Rotational constants:       0.0000000      0.0000000      0.0000000 GHz  (calculated with average atomic masses)

 Point group  D2h 



 ATOMIC COORDINATES

 NR  ATOM    CHARGE       X              Y              Z

   1  PD     46.00    0.000000000    0.000000000    0.000000000

 NUCLEAR CHARGE:                   46
 NUMBER OF PRIMITIVE AOS:         289
 NUMBER OF SYMMETRY AOS:          242
 NUMBER OF CONTRACTIONS:          242   (  73Ag  +  32B3u +  32B2u +  23B1g +  32B1u +  23B2g +  23B3g +   4Au  )
 NUMBER OF CORE ORBITALS:          18   (   6Ag  +   3B3u +   3B2u +   1B1g +   3B1u +   1B2g +   1B3g +   0Au  )
 NUMBER OF VALENCE ORBITALS:        6   (   3Ag  +   0B3u +   0B2u +   1B1g +   0B1u +   1B2g +   1B3g +   0Au  )


 NUCLEAR REPULSION ENERGY    0.00000000

 EXTRA SYMMETRY OF AOS IN SYMMETRY 1:   1 1 1 1 1 1 1 1 1 1   1 1 1 1 1 1 1 1 1 1   1 1 1 1 1 1 1 1 1 1   2 3 2 3 2 3 2 3 2 3
                                        2 3 2 3 2 3 2 3 2 3   2 3 2 3 2 3 2 3 2 3   2 3 2 3 4 5 6 4 5 6   4 5 6
 EXTRA SYMMETRY OF AOS IN SYMMETRY 2:   1 1 1 1 1 1 1 1 1 1   1 1 1 1 1 1 1 1 1 1   1 1 1 1 2 3 2 3 2 3   2 3
 EXTRA SYMMETRY OF AOS IN SYMMETRY 3:   1 1 1 1 1 1 1 1 1 1   1 1 1 1 1 1 1 1 1 1   1 1 1 1 2 3 2 3 2 3   2 3
 EXTRA SYMMETRY OF AOS IN SYMMETRY 4:   1 1 1 1 1 1 1 1 1 1   1 1 1 1 1 1 1 2 3 2   3 2 3
 EXTRA SYMMETRY OF AOS IN SYMMETRY 5:   1 1 1 1 1 1 1 1 1 1   1 1 1 1 1 1 1 1 1 1   1 1 1 1 2 3 2 3 2 3   2 3
 EXTRA SYMMETRY OF AOS IN SYMMETRY 6:   1 1 1 1 1 1 1 1 1 1   1 1 1 1 1 1 1 2 3 2   3 2 3
 EXTRA SYMMETRY OF AOS IN SYMMETRY 7:   1 1 1 1 1 1 1 1 1 1   1 1 1 1 1 1 1 2 3 2   3 2 3

 Eigenvalues of metric

         1 0.198E-05 0.951E-05 0.951E-05 0.291E-04 0.121E-03 0.307E-03 0.307E-03 0.363E-03
         2 0.982E-06 0.471E-03 0.163E-02 0.406E-02 0.938E-02 0.172E-01 0.270E-01 0.454E-01
         3 0.982E-06 0.471E-03 0.163E-02 0.406E-02 0.938E-02 0.172E-01 0.270E-01 0.454E-01
         4 0.951E-05 0.307E-03 0.302E-02 0.107E-01 0.287E-01 0.531E-01 0.105E+00 0.148E+00
         5 0.982E-06 0.471E-03 0.163E-02 0.406E-02 0.938E-02 0.172E-01 0.270E-01 0.454E-01
         6 0.951E-05 0.307E-03 0.302E-02 0.107E-01 0.287E-01 0.531E-01 0.105E+00 0.148E+00
         7 0.951E-05 0.307E-03 0.302E-02 0.107E-01 0.287E-01 0.531E-01 0.105E+00 0.148E+00
         8 0.941E-01 0.387E+00 0.119E+01 0.233E+01


 Contracted 2-electron integrals neglected if value below      1.0D-13
 AO integral compression algorithm  1   Integral accuracy      1.0D-13

     414.450 MB (compressed) written to integral file ( 45.9%)

     Node minimum: 4.719 MB, node maximum: 55.050 MB


 NUMBER OF SORTED TWO-ELECTRON INTEGRALS:    2444547.     BUFFER LENGTH:  32768
 NUMBER OF SEGMENTS:   1  SEGMENT LENGTH:    2444547      RECORD LENGTH: 524288

 Memory used in sort:       3.00 MW

 SORT1 READ   112766326. AND WROTE     1563133. INTEGRALS IN      5 RECORDS. CPU TIME:     3.86 SEC, REAL TIME:     3.95 SEC
 SORT2 READ    36622834. AND WROTE    56960207. INTEGRALS IN   1449 RECORDS. CPU TIME:     0.28 SEC, REAL TIME:     0.48 SEC

 Node minimum:     2444547.  Node maximum:     2491187. integrals

 OPERATOR DM      FOR CENTER  0  COORDINATES:    0.000000    0.000000    0.000000


 **********************************************************************************************************************************
 DATASETS  * FILE   NREC   LENGTH (MB)   RECORD NAMES
              1      18       20.33       500      610      700      900      950      970     1000      129      960     1100   
                                          VAR    BASINP    GEOM    SYMINP    ZMAT    AOBASIS   BASIS     P2S    ABASIS      S 
                                         1400     1410     1200     1210     1080     1600     1650     1700   
                                           T        V       H0       H01     AOSYM     SMH    MOLCAS    OPER   

 PROGRAMS   *        TOTAL       INT
 CPU TIMES  *        30.09     28.81
 REAL TIME  *        32.69 SEC
 DISK USED  *       864.41 MB      
 GA USED    *         0.00 MB       (max)       0.00 MB       (current)
 **********************************************************************************************************************************


 PROGRAM * RHF-SCF (CLOSED SHELL)       Authors: W. Meyer, H.-J. Werner


 NUMBER OF ELECTRONS:      23+   23-    SPACE SYMMETRY=1    SPIN SYMMETRY: Singlet 
 CONVERGENCE THRESHOLDS:    1.00E-05 (Density)    1.00E-07 (Energy)
 MAX. NUMBER OF ITERATIONS:       60
 INTERPOLATION TYPE:            DIIS
 INTERPOLATION STEPS:              2 (START)      1 (STEP)
 LEVEL SHIFTS:                  0.00 (CLOSED)  0.00 (OPEN) 

 Number of closed-shell orbitals:   23 (   8   3   3   2   3   2   2   0 )


 
 Extra symmetries of mos in symmetry 1:   1   1   1   1   3   2   3   2
 Orbital guess generated from atomic densities. Full valence occupancy:    9   3   3   2   3   2   2   0


 Molecular orbital dump at record        4202.2

 ITERATION    DDIFF          GRAD             ENERGY        2-EL.EN.            DIPOLE MOMENTS         DIIS   ORB.
    1      0.000D+00      0.000D+00     -4916.82063753   3260.142168    0.00000    0.00000    0.00000    0    start
    2      0.000D+00      0.128D+00     -4930.14113686   4095.953570    0.00000    0.00000    0.00000    1    diag
    3      0.282D+00      0.172D+00     -4936.07489748   3931.493977    0.00000    0.00000    0.00000    2    diag
    4      0.258D-01      0.630D-01     -4937.88865856   3799.080568    0.00000    0.00000    0.00000    3    diag
    5      0.245D-01      0.601D-02     -4937.91965279   3789.593766    0.00000    0.00000    0.00000    4    diag
    6      0.615D-02      0.163D-02     -4937.92039199   3788.437794    0.00000    0.00000    0.00000    5    diag
    7      0.104D-02      0.109D-02     -4937.92078943   3790.007933    0.00000    0.00000    0.00000    6    diag
    8      0.397D-03      0.334D-03     -4937.92083229   3790.676934    0.00000    0.00000    0.00000    7    diag
    9      0.122D-03      0.178D-04     -4937.92083339   3790.712408    0.00000    0.00000    0.00000    8    diag
   10      0.183D-04      0.753D-05     -4937.92083405   3790.715195    0.00000    0.00000    0.00000    9    orth
   11      0.223D-04      0.254D-05     -4937.92083412   3790.713933    0.00000    0.00000    0.00000    9    diag
   12      0.953D-05      0.661D-06     -4937.92083412   3790.711169    0.00000    0.00000    0.00000    0    orth

 Final occupancy:   8   3   3   2   3   2   2   0

 !RHF STATE 1.1 Energy              -4937.920834121764
 Nuclear energy                         0.00000000
 One-electron energy                -6833.27641857
 Two-electron energy                 1895.35558445
 Virial quotient                       -1.00000000
 !RHF STATE 1.1 Dipole moment           0.00000000     0.00000000     0.00000000
 Dipole moment /Debye                   0.00000000     0.00000000     0.00000000

 ELECTRON ORBITALS
 =================


   Orb  Occ    Energy  Couls-En    Coefficients

                                   1 1s      1 1s      1 1s      1 1s      1 1s      1 1s      1 1s      1 1s      1 1s      1 1s   
                                   1 1s      1 1s      1 1s      1 1s      1 1s      1 1s      1 1s      1 1s      1 1s      1 1s   
                                   1 1s      1 1s      1 1s      1 1s      1 1s      1 1s      1 1s      1 1s      1 1s      1 1s   
                                   1 3d0     1 3d2+    1 3d0     1 3d2+    1 3d0     1 3d2+    1 3d0     1 3d2+    1 3d0     1 3d2+ 
                                   1 3d0     1 3d2+    1 3d0     1 3d2+    1 3d0     1 3d2+    1 3d0     1 3d2+    1 3d0     1 3d2+ 
                                   1 3d0     1 3d2+    1 3d0     1 3d2+    1 3d0     1 3d2+    1 3d0     1 3d2+    1 3d0     1 3d2+ 
                                   1 3d0     1 3d2+    1 3d0     1 3d2+    1 5g0     1 5g4+    1 5g2+    1 5g0     1 5g4+    1 5g2+ 
                                   1 5g0     1 5g4+    1 5g2+ 

   1.1   2  -873.3159-1931.1422  0.000000  0.000002  0.000012  0.000054  0.000204  0.000679  0.002058  0.005839  0.015733  0.040060
                                 0.094253  0.193475  0.311508  0.318946  0.147429  0.016837  0.001488 -0.000874  0.000850 -0.001600
                                -0.001540  0.000771  0.000102 -0.000012  0.000009 -0.000005  0.002329 -0.000553  0.000002 -0.000001
                                -0.000000 -0.000000  0.000000 -0.000000  0.000000 -0.000000 -0.000000 -0.000000 -0.000000  0.000000
                                 0.000000  0.000000 -0.000000 -0.000000  0.000000  0.000000 -0.000000 -0.000000 -0.000000 -0.000000
                                -0.000000 -0.000000  0.000000 -0.000000 -0.000000 -0.000000  0.000000 -0.000000  0.000000  0.000000
                                 0.000000  0.000000 -0.000000 -0.000000  0.000000  0.000000 -0.000000 -0.000000 -0.000000  0.000000
                                 0.000000  0.000000 -0.000000

   2.1   2  -127.9666 -390.0758 -0.000000 -0.000001 -0.000004 -0.000017 -0.000066 -0.000218 -0.000663 -0.001889 -0.005144 -0.013360
                                -0.032888 -0.073847 -0.142649 -0.200115 -0.110000  0.256503  0.562625  0.327118  0.048979  0.003170
                                 0.000941 -0.000563 -0.000084  0.000003 -0.000003  0.000002 -0.001435  0.000296 -0.000001  0.000000
                                -0.000000 -0.000000 -0.000000  0.000000 -0.000000 -0.000000 -0.000000  0.000000 -0.000000 -0.000000
                                -0.000000  0.000000  0.000000 -0.000000 -0.000000  0.000000 -0.000000 -0.000000 -0.000000 -0.000000
                                -0.000000 -0.000000  0.000000  0.000000 -0.000000 -0.000000 -0.000000  0.000000  0.000000  0.000000
                                 0.000000  0.000000 -0.000000 -0.000000 -0.000000  0.000000  0.000000  0.000000 -0.000000 -0.000000
                                -0.000000 -0.000000  0.000000

   3.1   2   -24.2091 -133.5343  0.000000  0.000000  0.000002  0.000007  0.000028  0.000094  0.000286  0.000815  0.002225  0.005787
                                 0.014358  0.032592  0.064792  0.095229  0.057638 -0.162875 -0.485556 -0.376050  0.360574  0.816821
                                 0.276910 -0.039878 -0.005954  0.001031 -0.000737  0.000399 -0.054418  0.037936 -0.000173  0.000043
                                 0.000000  0.000000  0.000000 -0.000000  0.000000  0.000000  0.000000 -0.000000  0.000000 -0.000000
                                 0.000000 -0.000000  0.000000 -0.000000 -0.000000  0.000000 -0.000000  0.000000 -0.000000 -0.000000
                                -0.000000 -0.000000  0.000000  0.000000 -0.000000 -0.000000  0.000000  0.000000  0.000000  0.000000
                                 0.000000  0.000000 -0.000000 -0.000000 -0.000000 -0.000000  0.000000  0.000000 -0.000000 -0.000000
                                -0.000000  0.000000  0.000000

   4.1   2    -3.5873  -52.9479 -0.000000 -0.000000 -0.000001 -0.000003 -0.000012 -0.000039 -0.000118 -0.000335 -0.000914 -0.002377
                                -0.005908 -0.013435 -0.026870 -0.039827 -0.024674  0.072221  0.228768  0.191202 -0.217435 -0.753359
                                -0.162440  0.836544  0.598156  0.050180 -0.024494  0.012138 -0.039034 -0.062420 -0.005119  0.001271
                                -0.000000  0.000000 -0.000000 -0.000000 -0.000000  0.000000 -0.000000 -0.000000 -0.000000  0.000000
                                -0.000000 -0.000000 -0.000000  0.000000 -0.000000 -0.000000  0.000000  0.000000  0.000000  0.000000
                                 0.000000  0.000000 -0.000000 -0.000000 -0.000000  0.000000 -0.000000 -0.000000 -0.000000 -0.000000
                                -0.000000 -0.000000 -0.000000  0.000000  0.000000 -0.000000 -0.000000  0.000000  0.000000 -0.000000
                                -0.000000 -0.000000  0.000000

   5.1   2   -13.3634 -117.5115 -0.000000 -0.000000 -0.000000 -0.000000 -0.000000 -0.000000 -0.000000 -0.000000 -0.000000 -0.000000
                                -0.000000 -0.000000 -0.000000 -0.000000 -0.000000  0.000000 -0.000000  0.000000 -0.000000  0.000000
                                 0.000000 -0.000000 -0.000000  0.000000 -0.000000  0.000000 -0.000000  0.000000 -0.000000  0.000000
                                -0.000000  0.000092 -0.000001  0.001079 -0.000006  0.007217 -0.000028  0.031002 -0.000086  0.096122
                                -0.000194  0.216395 -0.000299  0.333870 -0.000304  0.339067 -0.000163  0.181543 -0.000040  0.044190
                                -0.000004  0.004836  0.000000 -0.000077 -0.000000  0.000062  0.000000 -0.000017  0.000006 -0.006746
                                 0.000004 -0.005010 -0.000000  0.000005  0.000000  0.000000 -0.000000 -0.000000 -0.000000  0.000000
                                 0.000000  0.000000 -0.000000

   6.1   2   -13.3634 -117.5115  0.000000  0.000000  0.000000  0.000000  0.000000  0.000000  0.000000  0.000000  0.000000  0.000000
                                 0.000000  0.000000  0.000000  0.000000  0.000000 -0.000000 -0.000000 -0.000000  0.000000  0.000000
                                -0.000000 -0.000000  0.000000  0.000000 -0.000000  0.000000 -0.000000  0.000000 -0.000000  0.000000
                                 0.000092  0.000000  0.001079  0.000001  0.007217  0.000006  0.031002  0.000028  0.096122  0.000086
                                 0.216395  0.000194  0.333870  0.000299  0.339067  0.000304  0.181543  0.000163  0.044190  0.000040
                                 0.004836  0.000004 -0.000077 -0.000000  0.000062  0.000000 -0.000017 -0.000000 -0.006746 -0.000006
                                -0.005010 -0.000004  0.000005  0.000000 -0.000000  0.000000  0.000000  0.000000  0.000000 -0.000000
                                -0.000000 -0.000000  0.000000

   7.1   2    -0.3360  -34.9588  0.000000  0.000000  0.000000  0.000000  0.000000  0.000000  0.000000  0.000000  0.000000  0.000000
                                 0.000000  0.000000  0.000000  0.000000  0.000000 -0.000000  0.000000 -0.000000  0.000000 -0.000000
                                -0.000000  0.000001  0.000000 -0.000000  0.000001 -0.000002  0.000000 -0.000001  0.000002 -0.000000
                                 0.000000 -0.000027  0.000000 -0.000323  0.000001 -0.002168  0.000005 -0.009382  0.000016 -0.029419
                                 0.000036 -0.067010  0.000054 -0.100090  0.000049 -0.089719 -0.000022  0.039520 -0.000135  0.247336
                                -0.000198  0.362391 -0.000177  0.326109 -0.000116  0.212437 -0.000039  0.072297 -0.000004  0.008341
                                -0.000003  0.006132 -0.000001  0.002201  0.000000  0.000000 -0.000000 -0.000000 -0.000000 -0.000000
                                 0.000000 -0.000000  0.000000

   8.1   2    -0.3360  -34.9589 -0.000000 -0.000000 -0.000000 -0.000000 -0.000000 -0.000000 -0.000000 -0.000000 -0.000000 -0.000000
                                -0.000000 -0.000000 -0.000000 -0.000000 -0.000000  0.000000  0.000001  0.000001 -0.000001 -0.000005
                                -0.000002  0.000009  0.000009 -0.000005 -0.000016 -0.000004  0.000001 -0.000003  0.000000 -0.000000
                                -0.000027 -0.000000 -0.000323 -0.000000 -0.002168 -0.000001 -0.009382 -0.000005 -0.029419 -0.000016
                                -0.067010 -0.000036 -0.100091 -0.000054 -0.089720 -0.000049  0.039520  0.000021  0.247336  0.000135
                                 0.362392  0.000197  0.326110  0.000177  0.212436  0.000116  0.072293  0.000039  0.008341  0.000005
                                 0.006133  0.000003  0.002200  0.000001 -0.000000  0.000000  0.000000 -0.000000 -0.000000 -0.000000
                                 0.000000  0.000000  0.000000

   9.1   0     0.0051   -4.9174  0.000000  0.000000  0.000000  0.000000  0.000001  0.000002  0.000005  0.000016  0.000042  0.000113
                                 0.000273  0.000642  0.001235  0.001946  0.000986 -0.002986 -0.012016 -0.006661  0.003626  0.074381
                                 0.105906 -0.211994 -0.130885  0.075139 -0.154754  0.466061 -0.089523  0.183137 -0.746218  1.393273
                                -0.000000  0.000000 -0.000000  0.000000 -0.000000  0.000000 -0.000000  0.000000 -0.000000  0.000000
                                -0.000000  0.000000 -0.000001  0.000000 -0.000001  0.000000  0.000000 -0.000000  0.000002 -0.000000
                                 0.000003 -0.000000  0.000002 -0.000000  0.000002 -0.000000  0.000001 -0.000000 -0.000000 -0.000000
                                -0.000000 -0.000000  0.000002 -0.000000 -0.000000  0.000000 -0.000000  0.000000 -0.000000  0.000000
                                -0.000000  0.000000 -0.000000

  10.1   0     0.0261   -6.6099 -0.000000 -0.000000 -0.000000 -0.000000 -0.000001 -0.000003 -0.000010 -0.000027 -0.000078 -0.000194
                                -0.000505 -0.001094 -0.002325 -0.003142 -0.002563  0.007304  0.016593  0.023594 -0.038573  0.019786
                                 0.250635 -0.304894 -0.090412  0.241507 -0.705490  1.374305 -0.250075  0.449879 -3.137412  1.924802
                                 0.000000 -0.000000  0.000000 -0.000000  0.000000 -0.000000  0.000000 -0.000000  0.000000 -0.000000
                                 0.000001 -0.000000  0.000001 -0.000000  0.000001 -0.000000 -0.000001  0.000000 -0.000003  0.000000
                                -0.000005  0.000000 -0.000003 -0.000000 -0.000003  0.000000 -0.000001 -0.000000  0.000000 -0.000000
                                 0.000001 -0.000000 -0.000003  0.000000  0.000000 -0.000000 -0.000000 -0.000000  0.000000  0.000000
                                 0.000000 -0.000000 -0.000000

                                   1 2px     1 2px     1 2px     1 2px     1 2px     1 2px     1 2px     1 2px     1 2px     1 2px  
                                   1 2px     1 2px     1 2px     1 2px     1 2px     1 2px     1 2px     1 2px     1 2px     1 2px  
                                   1 2px     1 2px     1 2px     1 2px     1 4f1+    1 4f3+    1 4f1+    1 4f3+    1 4f1+    1 4f3+ 
                                   1 4f1+    1 4f3+ 

   1.2   2  -118.5311 -380.0210  0.000000  0.000002  0.000027  0.000211  0.001223  0.005571  0.020625  0.063278  0.156043  0.289843
                                 0.356348  0.227538  0.056648  0.004858 -0.005668 -0.000428 -0.000052  0.000009 -0.000007  0.000003
                                 0.005909  0.000062 -0.000002  0.000001  0.000000 -0.000000  0.000000  0.000000 -0.000000  0.000000
                                -0.000000  0.000000

   2.2   2   -20.3743 -127.7348 -0.000000 -0.000001 -0.000012 -0.000094 -0.000548 -0.002509 -0.009398 -0.029549 -0.075908 -0.149442
                                -0.192494 -0.053397  0.280078  0.502440  0.370573  0.052922  0.000740  0.000015  0.000040 -0.000017
                                -0.071126  0.002080  0.000008 -0.000003 -0.000000  0.000000  0.000000 -0.000000 -0.000000  0.000000
                                 0.000000 -0.000000

   3.2   2    -2.3301  -48.2006  0.000000  0.000000  0.000005  0.000036  0.000212  0.000969  0.003648  0.011483  0.029826  0.059119
                                 0.077567  0.012604 -0.146548 -0.304394 -0.113376  0.343204  0.308857  0.047419 -0.005681  0.003254
                                -0.041963  0.532597 -0.001512  0.000484 -0.000000  0.000000 -0.000000 -0.000000 -0.000000 -0.000000
                                 0.000000 -0.000000

   4.2   0     0.0111   -2.9719 -0.000000 -0.000000 -0.000000 -0.000000 -0.000002 -0.000006 -0.000029 -0.000070 -0.000241 -0.000330
                                -0.000766  0.000467 -0.000379  0.006960 -0.108051 -0.018594 -0.017684  0.030286 -0.069587  0.208555
                                 0.114900  0.008398 -0.566750  1.338097 -0.000000  0.000000  0.000000  0.000000 -0.000000  0.000000
                                 0.000000  0.000000

   5.2   0     0.0409   -4.8281 -0.000000 -0.000000 -0.000000 -0.000001 -0.000006 -0.000030 -0.000096 -0.000360 -0.000769 -0.001946
                                -0.001617 -0.001891  0.008417 -0.004216  0.312199  0.032398  0.031686 -0.077000  0.238993 -0.630124
                                -0.324216 -0.055783  2.099569 -1.176222 -0.000000  0.000000  0.000000  0.000000 -0.000000  0.000000
                                 0.000000  0.000000

                                   1 2py     1 2py     1 2py     1 2py     1 2py     1 2py     1 2py     1 2py     1 2py     1 2py  
                                   1 2py     1 2py     1 2py     1 2py     1 2py     1 2py     1 2py     1 2py     1 2py     1 2py  
                                   1 2py     1 2py     1 2py     1 2py     1 4f1-    1 4f3-    1 4f1-    1 4f3-    1 4f1-    1 4f3- 
                                   1 4f1-    1 4f3- 

   1.3   2  -118.5311 -380.0210  0.000000  0.000002  0.000027  0.000211  0.001223  0.005571  0.020625  0.063278  0.156043  0.289843
                                 0.356348  0.227538  0.056648  0.004858 -0.005668 -0.000428 -0.000052  0.000009 -0.000007  0.000003
                                 0.005909  0.000062 -0.000002  0.000001  0.000000 -0.000000  0.000000  0.000000 -0.000000  0.000000
                                -0.000000  0.000000

   2.3   2   -20.3743 -127.7348 -0.000000 -0.000001 -0.000012 -0.000094 -0.000548 -0.002509 -0.009398 -0.029549 -0.075908 -0.149442
                                -0.192494 -0.053397  0.280078  0.502440  0.370573  0.052922  0.000740  0.000015  0.000040 -0.000017
                                -0.071126  0.002080  0.000008 -0.000003 -0.000000  0.000000  0.000000 -0.000000 -0.000000  0.000000
                                 0.000000 -0.000000

   3.3   2    -2.3301  -48.2006  0.000000  0.000000  0.000005  0.000036  0.000212  0.000969  0.003648  0.011483  0.029826  0.059119
                                 0.077567  0.012604 -0.146548 -0.304394 -0.113376  0.343204  0.308857  0.047419 -0.005681  0.003254
                                -0.041963  0.532597 -0.001512  0.000484 -0.000000  0.000000 -0.000000 -0.000000 -0.000000 -0.000000
                                 0.000000 -0.000000

   4.3   0     0.0111   -2.9719 -0.000000 -0.000000 -0.000000 -0.000000 -0.000002 -0.000006 -0.000029 -0.000070 -0.000241 -0.000330
                                -0.000766  0.000467 -0.000379  0.006960 -0.108051 -0.018594 -0.017684  0.030286 -0.069587  0.208555
                                 0.114900  0.008398 -0.566750  1.338097 -0.000000  0.000000  0.000000  0.000000 -0.000000  0.000000
                                 0.000000  0.000000

   5.3   0     0.0409   -4.8281 -0.000000 -0.000000 -0.000000 -0.000001 -0.000006 -0.000030 -0.000096 -0.000360 -0.000769 -0.001946
                                -0.001617 -0.001891  0.008417 -0.004216  0.312199  0.032398  0.031686 -0.077000  0.238993 -0.630124
                                -0.324216 -0.055783  2.099569 -1.176222 -0.000000  0.000000  0.000000  0.000000 -0.000000  0.000000
                                 0.000000  0.000000

                                   1 3d2-    1 3d2-    1 3d2-    1 3d2-    1 3d2-    1 3d2-    1 3d2-    1 3d2-    1 3d2-    1 3d2- 
                                   1 3d2-    1 3d2-    1 3d2-    1 3d2-    1 3d2-    1 3d2-    1 3d2-    1 5g2-    1 5g4-    1 5g2- 
                                   1 5g4-    1 5g2-    1 5g4- 

   1.4   2   -13.3634 -117.5115  0.000092  0.001079  0.007217  0.031002  0.096122  0.216395  0.333871  0.339067  0.181543  0.044190
                                 0.004836 -0.000077  0.000062 -0.000017 -0.006746 -0.005010  0.000005 -0.000000  0.000000  0.000000
                                -0.000000 -0.000000  0.000000

   2.4   2    -0.3360  -34.9588 -0.000027 -0.000323 -0.002168 -0.009382 -0.029419 -0.067010 -0.100090 -0.089719  0.039520  0.247336
                                 0.362391  0.326109  0.212437  0.072297  0.008341  0.006132  0.002201 -0.000000  0.000000 -0.000000
                                -0.000000  0.000000 -0.000000

   3.4   0     0.1008   -6.0376  0.000003  0.000021  0.000213  0.000647  0.002898  0.004243  0.012149 -0.004590  0.057942  0.535615
                                 0.449249 -0.189146  0.186987 -0.476030 -0.399488 -0.606036  1.255894  0.000000  0.000000 -0.000000
                                -0.000000 -0.000000  0.000000

   4.4   0     0.3431   -9.9951  0.000005  0.000107  0.000484  0.002972  0.006559  0.022453  0.014990  0.062658 -0.208404 -1.865559
                                -1.673393  0.457586 -0.823654  1.896121  1.281357  1.970789 -0.890893  0.000000 -0.000000 -0.000000
                                 0.000000  0.000000  0.000000

                                   1 2pz     1 2pz     1 2pz     1 2pz     1 2pz     1 2pz     1 2pz     1 2pz     1 2pz     1 2pz  
                                   1 2pz     1 2pz     1 2pz     1 2pz     1 2pz     1 2pz     1 2pz     1 2pz     1 2pz     1 2pz  
                                   1 2pz     1 2pz     1 2pz     1 2pz     1 4f0     1 4f2+    1 4f0     1 4f2+    1 4f0     1 4f2+ 
                                   1 4f0     1 4f2+ 

   1.5   2  -118.5311 -380.0210  0.000000  0.000002  0.000027  0.000211  0.001223  0.005571  0.020625  0.063278  0.156043  0.289843
                                 0.356348  0.227538  0.056648  0.004858 -0.005668 -0.000428 -0.000052  0.000009 -0.000007  0.000003
                                 0.005909  0.000062 -0.000002  0.000001 -0.000000  0.000000  0.000000 -0.000000 -0.000000  0.000000
                                 0.000000 -0.000000

   2.5   2   -20.3743 -127.7348 -0.000000 -0.000001 -0.000012 -0.000094 -0.000548 -0.002509 -0.009398 -0.029549 -0.075908 -0.149442
                                -0.192494 -0.053397  0.280078  0.502440  0.370573  0.052922  0.000740  0.000015  0.000040 -0.000017
                                -0.071126  0.002080  0.000008 -0.000003 -0.000000  0.000000  0.000000 -0.000000 -0.000000  0.000000
                                 0.000000 -0.000000

   3.5   2    -2.3301  -48.2006  0.000000  0.000000  0.000005  0.000036  0.000212  0.000969  0.003648  0.011483  0.029826  0.059119
                                 0.077567  0.012604 -0.146548 -0.304394 -0.113377  0.343204  0.308857  0.047418 -0.005681  0.003254
                                -0.041962  0.532597 -0.001512  0.000484  0.000000 -0.000000  0.000000 -0.000000  0.000000 -0.000000
                                -0.000000  0.000000

   4.5   0     0.0111   -2.9719 -0.000000 -0.000000 -0.000000 -0.000000 -0.000002 -0.000006 -0.000029 -0.000070 -0.000241 -0.000330
                                -0.000766  0.000467 -0.000379  0.006960 -0.108051 -0.018593 -0.017684  0.030286 -0.069587  0.208554
                                 0.114900  0.008398 -0.566747  1.338095 -0.000000  0.000000 -0.000000  0.000000 -0.000000  0.000000
                                -0.000000  0.000000

   5.5   0     0.0409   -4.8281 -0.000000 -0.000000 -0.000000 -0.000001 -0.000006 -0.000030 -0.000096 -0.000360 -0.000769 -0.001946
                                -0.001617 -0.001891  0.008417 -0.004216  0.312198  0.032398  0.031686 -0.077000  0.238992 -0.630121
                                -0.324215 -0.055782  2.099568 -1.176223 -0.000000  0.000000 -0.000000  0.000000 -0.000000  0.000000
                                -0.000000  0.000000

                                   1 3d1+    1 3d1+    1 3d1+    1 3d1+    1 3d1+    1 3d1+    1 3d1+    1 3d1+    1 3d1+    1 3d1+ 
                                   1 3d1+    1 3d1+    1 3d1+    1 3d1+    1 3d1+    1 3d1+    1 3d1+    1 5g1+    1 5g3+    1 5g1+ 
                                   1 5g3+    1 5g1+    1 5g3+ 

   1.6   2   -13.3634 -117.5115  0.000092  0.001079  0.007217  0.031002  0.096122  0.216395  0.333871  0.339067  0.181543  0.044190
                                 0.004836 -0.000077  0.000062 -0.000017 -0.006746 -0.005010  0.000005 -0.000000  0.000000  0.000000
                                -0.000000 -0.000000  0.000000

   2.6   2    -0.3360  -34.9587 -0.000027 -0.000323 -0.002168 -0.009382 -0.029419 -0.067010 -0.100090 -0.089719  0.039520  0.247335
                                 0.362390  0.326109  0.212439  0.072300  0.008341  0.006132  0.002202 -0.000000 -0.000000 -0.000000
                                -0.000000  0.000000 -0.000000

   3.6   0     0.1008   -6.0376  0.000003  0.000021  0.000213  0.000647  0.002898  0.004243  0.012149 -0.004590  0.057942  0.535614
                                 0.449248 -0.189147  0.186987 -0.476030 -0.399488 -0.606035  1.255894  0.000000  0.000000 -0.000000
                                -0.000000 -0.000000  0.000000

   4.6   0     0.3431   -9.9952  0.000005  0.000107  0.000484  0.002972  0.006559  0.022454  0.014990  0.062658 -0.208404 -1.865558
                                -1.673393  0.457585 -0.823655  1.896121  1.281356  1.970788 -0.890893  0.000000 -0.000000 -0.000000
                                 0.000000 -0.000000 -0.000000

                                   1 3d1-    1 3d1-    1 3d1-    1 3d1-    1 3d1-    1 3d1-    1 3d1-    1 3d1-    1 3d1-    1 3d1- 
                                   1 3d1-    1 3d1-    1 3d1-    1 3d1-    1 3d1-    1 3d1-    1 3d1-    1 5g1-    1 5g3-    1 5g1- 
                                   1 5g3-    1 5g1-    1 5g3- 

   1.7   2   -13.3634 -117.5115  0.000092  0.001079  0.007217  0.031002  0.096122  0.216395  0.333871  0.339067  0.181543  0.044190
                                 0.004836 -0.000077  0.000062 -0.000017 -0.006746 -0.005010  0.000005 -0.000000  0.000000  0.000000
                                -0.000000 -0.000000  0.000000

   2.7   2    -0.3360  -34.9587 -0.000027 -0.000323 -0.002168 -0.009382 -0.029419 -0.067010 -0.100090 -0.089719  0.039520  0.247335
                                 0.362390  0.326109  0.212439  0.072300  0.008341  0.006132  0.002202 -0.000000 -0.000000 -0.000000
                                -0.000000  0.000000 -0.000000

   3.7   0     0.1008   -6.0376  0.000003  0.000021  0.000213  0.000647  0.002898  0.004243  0.012149 -0.004590  0.057942  0.535614
                                 0.449248 -0.189147  0.186987 -0.476030 -0.399488 -0.606035  1.255894  0.000000  0.000000 -0.000000
                                -0.000000 -0.000000  0.000000

   4.7   0     0.3431   -9.9952  0.000005  0.000107  0.000484  0.002972  0.006559  0.022454  0.014990  0.062658 -0.208404 -1.865558
                                -1.673393  0.457585 -0.823655  1.896121  1.281356  1.970788 -0.890893  0.000000 -0.000000 -0.000000
                                 0.000000 -0.000000 -0.000000

                                   1 4f2-    1 4f2-    1 4f2-    1 4f2- 

   1.8   0     0.8928  -13.9159 -0.007401  0.134162 -0.234177  1.118355

   2.8   0     2.0965  -22.5629 -0.214190  0.056588 -1.275542  0.765405

 HOMO      2.6    -0.336001 =      -9.1430eV
 LUMO      9.1     0.005057 =       0.1376eV
 LUMO-HOMO         0.341058 =       9.2807eV


 **********************************************************************************************************************************
 DATASETS  * FILE   NREC   LENGTH (MB)   RECORD NAMES
              1      18       20.36       500      610      700      900      950      970     1000      129      960     1100   
                                          VAR    BASINP    GEOM    SYMINP    ZMAT    AOBASIS   BASIS     P2S    ABASIS      S 
                                         1400     1410     1200     1210     1080     1600     1650     1700   
                                           T        V       H0       H01     AOSYM     SMH    MOLCAS    OPER   

              2       5        5.58       200      700     1000      520     4202   
                                        OPTIONS   GEOM     BASIS   MCVARS     RHF  

 PROGRAMS   *        TOTAL       RHF       INT
 CPU TIMES  *        31.06      0.83     28.81
 REAL TIME  *        34.25 SEC
 DISK USED  *         1.48 GB      
 SF USED    *         0.04 MB      
 GA USED    *         0.00 MB       (max)       0.00 MB       (current)
 **********************************************************************************************************************************
 SETTING SCF(1)         =     -4937.92083412  AU                              
 SETTING _CC_NORM_MAX   =         2.00000000                                  


 PROGRAM * CCSD (Restricted open-shell coupled cluster)     Authors: C. Hampel, H.-J. Werner, 1991, M. Deegan, P.J. Knowles, 1992


 Convergence thresholds:  THRVAR = 1.00D-08  THRDEN = 1.00D-06

 CCSD(T)     terms to be evaluated (factor= 1.000)


 Number of core orbitals:          14 (   5   2   2   1   2   1   1   0 )
 Number of closed-shell orbitals:   9 (   3   1   1   1   1   1   1   0 )
 Number of external orbitals:     219 (  65  29  29  21  29  21  21   4 )

 Memory could be reduced to 24.62 Mwords without degradation in triples

 Number of N-1 electron functions:              18
 Number of N-2 electron functions:             153
 Number of singly external CSFs:               690
 Number of doubly external CSFs:            717975
 Total number of CSFs:                      718665

 Molecular orbitals read from record     4202.2  Type=RHF/CANONICAL (state 1.1)

 Integral transformation finished. Total CPU:   0.64 sec, npass=  1  Memory used:   4.80 MW

 Starting RMP2 calculation

 Wavefunction is spin-projected

 ITER.      SQ.NORM     CORR.ENERGY   TOTAL ENERGY   ENERGY CHANGE        DEN1      VAR(S)    VAR(P)  DIIS     TIME
   1      1.13002335    -0.68061819 -4938.60145231    -0.68061819    -0.00125165  0.59D-11  0.46D-03  1  1     1.17
   2      1.13110305    -0.68193882 -4938.60277294    -0.00132062    -0.00000286  0.20D-12  0.19D-05  2  2     1.86
   3      1.13115848    -0.68197257 -4938.60280669    -0.00003375    -0.00000001  0.63D-14  0.71D-08  3  3     2.40
   4      1.13115982    -0.68197280 -4938.60280692    -0.00000023    -0.00000000  0.21D-15  0.33D-10  4  4     3.03

 Norm of t1 vector:      0.00001735      S-energy:    -0.00000000      T1 diagnostic:  0.00000289
 Norm of t2 vector:      0.36215994      P-energy:    -0.68197280
                                         Alpha-Beta:  -0.45566843
                                         Alpha-Alpha: -0.11315219
                                         Beta-Beta:   -0.11315219

 Spin contamination <S**2-Sz**2-Sz>     0.00000000
  Reference energy                  -4937.920834121760
  RHF-RMP2 correlation energy          -0.681972802373
 !RHF-RMP2 energy                   -4938.602806924133
 (NB above energy spin projected)

 Starting RCCSD calculation

 ITER.      SQ.NORM     CORR.ENERGY   TOTAL ENERGY   ENERGY CHANGE        DEN1      VAR(S)    VAR(P)  DIIS     TIME
   1      1.10097675    -0.61707171 -4938.53790583    -0.61707171    -0.01571608  0.24D-02  0.30D-02  1  1     4.03
   2      1.10752923    -0.62974801 -4938.55058213    -0.01267630    -0.00063341  0.17D-04  0.23D-03  2  2     4.98
   3      1.10840647    -0.62981315 -4938.55064727    -0.00006515    -0.00007118  0.55D-04  0.11D-04  3  3     5.84
   4      1.10899569    -0.63008233 -4938.55091646    -0.00026918    -0.00000697  0.40D-05  0.17D-05  4  4     6.76
   5      1.10930182    -0.63015250 -4938.55098662    -0.00007016    -0.00000067  0.71D-06  0.11D-06  5  5     7.75
   6      1.10937734    -0.63015959 -4938.55099372    -0.00000710    -0.00000008  0.51D-07  0.21D-07  6  6     8.64
   7      1.10939858    -0.63016022 -4938.55099434    -0.00000062    -0.00000001  0.20D-07  0.12D-08  6  1     9.51
   8      1.10940392    -0.63016105 -4938.55099517    -0.00000083    -0.00000000  0.13D-08  0.24D-09  6  2    10.52

 Norm of t1 vector:      0.05206348      S-energy:     0.00000023      T1 diagnostic:  0.00867725
                                                                       D1 diagnostic:  0.01760703
 Norm of t2 vector:      0.32663942      P-energy:    -0.63016128
                                         Alpha-Beta:  -0.43604313
                                         Alpha-Alpha: -0.09705908
                                         Beta-Beta:   -0.09705908

 Spin contamination <S**2-Sz**2-Sz>     0.00000000

 Memory could be reduced to 25.43 Mwords without degradation in triples
 

  Correlated core orbitals:             6.1       3.2       3.3       3.5
  Orbital energies:                   -13.3634   -2.3301   -2.3301   -2.3301
 
  RCCSD core-core energy               -0.074492508787
  RCCSD core-valence energy            -0.214118643319
  RCCSD valence correlation energy     -0.341549897074
 

 RESULTS
 =======

  Reference energy                  -4937.920834121760
  RCCSD singles energy                  0.000000231841
  RCCSD pair energy                    -0.630161281021
  RCCSD correlation energy             -0.630161049179
  Triples (T) contribution             -0.025708836232
  Total correlation energy             -0.655869885411
 
  RHF-RCCSD energy                  -4938.550995170939
  RHF-RCCSD[T] energy               -4938.577724509439
  RHF-RCCSD-T energy                -4938.576570005353
 !RHF-RCCSD(T) energy               -4938.576704007171

 Program statistics:

 Available memory in ccsd:               511999162
 Min. memory needed in ccsd:               2185003
 Max. memory used in ccsd:                 3045010
 Max. memory used in cckext:               2682751 ( 8 integral passes)
 Max. memory used in cckint:               4801231 ( 1 integral passes)



 **********************************************************************************************************************************
 DATASETS  * FILE   NREC   LENGTH (MB)   RECORD NAMES
              1      18       20.36       500      610      700      900      950      970     1000      129      960     1100   
                                          VAR    BASINP    GEOM    SYMINP    ZMAT    AOBASIS   BASIS     P2S    ABASIS      S 
                                         1400     1410     1200     1210     1080     1600     1650     1700   
                                           T        V       H0       H01     AOSYM     SMH    MOLCAS    OPER   

              2       5        5.58       200      700     1000      520     4202   
                                        OPTIONS   GEOM     BASIS   MCVARS     RHF  

 PROGRAMS   *        TOTAL  RCCSD(T)       RHF       INT
 CPU TIMES  *        47.34     16.28      0.83     28.81
 REAL TIME  *        56.09 SEC
 DISK USED  *         3.53 GB      
 SF USED    *       380.64 MB      
 GA USED    *         0.00 MB       (max)       0.00 MB       (current)
 **********************************************************************************************************************************
 SETTING CCSD(1)        =     -4938.57670401  AU                              

 DO I                   =         2.00000000   

 Running procedure=EAS2D9


 PROGRAM * RHF-SCF (OPEN SHELL)       Authors: W. Meyer, H.-J. Werner


 NUMBER OF ELECTRONS:      24+   23-    SPACE SYMMETRY=1    SPIN SYMMETRY: Doublet 
 CONVERGENCE THRESHOLDS:    1.00E-05 (Density)    1.00E-07 (Energy)
 MAX. NUMBER OF ITERATIONS:       60
 INTERPOLATION TYPE:            DIIS
 INTERPOLATION STEPS:              2 (START)      1 (STEP)
 LEVEL SHIFTS:                 -0.60 (CLOSED) -0.30 (OPEN) 

 Number of closed-shell orbitals:   23 (   8   3   3   2   3   2   2   0 )
 Number of open-shell orbitals:      1 (   1   0   0   0   0   0   0   0 )


 
 Extra symmetries of mos in symmetry 1:   1   1   1   1   3   2   1   3   2
 Orbital guess generated from atomic densities. Full valence occupancy:    9   3   3   2   3   2   2   0


 Molecular orbital dump at record        4202.2

 ITERATION    DDIFF          GRAD             ENERGY        2-EL.EN.            DIPOLE MOMENTS         DIIS   ORB.
    1      0.000D+00      0.000D+00     -4916.25874699   3255.629785    0.00000    0.00000    0.00000    0    start
    2      0.000D+00      0.120D+00     -4929.47361283   4114.491861    0.00000    0.00000    0.00000    1    diag,B
    3      0.156D+01      0.158D+00     -4935.37690930   3958.348918    0.00000    0.00000    0.00000    2    diag,B
    4      0.897D+00      0.629D-01     -4937.49886462   3843.012034    0.00000    0.00000    0.00000    3    diag,B
    5      0.614D+00      0.139D-01     -4937.76022281   3812.999814    0.00000    0.00000    0.00000    4    diag,B
    6      0.607D-01      0.476D-02     -4937.83028835   3799.765017    0.00000    0.00000    0.00000    5    diag,B
    7      0.522D-01      0.290D-02     -4937.85762993   3799.778357    0.00000    0.00000    0.00000    6    fixocc
    8      0.213D-01      0.164D-02     -4937.87682180   3798.689827    0.00000    0.00000    0.00000    7    diag,B
    9      0.154D-01      0.100D-02     -4937.88678135   3796.428362    0.00000    0.00000    0.00000    8    diag,B
   10      0.152D-01      0.562D-03     -4937.89027333   3795.283083    0.00000    0.00000    0.00000    9    orth
   11      0.592D-02      0.408D-03     -4937.89256166   3794.442224    0.00000    0.00000    0.00000    9    diag,B
   12      0.110D-01      0.270D-03     -4937.89401699   3793.222919    0.00000    0.00000    0.00000    9    diag,B
   13      0.119D-01      0.122D-03     -4937.89416686   3793.180789    0.00000    0.00000    0.00000    9    diag,B
   14      0.108D-02      0.106D-03     -4937.89434275   3792.978764    0.00000    0.00000    0.00000    9    diag,B
   15      0.102D-02      0.903D-04     -4937.89467003   3792.643724    0.00000    0.00000    0.00000    9    diag,B
   16      0.454D-02      0.480D-04     -4937.89475131   3792.460900    0.00000    0.00000    0.00000    9    diag,B
   17      0.327D-02      0.144D-04     -4937.89475435   3792.396050    0.00000    0.00000    0.00000    9    diag,B
   18      0.460D-03      0.730D-05     -4937.89475463   3792.411506    0.00000    0.00000    0.00000    9    diag,B
   19      0.879D-04      0.409D-05     -4937.89475480   3792.396983    0.00000    0.00000    0.00000    9    diag,B
   20      0.846D-04      0.224D-05     -4937.89475484   3792.399665    0.00000    0.00000    0.00000    9    orth
   21      0.921D-05      0.159D-05     -4937.89475477   3792.399108    0.00000    0.00000    0.00000    0    orth

 Final alpha occupancy:   9   3   3   2   3   2   2   0
 Final beta  occupancy:   8   3   3   2   3   2   2   0

 !RHF STATE 1.1 Energy              -4937.894754772593
 Nuclear energy                         0.00000000
 One-electron energy                -6834.09430867
 Two-electron energy                 1896.19955390
 Virial quotient                       -0.99999997
 !RHF STATE 1.1 Dipole moment           0.00000000     0.00000000     0.00000000
 Dipole moment /Debye                   0.00000000     0.00000000     0.00000000

 ELECTRON ORBITALS
 =================


   Orb  Occ    Energy  Couls-En    Coefficients

                                   1 1s      1 1s      1 1s      1 1s      1 1s      1 1s      1 1s      1 1s      1 1s      1 1s   
                                   1 1s      1 1s      1 1s      1 1s      1 1s      1 1s      1 1s      1 1s      1 1s      1 1s   
                                   1 1s      1 1s      1 1s      1 1s      1 1s      1 1s      1 1s      1 1s      1 1s      1 1s   
                                   1 3d0     1 3d2+    1 3d0     1 3d2+    1 3d0     1 3d2+    1 3d0     1 3d2+    1 3d0     1 3d2+ 
                                   1 3d0     1 3d2+    1 3d0     1 3d2+    1 3d0     1 3d2+    1 3d0     1 3d2+    1 3d0     1 3d2+ 
                                   1 3d0     1 3d2+    1 3d0     1 3d2+    1 3d0     1 3d2+    1 3d0     1 3d2+    1 3d0     1 3d2+ 
                                   1 3d0     1 3d2+    1 3d0     1 3d2+    1 5g0     1 5g4+    1 5g2+    1 5g0     1 5g4+    1 5g2+ 
                                   1 5g0     1 5g4+    1 5g2+ 

   1.1   2  -873.3040-1931.1302  0.000000  0.000002  0.000012  0.000054  0.000204  0.000679  0.002058  0.005839  0.015733  0.040060
                                 0.094253  0.193474  0.311507  0.318945  0.147430  0.016839  0.001487 -0.000874  0.000850 -0.001600
                                -0.001539  0.000771  0.000102 -0.000012  0.000009 -0.000005  0.002329 -0.000553  0.000002 -0.000001
                                 0.000000 -0.000000  0.000000  0.000000  0.000001  0.000000  0.000001 -0.000000 -0.000000  0.000000
                                -0.000000 -0.000000 -0.000000  0.000000  0.000000 -0.000000 -0.000000  0.000000 -0.000000  0.000000
                                -0.000000  0.000000  0.000000 -0.000000  0.000000  0.000000  0.000000 -0.000000  0.000000 -0.000000
                                 0.000000 -0.000000 -0.000000 -0.000000 -0.000000  0.000000 -0.000000  0.000000  0.000000  0.000000
                                -0.000000  0.000000  0.000000

   2.1   2  -127.9610 -390.0704 -0.000000 -0.000001 -0.000004 -0.000017 -0.000066 -0.000218 -0.000663 -0.001889 -0.005144 -0.013360
                                -0.032888 -0.073847 -0.142649 -0.200115 -0.110007  0.256506  0.562641  0.327100  0.048987  0.003155
                                 0.000923 -0.000555 -0.000082  0.000003 -0.000003  0.000002 -0.001411  0.000288 -0.000001  0.000000
                                 0.000000 -0.000000  0.000000 -0.000000  0.000000 -0.000000  0.000004 -0.000000  0.000024 -0.000000
                                 0.000023 -0.000000  0.000002 -0.000000  0.000005 -0.000000 -0.000002  0.000000 -0.000011  0.000000
                                -0.000000  0.000000  0.000003 -0.000000  0.000001  0.000000  0.000000  0.000000  0.000014 -0.000000
                                 0.000006 -0.000000 -0.000000 -0.000000  0.000005 -0.000000 -0.000000 -0.000002 -0.000000  0.000000
                                 0.000001  0.000000 -0.000000

   3.1   2   -24.2048 -133.5329  0.000000  0.000000  0.000002  0.000007  0.000028  0.000094  0.000286  0.000815  0.002225  0.005788
                                 0.014359  0.032594  0.064798  0.095236  0.057649 -0.162893 -0.485641 -0.376083  0.360863  0.816753
                                 0.277165 -0.039964 -0.006031  0.001009 -0.000731  0.000396 -0.054738  0.038025 -0.000171  0.000043
                                 0.000000  0.000000  0.000001  0.000000  0.000006  0.000000  0.000025  0.000000  0.000060  0.000000
                                 0.000175  0.000000  0.000312  0.000000  0.000447 -0.000000  0.000526 -0.000000  0.000317 -0.000000
                                 0.000036 -0.000000 -0.000045 -0.000000 -0.000015 -0.000000 -0.000004  0.000000 -0.000313  0.000000
                                -0.000173  0.000000  0.000000  0.000000  0.000058  0.000000  0.000000 -0.000105 -0.000000 -0.000000
                                 0.000023  0.000000  0.000000

   4.1   2    -3.5750  -53.0787 -0.000000 -0.000000 -0.000001 -0.000003 -0.000012 -0.000039 -0.000118 -0.000336 -0.000919 -0.002388
                                -0.005937 -0.013497 -0.027004 -0.040002 -0.024831  0.072658  0.229698  0.192667 -0.220044 -0.751345
                                -0.145767  0.812055  0.578288  0.043018 -0.021585  0.010684 -0.055911 -0.017768 -0.004473  0.001136
                                -0.000000 -0.000000 -0.000000  0.000000 -0.000002 -0.000000 -0.000011  0.000000 -0.000023 -0.000000
                                -0.000082 -0.000000 -0.000123 -0.000000 -0.000225 -0.000000 -0.000424  0.000000  0.000798  0.000000
                                -0.000291  0.000000 -0.002045 -0.000000 -0.001223  0.000000 -0.000191 -0.000000  0.000157 -0.000000
                                 0.000741 -0.000000 -0.000010  0.000000 -0.000200  0.000000 -0.000000 -0.000455 -0.000000  0.000000
                                -0.000757  0.000000 -0.000000

   5.1   2   -13.3513 -117.5128  0.000000  0.000000  0.000000  0.000000  0.000000  0.000000  0.000000  0.000000  0.000000  0.000000
                                 0.000000  0.000000  0.000000  0.000000  0.000000 -0.000000 -0.000000 -0.000000  0.000000  0.000000
                                -0.000000 -0.000000  0.000000  0.000000 -0.000000  0.000000 -0.000000  0.000000  0.000000  0.000000
                                -0.000000  0.000092 -0.000000  0.001079 -0.000000  0.007220 -0.000000  0.031014 -0.000000  0.096164
                                -0.000000  0.216481 -0.000000  0.333998 -0.000000  0.339060 -0.000000  0.181276 -0.000000  0.043851
                                -0.000000  0.004707 -0.000000 -0.000095 -0.000000  0.000055  0.000000 -0.000017  0.000000 -0.006497
                                 0.000000 -0.004901 -0.000000  0.000005 -0.000000 -0.000000  0.000168  0.000000  0.000000 -0.000036
                                -0.000000 -0.000000  0.000034

   6.1   2   -13.3525 -117.4361 -0.000000 -0.000000 -0.000000 -0.000000 -0.000000 -0.000000 -0.000000 -0.000001 -0.000003 -0.000008
                                -0.000020 -0.000045 -0.000090 -0.000131 -0.000083  0.000238  0.000694  0.000634 -0.000675 -0.001896
                                 0.000134  0.000534 -0.000026 -0.000009  0.000008 -0.000006  0.000373 -0.000275 -0.000001 -0.000002
                                 0.000091  0.000000  0.001077  0.000000  0.007203  0.000000  0.030943  0.000000  0.095929  0.000000
                                 0.215982  0.000000  0.333337  0.000000  0.338984  0.000000  0.182504  0.000000  0.044808  0.000000
                                 0.005051  0.000000  0.000053 -0.000000  0.000140  0.000000 -0.000003 -0.000000 -0.006665 -0.000000
                                -0.005113 -0.000000  0.000006  0.000000  0.000435 -0.000000  0.000000 -0.000288 -0.000000 -0.000000
                                 0.000099  0.000000  0.000000

   7.1   2    -0.0196  -11.7411  0.000000  0.000000  0.000000  0.000000  0.000002  0.000006  0.000019  0.000055  0.000149  0.000388
                                 0.000963  0.002198  0.004382  0.006542  0.003990 -0.011773 -0.038506 -0.031379  0.035032  0.154597
                                 0.065136 -0.271432 -0.251319  0.052920  0.302490  0.344230 -0.028111  0.101904  0.317428  0.167396
                                 0.000000 -0.000000  0.000001 -0.000000  0.000009 -0.000000  0.000037 -0.000000  0.000115 -0.000000
                                 0.000265 -0.000000  0.000399 -0.000000  0.000359 -0.000000 -0.000061  0.000000 -0.000814  0.000000
                                -0.001275  0.000000  0.000333 -0.000000  0.004673  0.000000  0.005481 -0.000000 -0.000443 -0.000000
                                -0.000723 -0.000000  0.004328  0.000000 -0.000092  0.000000  0.000000 -0.000275  0.000000 -0.000000
                                 0.000226 -0.000000  0.000000

   8.1   2    -0.2902  -35.9432 -0.000000 -0.000000 -0.000000 -0.000000 -0.000000 -0.000000 -0.000000 -0.000000 -0.000000 -0.000000
                                -0.000000 -0.000000 -0.000000 -0.000000 -0.000000  0.000000  0.000000  0.000000  0.000000 -0.000000
                                -0.000000  0.000000  0.000000 -0.000000 -0.000000  0.000000  0.000000 -0.000000  0.000000 -0.000000
                                -0.000000 -0.000028 -0.000000 -0.000335 -0.000000 -0.002247 -0.000000 -0.009722 -0.000000 -0.030498
                                -0.000000 -0.069444 -0.000000 -0.103769 -0.000000 -0.092763  0.000000  0.041252  0.000000  0.253411
                                 0.000000  0.374269  0.000000  0.331990  0.000000  0.183757  0.000000  0.046057 -0.000000  0.011810
                                -0.000000  0.010773 -0.000000  0.001788 -0.000000 -0.000000  0.000851  0.000000  0.000000  0.001189
                                 0.000000  0.000000  0.002439

   9.1   +    -0.3698  -36.5691  0.000000  0.000000  0.000000  0.000000  0.000000  0.000000  0.000001  0.000002  0.000006  0.000015
                                 0.000038  0.000083  0.000173  0.000240  0.000185 -0.000533 -0.001324 -0.001731  0.002583  0.001937
                                -0.016531  0.012595  0.012625  0.018644 -0.002816 -0.003380  0.014518 -0.030322 -0.006241 -0.002554
                                -0.000029  0.000000 -0.000341  0.000000 -0.002290  0.000000 -0.009911  0.000000 -0.031082  0.000000
                                -0.070805  0.000000 -0.105773  0.000000 -0.094608 -0.000000  0.040627  0.000000  0.259090  0.000000
                                 0.385549 -0.000000  0.334209 -0.000000  0.165707 -0.000000  0.031843  0.000000  0.010848 -0.000000
                                 0.010313  0.000000  0.000556 -0.000000  0.002038 -0.000000 -0.000000  0.004075  0.000000  0.000000
                                 0.005291  0.000000  0.000000

  10.1   0     0.0769   -3.1967 -0.000000 -0.000000 -0.000000 -0.000000 -0.000000 -0.000001 -0.000005 -0.000013 -0.000039 -0.000089
                                -0.000253 -0.000494 -0.001190 -0.001309 -0.001719  0.004707  0.005042  0.018445 -0.038017  0.101571
                                 0.385643 -0.555747 -0.231842  0.310744 -0.909603  1.700553 -0.367924  0.681694 -3.059699  2.425091
                                -0.000000 -0.000000 -0.000002  0.000000 -0.000012 -0.000000 -0.000052 -0.000000 -0.000163 -0.000000
                                -0.000372  0.000000 -0.000558 -0.000000 -0.000491  0.000000  0.000153 -0.000000  0.000986 -0.000000
                                 0.001627 -0.000000  0.001142  0.000000 -0.000786 -0.000000 -0.001210  0.000000  0.000436  0.000000
                                 0.000687  0.000000 -0.000880 -0.000000  0.000045  0.000000 -0.000000  0.000087 -0.000000  0.000000
                                -0.000381  0.000000 -0.000000

  11.1   0     0.1620   -6.1871 -0.000000 -0.000000 -0.000000 -0.000000 -0.000001 -0.000004 -0.000011 -0.000036 -0.000087 -0.000256
                                -0.000559 -0.001471 -0.002452 -0.004761 -0.000742  0.003042  0.034290 -0.005754  0.047387 -0.424538
                                -0.988588  1.645340  0.861876 -0.849800  1.976327 -4.786748  0.900613 -1.742133  4.829839 -1.490994
                                -0.000000 -0.000000 -0.000004 -0.000000 -0.000028 -0.000000 -0.000122 -0.000000 -0.000378 -0.000000
                                -0.000871 -0.000000 -0.001287 -0.000000 -0.001193  0.000000  0.000626 -0.000000  0.004926 -0.000000
                                 0.005982 -0.000000  0.001862  0.000000 -0.001862 -0.000000 -0.003281  0.000000 -0.000816  0.000000
                                -0.001195  0.000000 -0.001474 -0.000001  0.000113  0.000000 -0.000000  0.000213 -0.000000  0.000000
                                -0.000996  0.000000 -0.000000

                                   1 2px     1 2px     1 2px     1 2px     1 2px     1 2px     1 2px     1 2px     1 2px     1 2px  
                                   1 2px     1 2px     1 2px     1 2px     1 2px     1 2px     1 2px     1 2px     1 2px     1 2px  
                                   1 2px     1 2px     1 2px     1 2px     1 4f1+    1 4f3+    1 4f1+    1 4f3+    1 4f1+    1 4f3+ 
                                   1 4f1+    1 4f3+ 

   1.2   2  -118.5226 -380.0124  0.000000  0.000002  0.000027  0.000211  0.001223  0.005571  0.020625  0.063277  0.156041  0.289844
                                 0.356352  0.227532  0.056654  0.004855 -0.005643 -0.000429 -0.000051  0.000009 -0.000006  0.000003
                                 0.005882  0.000060 -0.000002  0.000001 -0.000003 -0.000000 -0.000005  0.000000  0.000001 -0.000000
                                -0.000001  0.000000

   2.2   2   -20.3626 -127.7273 -0.000000 -0.000001 -0.000012 -0.000095 -0.000548 -0.002509 -0.009399 -0.029553 -0.075916 -0.149463
                                -0.192523 -0.053395  0.280185  0.502554  0.369413  0.052926  0.000702 -0.000011  0.000033 -0.000019
                                -0.070166  0.002099  0.000008 -0.000003  0.000344 -0.000000 -0.000108  0.000000  0.000097 -0.000000
                                -0.000027  0.000000

   3.2   2    -2.3040  -48.3498  0.000000  0.000000  0.000005  0.000037  0.000213  0.000975  0.003669  0.011553  0.029995  0.059486
                                 0.077986  0.012770 -0.147742 -0.305570 -0.133437  0.343167  0.301970  0.040694 -0.004406  0.002942
                                -0.021589  0.541954 -0.001217  0.000407  0.002389 -0.000000  0.003983  0.000000  0.003004 -0.000000
                                 0.000335 -0.000000

   4.2   0     0.0689   -2.5106 -0.000000  0.000000 -0.000000  0.000000 -0.000001 -0.000000 -0.000017 -0.000001 -0.000155  0.000074
                                -0.000759  0.001387 -0.003335  0.012969 -0.280251 -0.041326 -0.039129  0.072470 -0.176009  0.483300
                                 0.295493  0.031623 -1.191037  1.631599 -0.000004 -0.000000  0.000000  0.000000 -0.000009 -0.000000
                                 0.000069  0.000000

   5.2   0     0.1282   -4.6602  0.000000  0.000000  0.000000  0.000001  0.000004  0.000029  0.000079  0.000351  0.000619  0.001961
                                 0.000936  0.003018 -0.011041  0.015070 -0.542033 -0.066550 -0.063720  0.133186 -0.405089  0.978614
                                 0.566669  0.081772 -2.196538  0.889731  0.000050 -0.000000 -0.000029  0.000000  0.000122  0.000000
                                -0.000807 -0.000000

                                   1 2py     1 2py     1 2py     1 2py     1 2py     1 2py     1 2py     1 2py     1 2py     1 2py  
                                   1 2py     1 2py     1 2py     1 2py     1 2py     1 2py     1 2py     1 2py     1 2py     1 2py  
                                   1 2py     1 2py     1 2py     1 2py     1 4f1-    1 4f3-    1 4f1-    1 4f3-    1 4f1-    1 4f3- 
                                   1 4f1-    1 4f3- 

   1.3   2  -118.5226 -380.0124  0.000000  0.000002  0.000027  0.000211  0.001223  0.005571  0.020625  0.063277  0.156041  0.289844
                                 0.356352  0.227532  0.056654  0.004855 -0.005643 -0.000429 -0.000051  0.000009 -0.000006  0.000003
                                 0.005882  0.000060 -0.000002  0.000001 -0.000003 -0.000000 -0.000005  0.000000  0.000001 -0.000000
                                -0.000001  0.000000

   2.3   2   -20.3626 -127.7273 -0.000000 -0.000001 -0.000012 -0.000095 -0.000548 -0.002509 -0.009399 -0.029553 -0.075916 -0.149463
                                -0.192523 -0.053395  0.280185  0.502554  0.369413  0.052926  0.000702 -0.000011  0.000033 -0.000019
                                -0.070166  0.002099  0.000008 -0.000003  0.000344 -0.000000 -0.000108  0.000000  0.000097 -0.000000
                                -0.000027  0.000000

   3.3   2    -2.3040  -48.3498  0.000000  0.000000  0.000005  0.000037  0.000213  0.000975  0.003669  0.011553  0.029995  0.059486
                                 0.077986  0.012770 -0.147742 -0.305570 -0.133437  0.343167  0.301970  0.040694 -0.004406  0.002942
                                -0.021589  0.541954 -0.001217  0.000407  0.002389 -0.000000  0.003983  0.000000  0.003004 -0.000000
                                 0.000335 -0.000000

   4.3   0     0.0689   -2.5106 -0.000000  0.000000 -0.000000  0.000000 -0.000001 -0.000000 -0.000017 -0.000001 -0.000155  0.000074
                                -0.000759  0.001387 -0.003335  0.012969 -0.280251 -0.041326 -0.039129  0.072470 -0.176009  0.483300
                                 0.295493  0.031623 -1.191037  1.631599 -0.000004 -0.000000  0.000000  0.000000 -0.000009 -0.000000
                                 0.000069  0.000000

   5.3   0     0.1282   -4.6602  0.000000  0.000000  0.000000  0.000001  0.000004  0.000029  0.000079  0.000351  0.000619  0.001961
                                 0.000936  0.003018 -0.011041  0.015070 -0.542033 -0.066550 -0.063720  0.133186 -0.405089  0.978614
                                 0.566669  0.081772 -2.196538  0.889731  0.000050 -0.000000 -0.000029  0.000000  0.000122 -0.000000
                                -0.000807 -0.000000

                                   1 3d2-    1 3d2-    1 3d2-    1 3d2-    1 3d2-    1 3d2-    1 3d2-    1 3d2-    1 3d2-    1 3d2- 
                                   1 3d2-    1 3d2-    1 3d2-    1 3d2-    1 3d2-    1 3d2-    1 3d2-    1 5g2-    1 5g4-    1 5g2- 
                                   1 5g4-    1 5g2-    1 5g4- 

   1.4   2   -13.3513 -117.5128  0.000092  0.001079  0.007220  0.031014  0.096164  0.216481  0.333998  0.339060  0.181276  0.043851
                                 0.004707 -0.000095  0.000055 -0.000017 -0.006497 -0.004901  0.000005  0.000168 -0.000000 -0.000036
                                 0.000000  0.000034 -0.000000

   2.4   2    -0.2902  -35.9432 -0.000028 -0.000335 -0.002247 -0.009722 -0.030498 -0.069444 -0.103769 -0.092763  0.041252  0.253411
                                 0.374269  0.331990  0.183757  0.046057  0.011810  0.010773  0.001788  0.000851 -0.000000  0.001189
                                 0.000000  0.002439  0.000000

   3.4   0     0.2135   -5.7832  0.000003  0.000013  0.000181  0.000437  0.002459  0.002651  0.011227 -0.009300  0.074027  0.679169
                                 0.574703 -0.222028  0.242919 -0.546298 -0.499056 -0.756469  1.286482 -0.000015  0.000000 -0.000051
                                -0.000000 -0.000014  0.000000

   4.4   0     0.4709   -9.7782 -0.000004 -0.000101 -0.000439 -0.002782 -0.005944 -0.021110 -0.012837 -0.061065  0.209320  1.873300
                                 1.674293 -0.464264  0.779717 -1.862271 -1.290635 -1.981773  0.847021  0.000042 -0.000000  0.000250
                                 0.000000 -0.000110  0.000000

                                   1 2pz     1 2pz     1 2pz     1 2pz     1 2pz     1 2pz     1 2pz     1 2pz     1 2pz     1 2pz  
                                   1 2pz     1 2pz     1 2pz     1 2pz     1 2pz     1 2pz     1 2pz     1 2pz     1 2pz     1 2pz  
                                   1 2pz     1 2pz     1 2pz     1 2pz     1 4f0     1 4f2+    1 4f0     1 4f2+    1 4f0     1 4f2+ 
                                   1 4f0     1 4f2+ 

   1.5   2  -118.5278 -380.0175  0.000000  0.000002  0.000027  0.000211  0.001223  0.005571  0.020625  0.063276  0.156038  0.289839
                                 0.356364  0.227540  0.056632  0.004856 -0.005672 -0.000421 -0.000049  0.000010 -0.000006  0.000003
                                 0.005918  0.000066 -0.000002  0.000001  0.000020 -0.000000  0.000001  0.000000  0.000004 -0.000000
                                -0.000000  0.000000

   2.5   2   -20.3816 -127.7366 -0.000000 -0.000001 -0.000012 -0.000094 -0.000547 -0.002509 -0.009397 -0.029543 -0.075893 -0.149412
                                -0.192481 -0.053402  0.280035  0.502245  0.369637  0.053028  0.000653 -0.000028  0.000033 -0.000020
                                -0.069930  0.001964  0.000009 -0.000003  0.000632 -0.000000 -0.000551  0.000000  0.000164 -0.000000
                                -0.000082  0.000000

   3.5   2    -2.3086  -48.4000  0.000000  0.000000  0.000005  0.000037  0.000213  0.000976  0.003673  0.011566  0.030027  0.059554
                                 0.078070  0.012814 -0.147997 -0.305532 -0.137773  0.342878  0.300148  0.038335 -0.004352  0.002784
                                -0.017867  0.545362 -0.001152  0.000385 -0.000876 -0.000000 -0.000934  0.000000 -0.003053  0.000000
                                -0.001048 -0.000000

   4.5   0     0.0689   -2.5123 -0.000000  0.000000 -0.000000  0.000000 -0.000001 -0.000000 -0.000018 -0.000003 -0.000161  0.000062
                                -0.000773  0.001381 -0.003295  0.013000 -0.279575 -0.041330 -0.039163  0.072632 -0.175468  0.483411
                                 0.294823  0.031409 -1.189142  1.630720 -0.000011 -0.000000 -0.000011  0.000000  0.000001 -0.000000
                                 0.000145  0.000000

   5.5   0     0.1275   -4.7215  0.000000  0.000000  0.000000  0.000001  0.000005  0.000032  0.000088  0.000377  0.000693  0.002095
                                 0.001140  0.003001 -0.011288  0.013934 -0.533719 -0.064303 -0.061682  0.128570 -0.404502  0.954394
                                 0.557506  0.082725 -2.176245  0.884971  0.000135 -0.000000  0.000052  0.000000  0.000069 -0.000000
                                -0.001726 -0.000000

                                   1 3d1+    1 3d1+    1 3d1+    1 3d1+    1 3d1+    1 3d1+    1 3d1+    1 3d1+    1 3d1+    1 3d1+ 
                                   1 3d1+    1 3d1+    1 3d1+    1 3d1+    1 3d1+    1 3d1+    1 3d1+    1 5g1+    1 5g3+    1 5g1+ 
                                   1 5g3+    1 5g1+    1 5g3+ 

   1.6   2   -13.3641 -117.5193  0.000092  0.001079  0.007219  0.031009  0.096148  0.216462  0.333957  0.338986  0.181351  0.043963
                                 0.004749 -0.000087  0.000056 -0.000017 -0.006463 -0.004892  0.000005  0.000355 -0.000000 -0.000210
                                 0.000000  0.000078 -0.000000

   2.6   2    -0.3189  -36.1684 -0.000029 -0.000337 -0.002261 -0.009784 -0.030691 -0.069889 -0.104429 -0.093387  0.041223  0.254973
                                 0.377416  0.333011  0.177783  0.040633  0.012049  0.011198  0.001215  0.000885 -0.000000  0.001583
                                 0.000000  0.002389  0.000000

   3.6   0     0.2130   -5.7832  0.000003  0.000012  0.000174  0.000411  0.002371  0.002468  0.010912 -0.009475  0.073733  0.676152
                                 0.572546 -0.220031  0.242683 -0.541497 -0.496359 -0.752460  1.284262 -0.000066  0.000000 -0.000238
                                -0.000000 -0.000025  0.000000

   4.6   0     0.4680   -9.7397 -0.000004 -0.000099 -0.000428 -0.002726 -0.005796 -0.020699 -0.012407 -0.060190  0.207119  1.854149
                                 1.656858 -0.460646  0.767727 -1.857323 -1.277913 -1.962153  0.848586  0.000220 -0.000000  0.001107
                                 0.000000 -0.000433  0.000000

                                   1 3d1-    1 3d1-    1 3d1-    1 3d1-    1 3d1-    1 3d1-    1 3d1-    1 3d1-    1 3d1-    1 3d1- 
                                   1 3d1-    1 3d1-    1 3d1-    1 3d1-    1 3d1-    1 3d1-    1 3d1-    1 5g1-    1 5g3-    1 5g1- 
                                   1 5g3-    1 5g1-    1 5g3- 

   1.7   2   -13.3641 -117.5193  0.000092  0.001079  0.007219  0.031009  0.096148  0.216462  0.333957  0.338986  0.181351  0.043963
                                 0.004749 -0.000087  0.000056 -0.000017 -0.006463 -0.004892  0.000005  0.000355 -0.000000 -0.000210
                                 0.000000  0.000078 -0.000000

   2.7   2    -0.3189  -36.1684 -0.000029 -0.000337 -0.002261 -0.009784 -0.030691 -0.069889 -0.104429 -0.093387  0.041223  0.254973
                                 0.377416  0.333011  0.177783  0.040633  0.012049  0.011198  0.001215  0.000885 -0.000000  0.001583
                                 0.000000  0.002389  0.000000

   3.7   0     0.2130   -5.7832  0.000003  0.000012  0.000174  0.000411  0.002371  0.002468  0.010912 -0.009475  0.073733  0.676152
                                 0.572546 -0.220031  0.242683 -0.541497 -0.496359 -0.752460  1.284262 -0.000066  0.000000 -0.000238
                                -0.000000 -0.000025  0.000000

   4.7   0     0.4680   -9.7397 -0.000004 -0.000099 -0.000428 -0.002726 -0.005796 -0.020699 -0.012407 -0.060190  0.207119  1.854149
                                 1.656858 -0.460646  0.767727 -1.857323 -1.277913 -1.962153  0.848586  0.000220 -0.000000  0.001107
                                 0.000000 -0.000433  0.000000

                                   1 4f2-    1 4f2-    1 4f2-    1 4f2- 

   1.8   0     1.0177  -13.9758 -0.002652  0.132597 -0.206246  1.101423

   2.8   0     2.1559  -22.6021 -0.216013  0.038457 -1.257677  0.780708

 HOMO      2.4    -0.290204 =      -7.8969eV
 LUMO      4.5     0.068900 =       1.8749eV
 LUMO-HOMO         0.359104 =       9.7717eV


 **********************************************************************************************************************************
 DATASETS  * FILE   NREC   LENGTH (MB)   RECORD NAMES
              1      18       20.36       500      610      700      900      950      970     1000      129      960     1100   
                                          VAR    BASINP    GEOM    SYMINP    ZMAT    AOBASIS   BASIS     P2S    ABASIS      S 
                                         1400     1410     1200     1210     1080     1600     1650     1700   
                                           T        V       H0       H01     AOSYM     SMH    MOLCAS    OPER   

              2       5        5.66       200      700     1000      520     4202   
                                        OPTIONS   GEOM     BASIS   MCVARS     RHF  

 PROGRAMS   *        TOTAL       RHF  RCCSD(T)       RHF       INT
 CPU TIMES  *        49.22      1.88     16.28      0.83     28.81
 REAL TIME  *        58.60 SEC
 DISK USED  *         3.53 GB      
 SF USED    *       380.64 MB      
 GA USED    *         0.00 MB       (max)       0.00 MB       (current)
 **********************************************************************************************************************************


 PROGRAM * POP (Mulliken population analysis)

 
 Density matrix read from record         4202.2  Type=RHF/CHARGE (state 1.1)
 
 Population analysis by basis function type

 Unique atom        s        p        d        f        g    Total    Charge
   1  PD      9.99990 17.99969 18.99987  0.00031  0.00022 47.00000  - 1.00000


 **********************************************************************************************************************************
 DATASETS  * FILE   NREC   LENGTH (MB)   RECORD NAMES
              1      18       20.36       500      610      700      900      950      970     1000      129      960     1100   
                                          VAR    BASINP    GEOM    SYMINP    ZMAT    AOBASIS   BASIS     P2S    ABASIS      S 
                                         1400     1410     1200     1210     1080     1600     1650     1700   
                                           T        V       H0       H01     AOSYM     SMH    MOLCAS    OPER   

              2       5        5.66       200      700     1000      520     4202   
                                        OPTIONS   GEOM     BASIS   MCVARS     RHF  

 PROGRAMS   *        TOTAL       POP       RHF  RCCSD(T)       RHF       INT
 CPU TIMES  *        49.22      0.00      1.88     16.28      0.83     28.81
 REAL TIME  *        58.62 SEC
 DISK USED  *         3.53 GB      
 SF USED    *       380.64 MB      
 GA USED    *         0.00 MB       (max)       0.00 MB       (current)
 **********************************************************************************************************************************


 PROGRAM * MULTI (Direct Multiconfiguration SCF)       Authors: P.J. Knowles, H.-J. Werner (1984)     S.T. Elbert (1988)


 Number of closed-shell orbitals:  19 (   7   3   3   1   3   1   1   0 )
 Number of active  orbitals:        5 (   2   0   0   1   0   1   1   0 )
 Number of external orbitals:     218 (  64  29  29  21  29  21  21   4 )

 State symmetry 1

 Number of electrons:     9    Spin symmetry=Doublet   Space symmetry=1
 Number of states:        2
 Number of CSFs:          2   (2 determinants, 5 intermediate states)

 State symmetry 2

 Number of electrons:     9    Spin symmetry=Doublet   Space symmetry=4
 Number of states:        1
 Number of CSFs:          1   (1 determinants, 5 intermediate states)

 State symmetry 3

 Number of electrons:     9    Spin symmetry=Doublet   Space symmetry=6
 Number of states:        1
 Number of CSFs:          1   (1 determinants, 5 intermediate states)

 State symmetry 4

 Number of electrons:     9    Spin symmetry=Doublet   Space symmetry=7
 Number of states:        1
 Number of CSFs:          1   (1 determinants, 5 intermediate states)

 Molecular orbitals read from record     4202.2  Type=RHF/CANONICAL (state 1.1)
 *** IN SYMMETRY 1 ORBITAL  2 SYMMETRY CONTAMINATION OF 0.584D-04 HAS BEEN REMOVED
 *** IN SYMMETRY 1 ORBITAL  3 SYMMETRY CONTAMINATION OF 0.911D-03 HAS BEEN REMOVED
 *** IN SYMMETRY 1 ORBITAL  4 SYMMETRY CONTAMINATION OF 0.236D-02 HAS BEEN REMOVED
 *** IN SYMMETRY 1 ORBITAL  5 SYMMETRY CONTAMINATION OF 0.188D-03 HAS BEEN REMOVED
 *** IN SYMMETRY 1 ORBITAL  6 SYMMETRY CONTAMINATION OF 0.526D-02 HAS BEEN REMOVED
 *** IN SYMMETRY 1 ORBITAL  7 SYMMETRY CONTAMINATION OF 0.900D-02 HAS BEEN REMOVED
 *** IN SYMMETRY 1 ORBITAL  8 SYMMETRY CONTAMINATION OF 0.286D-02 HAS BEEN REMOVED
 *** IN SYMMETRY 1 ORBITAL  9 SYMMETRY CONTAMINATION OF 0.829D-01 HAS BEEN REMOVED

 EXTRA SYMMETRY OF MOS IN SYMMETRY 1:   1 1 1 1 3 2 1 3 2 1   1 2 3 1 2 3 1 2 3 1   2 3 4 6 5 2 3 1 4 6   5 2 3 4 6 5 1 2 3 1
                                        2 3 2 3 1 2 3 1 2 3   1 2 3 1 2 3 1 2 3 1   1 2 3 1 1 1 1 1 1 1   1 1 1
 *** IN SYMMETRY 2 ORBITAL  2 SYMMETRY CONTAMINATION OF 0.322D-03 HAS BEEN REMOVED
 *** IN SYMMETRY 2 ORBITAL  3 SYMMETRY CONTAMINATION OF 0.473D-02 HAS BEEN REMOVED
 EXTRA SYMMETRY OF MOS IN SYMMETRY 2:   1 1 1 1 1 1 1 1 2 3   2 3 1 2 3 1 2 3 1 1   1 1 1 1 1 1 1 1 1 1   1 1
 *** IN SYMMETRY 3 ORBITAL  2 SYMMETRY CONTAMINATION OF 0.322D-03 HAS BEEN REMOVED
 *** IN SYMMETRY 3 ORBITAL  3 SYMMETRY CONTAMINATION OF 0.473D-02 HAS BEEN REMOVED
 EXTRA SYMMETRY OF MOS IN SYMMETRY 3:   1 1 1 1 1 1 1 1 2 3   2 3 1 2 3 1 2 3 1 1   1 1 1 1 1 1 1 1 1 1   1 1
 *** IN SYMMETRY 4 ORBITAL  1 SYMMETRY CONTAMINATION OF 0.188D-03 HAS BEEN REMOVED
 *** IN SYMMETRY 4 ORBITAL  2 SYMMETRY CONTAMINATION OF 0.286D-02 HAS BEEN REMOVED
 EXTRA SYMMETRY OF MOS IN SYMMETRY 4:   1 1 1 1 1 1 2 3 1 2   3 1 2 3 1 1 1 1 1 1   1 1 1
 *** IN SYMMETRY 5 ORBITAL  1 SYMMETRY CONTAMINATION OF 0.210D-04 HAS BEEN REMOVED
 *** IN SYMMETRY 5 ORBITAL  2 SYMMETRY CONTAMINATION OF 0.797D-03 HAS BEEN REMOVED
 *** IN SYMMETRY 5 ORBITAL  3 SYMMETRY CONTAMINATION OF 0.289D-02 HAS BEEN REMOVED
 EXTRA SYMMETRY OF MOS IN SYMMETRY 5:   1 1 1 1 1 1 1 1 2 3   2 3 1 2 3 1 2 3 1 1   1 1 1 1 1 1 1 1 1 1   1 1
 *** IN SYMMETRY 6 ORBITAL  1 SYMMETRY CONTAMINATION OF 0.508D-03 HAS BEEN REMOVED
 *** IN SYMMETRY 6 ORBITAL  2 SYMMETRY CONTAMINATION OF 0.310D-02 HAS BEEN REMOVED
 EXTRA SYMMETRY OF MOS IN SYMMETRY 6:   1 1 1 1 1 1 2 3 1 2   3 1 2 3 1 1 1 1 1 1   1 1 1
 *** IN SYMMETRY 7 ORBITAL  1 SYMMETRY CONTAMINATION OF 0.508D-03 HAS BEEN REMOVED
 *** IN SYMMETRY 7 ORBITAL  2 SYMMETRY CONTAMINATION OF 0.310D-02 HAS BEEN REMOVED
 EXTRA SYMMETRY OF MOS IN SYMMETRY 7:   1 1 1 1 1 1 2 3 1 2   3 1 2 3 1 1 1 1 1 1   1 1 1

 Wavefunction dump at record             5202.2

 Convergence thresholds  0.10E-01 (gradient)  0.10E-05 (energy)  0.10E-02 (step length)

 Weight factors for state symmetry  1:    0.20000   0.20000
 Weight factors for state symmetry  2:    0.20000
 Weight factors for state symmetry  3:    0.20000
 Weight factors for state symmetry  4:    0.20000

 Number of orbital rotations:      980   (    17 Core/Active    772 Core/Virtual   0 Active/Active    191 Active/Virtual)
 Total number of variables:        987


 ITER. MIC  NCI  NEG     ENERGY(VAR)     ENERGY(PROJ)   ENERGY CHANGE     GRAD(0)  GRAD(ORB)   GRAD(CI)     STEP       TIME

   1   21   28    0   -4937.89046151   -4937.89136802   -0.00090652    0.07136206 0.00000000 0.00000000  0.25D-01      1.99
   2   19   20    0   -4937.89136838   -4937.89136849   -0.00000010    0.00024371 0.00000000 0.00000000  0.82D-03      4.01

 ** WVFN ****  CONVERGENCE REACHED, FINAL GRADIENT:  0.87D-07



 Results for state 1.1
 =====================

 !MCSCF STATE 1.1 Energy            -4937.891368487067
 Nuclear energy                         0.00000000
 Kinetic energy                      4937.89174081
 One electron energy                -6834.09362801
 Two electron energy                 1896.20225952
 Virial ratio                           1.99999992

 !MCSCF STATE 1.1 Dipole moment         0.00000000     0.00000000     0.00000000
[...]
 CPU TIMES  *       354.06      1.09      3.91      0.73      8.52      1.40      6.82      0.29      9.50      0.00      1.00
 REAL TIME  *       618.98 SEC
 DISK USED  *         4.58 GB      
 SF USED    *       429.22 MB      
 GA USED    *         0.00 MB       (max)       0.00 MB       (current)
 **********************************************************************************************************************************
 SETTING SCF(12)        =     -4880.80114051  AU                              
 SETTING _CC_NORM_MAX   =         2.00000000                                  


 PROGRAM * CCSD (Restricted open-shell coupled cluster)     Authors: C. Hampel, H.-J. Werner, 1991, M. Deegan, P.J. Knowles, 1992


 Convergence thresholds:  THRVAR = 1.00D-08  THRDEN = 1.00D-06

 CCSD(T)     terms to be evaluated (factor= 1.000)


 Number of core orbitals:          14 (   5   2   2   1   2   1   1   0 )
 Number of closed-shell orbitals:   1 (   1   0   0   0   0   0   0   0 )
 Number of active  orbitals:        3 (   0   1   1   0   1   0   0   0 )
 Number of external orbitals:     224 (  67  29  29  22  29  22  22   4 )

 Memory could be reduced to 16.87 Mwords without degradation in triples

 Number of N-1 electron functions:               5
 Number of N-2 electron functions:              10
 Number of singly external CSFs:               224
 Number of doubly external CSFs:             48353
 Total number of CSFs:                       48577

 Molecular orbitals read from record     2120.2  Type=RHF/CANONICAL (state 1.8)

 Integral transformation finished. Total CPU:   0.25 sec, npass=  1  Memory used:   2.45 MW

 Starting RMP2 calculation

 Wavefunction is spin-projected

 ITER.      SQ.NORM     CORR.ENERGY   TOTAL ENERGY   ENERGY CHANGE        DEN1      VAR(S)    VAR(P)  DIIS     TIME
   1      1.01844117    -0.12539245 -4880.92653297    -0.12539245    -0.00011686  0.79D-08  0.19D-04  1  1     0.37
   2      1.01848796    -0.12551425 -4880.92665476    -0.00012179    -0.00000001  0.28D-11  0.18D-08  2  2     0.43
   3      1.01848820    -0.12551468 -4880.92665519    -0.00000043    -0.00000000  0.29D-15  0.20D-12  3  3     0.55

 Norm of t1 vector:      0.00680217      S-energy:    -0.00039252      T1 diagnostic:  0.00009544
 Norm of t2 vector:      0.13580106      P-energy:    -0.12512216
                                         Alpha-Beta:  -0.09436104
                                         Alpha-Alpha: -0.03076112
                                         Beta-Beta:    0.00000000

 Spin contamination <S**2-Sz**2-Sz>     0.00000000
  Reference energy                  -4880.801140514879
  RHF-RMP2 correlation energy          -0.125514679150
 !RHF-RMP2 energy                   -4880.926655194029
 (NB above energy spin projected)

 Starting RCCSD calculation

 ITER.      SQ.NORM     CORR.ENERGY   TOTAL ENERGY   ENERGY CHANGE        DEN1      VAR(S)    VAR(P)  DIIS     TIME
   1      1.02360501    -0.13901839 -4880.94015890    -0.13901839    -0.00325659  0.43D-05  0.54D-03  1  1     0.61
   2      1.02531559    -0.14264003 -4880.94378054    -0.00362164    -0.00004064  0.21D-07  0.57D-05  2  2     0.67
   3      1.02546218    -0.14283839 -4880.94397890    -0.00019836    -0.00000063  0.37D-09  0.89D-07  3  3     0.81
   4      1.02547884    -0.14286263 -4880.94400315    -0.00002424    -0.00000000  0.13D-10  0.31D-09  4  4     0.91
   5      1.02547881    -0.14286218 -4880.94400270     0.00000045    -0.00000000  0.29D-13  0.16D-11  5  5     0.96

 Norm of t1 vector:      0.00711857      S-energy:    -0.00038068      T1 diagnostic:  0.00076250
                                                                       D1 diagnostic:  0.00108373
 Norm of t2 vector:      0.15946201      P-energy:    -0.14248150
                                         Alpha-Beta:  -0.11032881
                                         Alpha-Alpha: -0.03215269
                                         Beta-Beta:    0.00000000

 Spin contamination <S**2-Sz**2-Sz>     0.00000000

 Memory could be reduced to 17.04 Mwords without degradation in triples
 

  Correlated core orbitals:             6.1       3.2       3.3       3.5
  Orbital energies:                   -13.0499  -11.5434  -11.5434  -11.5434
 
  RCCSD core-core energy               -0.142862181443
 

 RESULTS
 =======

  Reference energy                  -4880.801140514879
  RCCSD singles energy                 -0.000380678122
  RCCSD pair energy                    -0.142481503321
  RCCSD correlation energy             -0.142862181443
  Triples (T) contribution             -0.002431892719
  Total correlation energy             -0.145294074162
 
  RHF-RCCSD energy                  -4880.944002696322
  RHF-RCCSD[T] energy               -4880.946433199130
  RHF-RCCSD-T energy                -4880.946433579234
 !RHF-RCCSD(T) energy               -4880.946434589041

 Program statistics:

 Available memory in ccsd:               511999732
 Min. memory needed in ccsd:                405804
 Max. memory used in ccsd:                  444878
 Max. memory used in cckext:                505306 ( 5 integral passes)
 Max. memory used in cckint:               2450277 ( 1 integral passes)



 **********************************************************************************************************************************
 DATASETS  * FILE   NREC   LENGTH (MB)   RECORD NAMES
              1      19       48.77       500      610      700      900      950      970     1000      129      960     1100   
                                          VAR    BASINP    GEOM    SYMINP    ZMAT    AOBASIS   BASIS     P2S    ABASIS      S 
                                         1400     1410     1200     1210     1080     1600     1650     1700     1380   
                                           T        V       H0       H01     AOSYM     SMH    MOLCAS    OPER     JKOP   

              2      17       37.89       200      700     1000      520     4202     5202     2102     2105     5202(1)  2107   
                                        OPTIONS   GEOM     BASIS   MCVARS     RHF     MCSCF     RHF      RHF     MCSCF     RHF  
                                         2109     2111     2113     2115     2117     2119     2120   
                                          RHF      RHF      RHF      RHF      RHF      RHF      RHF  

 PROGRAMS   *        TOTAL  RCCSD(T)       RHF  RCCSD(T)       RHF  RCCSD(T)       RHF  RCCSD(T)       RHF     MULTI       POP
 CPU TIMES  *       355.80      1.74      1.09      3.91      0.73      8.52      1.40      6.82      0.29      9.50      0.00
 REAL TIME  *       622.84 SEC
 DISK USED  *         4.58 GB      
 SF USED    *       429.22 MB      
 GA USED    *         0.00 MB       (max)       0.00 MB       (current)
 **********************************************************************************************************************************
 SETTING CCSD(12)       =     -4880.94643459  AU                              

 DO I                   =        13.00000000   

 Running procedure=XVIIS2


 PROGRAM * RHF-SCF (CLOSED SHELL)       Authors: W. Meyer, H.-J. Werner


 NUMBER OF ELECTRONS:      15+   15-    SPACE SYMMETRY=1    SPIN SYMMETRY: Singlet 
 CONVERGENCE THRESHOLDS:    1.00E-05 (Density)    1.00E-07 (Energy)
 MAX. NUMBER OF ITERATIONS:       60
 INTERPOLATION TYPE:            DIIS
 INTERPOLATION STEPS:              2 (START)      1 (STEP)
 LEVEL SHIFTS:                  0.00 (CLOSED)  0.00 (OPEN) 



 Orbital guess generated from atomic densities. Full valence occupancy:    9   3   3   2   3   2   2   0


 Molecular orbital dump at record        2121.2

 Initial occupancy:   6   2   2   1   2   1   1   0

 ITERATION    DDIFF          GRAD             ENERGY        2-EL.EN.            DIPOLE MOMENTS         DIIS   ORB.
    1      0.000D+00      0.000D+00     -4842.23651520   2720.816484    0.00000    0.00000    0.00000    0    start
    2      0.000D+00      0.151D+00     -4843.53306340   2796.411099    0.00000    0.00000    0.00000    1    diag
    3      0.451D-01      0.460D-01     -4843.59150686   2781.821209    0.00000    0.00000    0.00000    2    diag
    4      0.383D-02      0.193D-02     -4843.59181941   2782.324186    0.00000    0.00000    0.00000    3    diag
    5      0.134D-02      0.138D-03     -4843.59182062   2782.371861    0.00000    0.00000    0.00000    4    diag
    6      0.886D-04      0.770D-05     -4843.59182062   2782.369544    0.00000    0.00000    0.00000    5    diag
    7      0.326D-05      0.345D-06     -4843.59182062   2782.369642    0.00000    0.00000    0.00000    0    orth

 Final occupancy:   6   2   2   1   2   1   1   0

 !RHF STATE 1.1 Energy              -4843.591820622767
 Nuclear energy                         0.00000000
 One-electron energy                -6234.77664169
 Two-electron energy                 1391.18482107
 Virial quotient                       -1.00000010
 !RHF STATE 1.1 Dipole moment           0.00000000     0.00000000     0.00000000
 Dipole moment /Debye                   0.00000000     0.00000000     0.00000000

 Orbital energies:

         1.1          2.1          3.1          4.1          5.1          6.1          7.1          8.1
   -888.391402  -142.757381   -38.341353   -27.567846   -27.567846   -15.355135   -10.997053   -10.997053

         1.2          2.2          3.2          4.2
   -133.354104   -34.485562   -13.273620    -8.315751

         1.3          2.3          3.3          4.3
   -133.354104   -34.485562   -13.273620    -8.315751

         1.4          2.4          3.4
    -27.567846   -10.997053    -6.458777

         1.5          2.5          3.5          4.5
   -133.354104   -34.485562   -13.273620    -8.315751

         1.6          2.6          3.6
    -27.567846   -10.997053    -6.458777

         1.7          2.7          3.7
    -27.567846   -10.997053    -6.458777

         1.8          2.8
     -8.315751    -5.245644

 HOMO      6.1   -15.355135 =    -417.8345eV
 LUMO      3.2   -13.273620 =    -361.1936eV
 LUMO-HOMO         2.081515 =      56.6409eV


 **********************************************************************************************************************************
 DATASETS  * FILE   NREC   LENGTH (MB)   RECORD NAMES
              1      19       48.77       500      610      700      900      950      970     1000      129      960     1100   
                                          VAR    BASINP    GEOM    SYMINP    ZMAT    AOBASIS   BASIS     P2S    ABASIS      S 
                                         1400     1410     1200     1210     1080     1600     1650     1700     1380   
                                           T        V       H0       H01     AOSYM     SMH    MOLCAS    OPER     JKOP   

              2      18       40.71       200      700     1000      520     4202     5202     2102     2105     5202(1)  2107   
                                        OPTIONS   GEOM     BASIS   MCVARS     RHF     MCSCF     RHF      RHF     MCSCF     RHF  
                                         2109     2111     2113     2115     2117     2119     2120     2121   
                                          RHF      RHF      RHF      RHF      RHF      RHF      RHF      RHF  

 PROGRAMS   *        TOTAL       RHF  RCCSD(T)       RHF  RCCSD(T)       RHF  RCCSD(T)       RHF  RCCSD(T)       RHF     MULTI
 CPU TIMES  *       356.39      0.58      1.74      1.09      3.91      0.73      8.52      1.40      6.82      0.29      9.50
 REAL TIME  *       623.72 SEC
 DISK USED  *         4.58 GB      
 SF USED    *       429.22 MB      
 GA USED    *         0.00 MB       (max)       0.00 MB       (current)
 **********************************************************************************************************************************
 SETTING SCF(13)        =     -4843.59182062  AU                              
 SETTING _CC_NORM_MAX   =         2.00000000                                  


 PROGRAM * CCSD (Restricted open-shell coupled cluster)     Authors: C. Hampel, H.-J. Werner, 1991, M. Deegan, P.J. Knowles, 1992


 Convergence thresholds:  THRVAR = 1.00D-08  THRDEN = 1.00D-06

 CCSD(T)     terms to be evaluated (factor= 1.000)


 Number of core orbitals:          14 (   5   2   2   1   2   1   1   0 )
 Number of closed-shell orbitals:   1 (   1   0   0   0   0   0   0   0 )
 Number of external orbitals:     227 (  67  30  30  22  30  22  22   4 )

 Memory could be reduced to 12.42 Mwords without degradation in triples

 Number of N-1 electron functions:               2
 Number of N-2 electron functions:               1
 Number of singly external CSFs:               134
 Number of doubly external CSFs:              8657
 Total number of CSFs:                        8791

 Molecular orbitals read from record     2121.2  Type=RHF/CANONICAL (state 1.1)

 Integral transformation finished. Total CPU:   0.47 sec, npass=  1  Memory used:   0.97 MW

 Starting RMP2 calculation

 Wavefunction is spin-projected

 ITER.      SQ.NORM     CORR.ENERGY   TOTAL ENERGY   ENERGY CHANGE        DEN1      VAR(S)    VAR(P)  DIIS     TIME
   1      1.01082260    -0.05331262 -4843.64513324    -0.05331262    -0.00008556  0.32D-16  0.19D-04  1  1     0.49
   2      1.01086435    -0.05340202 -4843.64522265    -0.00008940    -0.00000000  0.35D-20  0.39D-09  2  2     0.49
   3      1.01086446    -0.05340218 -4843.64522281    -0.00000016    -0.00000000  0.15D-23  0.73D-14  3  3     0.50

 Norm of t1 vector:      0.00000018      S-energy:    -0.00000000      T1 diagnostic:  0.00000009
 Norm of t2 vector:      0.10423271      P-energy:    -0.05340218
                                         Alpha-Beta:  -0.05340218
                                         Alpha-Alpha:  0.00000000
                                         Beta-Beta:    0.00000000

 Spin contamination <S**2-Sz**2-Sz>     0.00000000
  Reference energy                  -4843.591820622768
  RHF-RMP2 correlation energy          -0.053402184453
 !RHF-RMP2 energy                   -4843.645222807221
 (NB above energy spin projected)

 Starting RCCSD calculation

 ITER.      SQ.NORM     CORR.ENERGY   TOTAL ENERGY   ENERGY CHANGE        DEN1      VAR(S)    VAR(P)  DIIS     TIME
   1      1.01600752    -0.06207820 -4843.65389882    -0.06207820    -0.00375861  0.17D-05  0.82D-03  1  1     0.52
   2      1.01979627    -0.06741958 -4843.65924020    -0.00534138    -0.00004261  0.90D-08  0.57D-05  2  2     0.54
   3      1.02007585    -0.06773638 -4843.65955701    -0.00031680    -0.00000024  0.15D-09  0.21D-07  3  3     0.56
   4      1.02007934    -0.06773819 -4843.65955882    -0.00000181    -0.00000000  0.47D-12  0.90D-10  4  4     0.70
   5      1.02007983    -0.06773882 -4843.65955944    -0.00000063    -0.00000000  0.69D-14  0.24D-12  5  5     0.72

 Norm of t1 vector:      0.00183019      S-energy:     0.00000000      T1 diagnostic:  0.00091510
                                                                       D1 diagnostic:  0.00129414
 Norm of t2 vector:      0.14169150      P-energy:    -0.06773882
                                         Alpha-Beta:  -0.06773882
                                         Alpha-Alpha:  0.00000000
                                         Beta-Beta:    0.00000000

 Doubles amplitudes (print threshold =  0.500E-01):

         I         J         SYM. A    SYM. B    A         B      T(IJ, AB) [Alpha-Beta]

         1         1         2         2         1         1     -0.08010268
         1         1         3         3         1         1     -0.08010268
         1         1         5         5         1         1     -0.08010267

 Spin contamination <S**2-Sz**2-Sz>     0.00000000

 Memory could be reduced to 12.08 Mwords without degradation in triples
 

  Correlated core orbitals:             6.1
  Orbital energies:                   -15.3551
 
  RCCSD core-core energy               -0.067738820139
 

 RESULTS
 =======

  Reference energy                  -4843.591820622768
  RCCSD singles energy                  0.000000000133
  RCCSD pair energy                    -0.067738820272
  RCCSD correlation energy             -0.067738820139
  Triples (T) contribution              0.000000000000
  Total correlation energy             -0.067738820139
 
  RHF-RCCSD energy                  -4843.659559442907
  RHF-RCCSD[T] energy               -4843.659559442907
  RHF-RCCSD-T energy                -4843.659559442907
 !RHF-RCCSD(T) energy               -4843.659559442907

 Program statistics:

 Available memory in ccsd:               511999882
 Min. memory needed in ccsd:                261813
 Max. memory used in ccsd:                  261813
 Max. memory used in cckext:                367353 ( 5 integral passes)
 Max. memory used in cckint:                974234 ( 1 integral passes)



 **********************************************************************************************************************************
 DATASETS  * FILE   NREC   LENGTH (MB)   RECORD NAMES
              1      19       48.77       500      610      700      900      950      970     1000      129      960     1100   
                                          VAR    BASINP    GEOM    SYMINP    ZMAT    AOBASIS   BASIS     P2S    ABASIS      S 
                                         1400     1410     1200     1210     1080     1600     1650     1700     1380   
                                           T        V       H0       H01     AOSYM     SMH    MOLCAS    OPER     JKOP   

              2      18       40.71       200      700     1000      520     4202     5202     2102     2105     5202(1)  2107   
                                        OPTIONS   GEOM     BASIS   MCVARS     RHF     MCSCF     RHF      RHF     MCSCF     RHF  
                                         2109     2111     2113     2115     2117     2119     2120     2121   
                                          RHF      RHF      RHF      RHF      RHF      RHF      RHF      RHF  

 PROGRAMS   *        TOTAL  RCCSD(T)       RHF  RCCSD(T)       RHF  RCCSD(T)       RHF  RCCSD(T)       RHF  RCCSD(T)       RHF
 CPU TIMES  *       357.34      0.95      0.58      1.74      1.09      3.91      0.73      8.52      1.40      6.82      0.29
 REAL TIME  *       626.54 SEC
 DISK USED  *         4.58 GB      
 SF USED    *       429.22 MB      
 GA USED    *         0.00 MB       (max)       0.00 MB       (current)
 **********************************************************************************************************************************
 SETTING CCSD(13)       =     -4843.65955944  AU                              
 Output type csv         
                                                                                                                                                                                                                                                                

         SCF,CCSD
   -4937.920834,   -4938.576704
   -4937.891368,   -4938.616264
   -4937.893290,   -4938.579113
   -4937.782851,   -4938.462303
   -4937.675754,   -4938.322851
   -4937.549230,   -4938.172034
   -4937.018472,   -4937.600339
   -4935.854470,   -4936.381248
   -4934.135497,   -4934.613808
   -4931.865469,   -4932.231762
   -4909.436047,   -4909.720174
   -4880.801141,   -4880.946435
   -4843.591821,   -4843.659559
                                                  

 RCCSD(T)/USERDEF energy=  -4843.659559442907

        RCCSD(T)        RHF-SCF         RCCSD(T)        RHF-SCF         RCCSD(T)        RHF-SCF         RCCSD(T)        RHF-SCF 
  -4843.65955944  -4843.59182062  -4880.94643459  -4880.80114051  -4909.72017367  -4909.43604674  -4932.23176210  -4931.86546915
 **********************************************************************************************************************************
 Molpro calculation terminated
 Variable memory released
