
 Primary working directories    : /global/cscratch1/sd/gwang18
 Secondary working directories  : /global/cscratch1/sd/gwang18
 Wavefunction directory         : /global/homes/g/gwang18/wfu/
 Main file repository           : /global/cscratch1/sd/gwang18/

 SHA1      : 19cd028119e0e09f93f0674bd8af7968d9b3eff6
 NAME      : 2015.1.36
 ARCHNAME  : linux/x86_64
 FC        : /opt/cray/pe/craype/2.5.14/bin/ftn
 BLASLIB   : -L/opt/intel/compilers_and_libraries_2018.1.163/linux/mkl/lib/intel64 -Wl,-_start-group -lmkl_intel_ilp64 -lmkl_intel_thread -lmkl_core -Wl,-_end-group -liomp5
 id        : lbl

 Nodes     nprocs
 nid00804    23
 Number of processes for MPI-2 version of Molpro:   nprocs(total)=   24   nprocs(compute)=   23   nprocs(helper)=    1

 Using customized tuning parameters: mindgm=7; mindgv=16; mindgc=1; mindgr=1; noblas=0; minvec=7
 default implementation of scratch files=sf  

 ***,Calculation for Ag atom, singlet and triplet
 memory,512,m
 geometry={
 1
 Sr
 Sr  0.0 0.0 0.0
 }
 
 basis={
 Including file /global/u2/g/gwang18/projects/heavy-element-ecp/sr/atom/ae/dkh8/basis/aug-cc-pwCVTZ.basis
 }
 
 
 set,dkroll=1,dkho=8,dkhp=4
 
 Including file /global/u2/g/gwang18/projects/heavy-element-ecp/sr/atom/ae/dkh8/basis/states.proc
 
 do i=1,6
     if (i.eq.1) then
         I5s2
     else if (i.eq.2) then
         Is5s5p
     else if (i.eq.3) then
         I5s4d
     else if (i.eq.4) then
         II5s1
     else if (i.eq.5) then
         II4d
     else if (i.eq.6) then
         III4p6
     endif
     scf(i)=energy
     _CC_NORM_MAX=2.0
     {rccsd(t),maxit=100;core}
     ccsd(i)=energy
 enddo
 
 table,scf,ccsd
 type,csv
 save

 Variables initialized (889), CPU time= 0.00 sec
 Commands  initialized (702), CPU time= 0.02 sec, 572 directives.
 Default parameters read. Elapsed time= 0.24 sec

 Checking input...
 Passed
1


                                         ***  PROGRAM SYSTEM MOLPRO  ***
                                       Copyright, TTI GmbH Stuttgart, 2015
                                    Version 2015.1 linked Dec 29 2018 15:55:43


 **********************************************************************************************************************************
 LABEL *   Calculation for Ag atom, singlet and triplet                                  
  64 bit mpp version                                                                     DATE: 09-Sep-19          TIME: 13:03:38  
 **********************************************************************************************************************************

 SHA1:             19cd028119e0e09f93f0674bd8af7968d9b3eff6
 **********************************************************************************************************************************

Geometry recognized as XYZ


 Variable memory set to  512000000 words,  buffer space   230000 words

 SETTING BASIS          =    USERDEF
 SETTING DKROLL         =         1.00000000                                  
 SETTING DKHO           =         8.00000000                                  
 SETTING DKHP           =         4.00000000                                  

 DO I                   =         1.00000000   

 Running procedure=I5S2


 Recomputing integrals since basis changed


 Using spherical harmonics



 PROGRAM * SEWARD (Integral evaluation for generally contracted gaussian basis sets)     Author: Roland Lindh, 1990

 Geometry written to block  1 of record 700

 Orientation using atomic masses  
 Molecule type: Atom
 Symmetry elements: X,Y,Z
 Rotational constants:       0.0000000      0.0000000      0.0000000 GHz  (calculated with average atomic masses)

 Point group  D2h 



 ATOMIC COORDINATES

 NR  ATOM    CHARGE       X              Y              Z

   1  SR     38.00    0.000000000    0.000000000    0.000000000

 NUCLEAR CHARGE:                   38
 NUMBER OF PRIMITIVE AOS:         232
 NUMBER OF SYMMETRY AOS:          205
 NUMBER OF CONTRACTIONS:          205   (  67Ag  +  27B3u +  27B2u +  18B1g +  27B1u +  18B2g +  18B3g +   3Au  )
 NUMBER OF CORE ORBITALS:          18   (   6Ag  +   3B3u +   3B2u +   1B1g +   3B1u +   1B2g +   1B3g +   0Au  )
 NUMBER OF VALENCE ORBITALS:        1   (   1Ag  +   0B3u +   0B2u +   0B1g +   0B1u +   0B2g +   0B3g +   0Au  )


 NUCLEAR REPULSION ENERGY    0.00000000

 One-electron integrals computed with SEWARD

 8nd-order Douglas-Kroll-Hess method activated. McWeeny DKH parametrization is used.

 Computing Douglas-Kroll / X2C integrals

 AO integral compression algorithm  1   Integral accuracy      1.0D-11

     211.288 MB (compressed) written to integral file ( 34.7%)

     Node minimum: 0.262 MB, node maximum: 48.759 MB


 NUMBER OF SORTED TWO-ELECTRON INTEGRALS:    1311942.     BUFFER LENGTH:  32768
 NUMBER OF SEGMENTS:   1  SEGMENT LENGTH:    1311942      RECORD LENGTH: 524288

 Memory used in sort:       1.87 MW

 SORT1 READ    75897679. AND WROTE      837917. INTEGRALS IN      3 RECORDS. CPU TIME:     1.33 SEC, REAL TIME:     1.49 SEC
 SORT2 READ    19529476. AND WROTE    29978491. INTEGRALS IN    621 RECORDS. CPU TIME:     0.19 SEC, REAL TIME:     0.35 SEC

 Node minimum:     1264059.  Node maximum:     1379423. integrals

 OPERATOR DM      FOR CENTER  0  COORDINATES:    0.000000    0.000000    0.000000

 EXTRA SYMMETRY OF AOS IN SYMMETRY 1:   1 1 1 1 1 1 1 1 1 1   1 1 1 1 1 1 1 1 1 1   1 1 1 1 1 1 1 1 1 1   1 2 3 2 3 2 3 2 3 2
                                        3 2 3 2 3 2 3 2 3 2   3 2 3 2 3 2 3 2 3 2   3 2 3 2 3 2 3
 EXTRA SYMMETRY OF AOS IN SYMMETRY 2:   1 1 1 1 1 1 1 1 1 1   1 1 1 1 1 1 1 1 1 1   1 2 3 2 3 2 3
 EXTRA SYMMETRY OF AOS IN SYMMETRY 3:   1 1 1 1 1 1 1 1 1 1   1 1 1 1 1 1 1 1 1 1   1 2 3 2 3 2 3
 EXTRA SYMMETRY OF AOS IN SYMMETRY 5:   1 1 1 1 1 1 1 1 1 1   1 1 1 1 1 1 1 1 1 1   1 2 3 2 3 2 3

 Eigenvalues of metric

         1 0.139E-06 0.917E-05 0.404E-04 0.404E-04 0.620E-04 0.175E-03 0.424E-03 0.479E-03
         2 0.693E-03 0.223E-02 0.552E-02 0.104E-01 0.186E-01 0.327E-01 0.575E-01 0.972E-01
         3 0.693E-03 0.223E-02 0.552E-02 0.104E-01 0.186E-01 0.327E-01 0.575E-01 0.972E-01
         4 0.404E-04 0.479E-03 0.272E-02 0.814E-02 0.182E-01 0.368E-01 0.670E-01 0.135E+00
         5 0.693E-03 0.223E-02 0.552E-02 0.104E-01 0.186E-01 0.327E-01 0.575E-01 0.972E-01
         6 0.404E-04 0.479E-03 0.272E-02 0.814E-02 0.182E-01 0.368E-01 0.670E-01 0.135E+00
         7 0.404E-04 0.479E-03 0.272E-02 0.814E-02 0.182E-01 0.368E-01 0.670E-01 0.135E+00
         8 0.275E+00 0.899E+00 0.183E+01


 **********************************************************************************************************************************
 DATASETS  * FILE   NREC   LENGTH (MB)   RECORD NAMES
              1      22       20.47       500      610      700      900      950      970     1000      129      960     1700   
                                          VAR    BASINP    GEOM    SYMINP    ZMAT    AOBASIS   BASIS     P2S    ABASIS    OPER   
                                         1101     1401     1411     1412     1650     1100     1400     1410     1200     1210   
                                          SR      EKINR    POTR     PVPR    MOLCAS      S      EKIN      POT      H0       H01  
                                         1080     1600   
                                         AOSYM     SMH  

 PROGRAMS   *        TOTAL       INT
 CPU TIMES  *        24.26     23.85
 REAL TIME  *        28.12 SEC
 DISK USED  *       498.71 MB      
 GA USED    *         0.00 MB       (max)       0.00 MB       (current)
 **********************************************************************************************************************************


 PROGRAM * RHF-SCF (CLOSED SHELL)       Authors: W. Meyer, H.-J. Werner


 NUMBER OF ELECTRONS:      19+   19-    SPACE SYMMETRY=1    SPIN SYMMETRY: Singlet 
 CONVERGENCE THRESHOLDS:    1.00E-05 (Density)    1.00E-07 (Energy)
 MAX. NUMBER OF ITERATIONS:       60
 INTERPOLATION TYPE:            DIIS
 INTERPOLATION STEPS:              2 (START)      1 (STEP)
 LEVEL SHIFTS:                  0.00 (CLOSED)  0.00 (OPEN) 

 Number of closed-shell orbitals:   19 (   7   3   3   1   3   1   1   0 )


 
 Extra symmetries of mos in symmetry 1:   1   1   1   1   3   2   1
 Orbital guess generated from atomic densities. Full valence occupancy:    7   3   3   1   3   1   1   0


 Molecular orbital dump at record        4202.2

 ITERATION    DDIFF          GRAD             ENERGY        2-EL.EN.            DIPOLE MOMENTS         DIIS   ORB.
    1      0.000D+00      0.000D+00     -3111.62634806   3127.305176    0.00000    0.00000    0.00000    0    start
    2      0.000D+00      0.986D+00     -2957.56330922   1122.012015    0.00000    0.00000    0.00000    1    diag
    3      0.388D+01      0.654D+00     -3152.97063436   2856.479190    0.00000    0.00000    0.00000    2    diag
    4      0.156D+01      0.463D+00     -3175.39961157   2555.607777    0.00000    0.00000    0.00000    3    diag
    5      0.470D+01      0.956D-01     -3177.27996682   2460.536062    0.00000    0.00000    0.00000    4    diag
    6      0.565D+01      0.151D-01     -3177.35704783   2443.051565    0.00000    0.00000    0.00000    5    diag
    7      0.703D+00      0.240D-02     -3177.36253483   2439.223884    0.00000    0.00000    0.00000    6    diag
    8      0.181D-01      0.260D-03     -3177.36290153   2438.712311    0.00000    0.00000    0.00000    7    diag
    9      0.623D-02      0.678D-04     -3177.36291686   2438.698218    0.00000    0.00000    0.00000    8    diag
   10      0.109D-02      0.179D-04     -3177.36291702   2438.677971    0.00000    0.00000    0.00000    9    orth
   11      0.353D-03      0.197D-05     -3177.36291703   2438.675401    0.00000    0.00000    0.00000    9    diag
   12      0.700D-04      0.452D-06     -3177.36291703   2438.675410    0.00000    0.00000    0.00000    9    diag
   13      0.697D-05      0.222D-07     -3177.36291703   2438.675383    0.00000    0.00000    0.00000    0    orth

 Final occupancy:   7   3   3   1   3   1   1   0

 !RHF STATE 1.1 Energy              -3177.362917029827
 Nuclear energy                         0.00000000
 One-electron energy                -4396.70060866
 Two-electron energy                 1219.33769163
 Virial quotient                       -0.91946455
 !RHF STATE 1.1 Dipole moment           0.00000000     0.00000000     0.00000000
 Dipole moment /Debye                   0.00000000     0.00000000     0.00000000

 ELECTRON ORBITALS
 =================


   Orb  Occ    Energy  Couls-En    Coefficients

                                   1 1s      1 1s      1 1s      1 1s      1 1s      1 1s      1 1s      1 1s      1 1s      1 1s   
                                   1 1s      1 1s      1 1s      1 1s      1 1s      1 1s      1 1s      1 1s      1 1s      1 1s   
                                   1 1s      1 1s      1 1s      1 1s      1 1s      1 1s      1 1s      1 1s      1 1s      1 1s   
                                   1 1s      1 3d0     1 3d2+    1 3d0     1 3d2+    1 3d0     1 3d2+    1 3d0     1 3d2+    1 3d0  
                                   1 3d2+    1 3d0     1 3d2+    1 3d0     1 3d2+    1 3d0     1 3d2+    1 3d0     1 3d2+    1 3d0  
                                   1 3d2+    1 3d0     1 3d2+    1 3d0     1 3d2+    1 3d0     1 3d2+    1 3d0     1 3d2+    1 3d0  
                                   1 3d2+    1 3d0     1 3d2+    1 3d0     1 3d2+    1 3d0     1 3d2+ 

   1.1   2  -595.2433-1331.5009  0.000048  0.000073  0.000195  0.000393  0.000837  0.001680  0.003396  0.006826  0.013908  0.028556
                                 0.058335  0.114024  0.200183  0.285696  0.281268  0.147430  0.025265 -0.000224  0.000650 -0.000409
                                 0.000262 -0.000360  0.002163 -0.000549  0.000027 -0.000005  0.000004 -0.000002 -0.002390  0.000968
                                 0.000000 -0.000000  0.000000 -0.000000 -0.000000  0.000000  0.000000 -0.000000 -0.000000  0.000000
                                 0.000000 -0.000000 -0.000000  0.000000  0.000000 -0.000000  0.000000  0.000000 -0.000000 -0.000000
                                 0.000000 -0.000000  0.000000 -0.000000  0.000000  0.000000 -0.000000 -0.000000  0.000000 -0.000000
                                -0.000000  0.000000 -0.000000  0.000000 -0.000000  0.000000  0.000000

   2.1   2   -83.1085 -265.8815 -0.000016 -0.000024 -0.000064 -0.000129 -0.000274 -0.000552 -0.001120 -0.002263 -0.004655 -0.009698
                                -0.020366 -0.041756 -0.080373 -0.135048 -0.174185 -0.097583  0.204709  0.514298  0.379656  0.081956
                                 0.001600  0.003089 -0.011172  0.002294 -0.000117  0.000018 -0.000014  0.000007  0.011836 -0.004264
                                -0.000002  0.000000 -0.000000 -0.000000  0.000000  0.000000 -0.000000 -0.000000  0.000000  0.000000
                                -0.000000 -0.000000 -0.000000  0.000000  0.000000 -0.000000 -0.000000  0.000000  0.000000 -0.000000
                                -0.000000  0.000000 -0.000000  0.000000  0.000000 -0.000000 -0.000000  0.000000  0.000000 -0.000000
                                -0.000000 -0.000000  0.000000 -0.000000 -0.000000  0.000000  0.000000

   3.1   2   -13.9546  -88.0025  0.000006  0.000010  0.000026  0.000053  0.000113  0.000226  0.000460  0.000929  0.001914  0.003996
                                 0.008424  0.017379  0.033892  0.058282  0.078445  0.046126 -0.118400 -0.393678 -0.393216  0.151966
                                 0.683753  0.438365 -0.044883  0.023707 -0.000520  0.000175 -0.000130  0.000061  0.105317 -0.039505
                                -0.000016  0.000000 -0.000000 -0.000000  0.000000 -0.000000 -0.000000  0.000000  0.000000 -0.000000
                                -0.000000  0.000000  0.000000 -0.000000 -0.000000  0.000000 -0.000000 -0.000000 -0.000000  0.000000
                                 0.000000  0.000000 -0.000000  0.000000 -0.000000 -0.000000  0.000000  0.000000 -0.000000 -0.000000
                                 0.000000 -0.000000  0.000000 -0.000000  0.000000  0.000000 -0.000000

   4.1   2    -1.9484  -32.3396 -0.000002 -0.000003 -0.000009 -0.000019 -0.000040 -0.000081 -0.000164 -0.000331 -0.000682 -0.001421
                                -0.003004 -0.006188 -0.012134 -0.020853 -0.028470 -0.016558  0.043974  0.157643  0.160756 -0.068905
                                -0.424812 -0.466757 -0.043671  0.774065  0.362359  0.015581 -0.007519  0.002981  0.275417 -0.045530
                                -0.000735  0.000000 -0.000000 -0.000000 -0.000000  0.000000 -0.000000 -0.000000 -0.000000  0.000000
                                -0.000000 -0.000000 -0.000000  0.000000 -0.000000 -0.000000 -0.000000  0.000000  0.000000 -0.000000
                                -0.000000  0.000000  0.000000  0.000000  0.000000 -0.000000 -0.000000  0.000000  0.000000 -0.000000
                                 0.000000  0.000000  0.000000 -0.000000  0.000000  0.000000 -0.000000

   5.1   2    -5.5870  -72.0523  0.000000 -0.000000 -0.000000  0.000000 -0.000000  0.000000 -0.000000  0.000000  0.000000 -0.000000
                                 0.000000 -0.000000  0.000000 -0.000000  0.000000 -0.000000  0.000000 -0.000000  0.000000 -0.000000
                                 0.000000 -0.000000  0.000000 -0.000000  0.000000 -0.000000  0.000000 -0.000000 -0.000000  0.000000
                                 0.000000 -0.000001  0.000161 -0.000013  0.001427 -0.000073  0.008273 -0.000290  0.032798 -0.000816
                                 0.092210 -0.001686  0.190454 -0.002530  0.285681 -0.002814  0.317812 -0.002103  0.237466 -0.000873
                                 0.098541 -0.000152  0.017146 -0.000020  0.002244  0.000002 -0.000252 -0.000001  0.000090  0.000000
                                -0.000033  0.000031 -0.003494  0.000037 -0.004147 -0.000000  0.000008

   6.1   2    -5.5870  -72.0523  0.000000 -0.000000 -0.000000  0.000000 -0.000000  0.000000 -0.000000  0.000000 -0.000000  0.000000
                                -0.000000  0.000000 -0.000000  0.000000 -0.000000  0.000000 -0.000000  0.000000 -0.000000  0.000000
                                -0.000000  0.000000 -0.000001  0.000000 -0.000000  0.000000 -0.000000  0.000000  0.000001 -0.000001
                                -0.000000  0.000161  0.000001  0.001427  0.000013  0.008273  0.000073  0.032798  0.000290  0.092210
                                 0.000816  0.190454  0.001686  0.285681  0.002530  0.317812  0.002814  0.237466  0.002103  0.098541
                                 0.000873  0.017146  0.000152  0.002244  0.000020 -0.000252 -0.000002  0.000090  0.000001 -0.000033
                                -0.000000 -0.003494 -0.000031 -0.004147 -0.000037  0.000008  0.000000

   7.1   2    -0.1812  -10.0077  0.000001  0.000001  0.000002  0.000005  0.000010  0.000021  0.000042  0.000086  0.000177  0.000368
                                 0.000779  0.001604  0.003147  0.005409  0.007395  0.004300 -0.011468 -0.041465 -0.042430  0.018275
                                 0.119088  0.142826 -0.038097 -0.286785 -0.310457  0.366742  0.620862  0.219647 -0.033567 -0.016251
                                 0.001009  0.000000  0.000000 -0.000000  0.000000  0.000000  0.000000 -0.000000  0.000000  0.000000
                                 0.000000 -0.000000  0.000000  0.000000  0.000000 -0.000000  0.000000  0.000000  0.000000 -0.000000
                                -0.000000 -0.000000 -0.000000 -0.000000 -0.000000  0.000000 -0.000000 -0.000000  0.000000  0.000000
                                -0.000000  0.000000 -0.000000  0.000000 -0.000000 -0.000000 -0.000000

   8.1   0     0.0174   -3.0656 -0.000000 -0.000000 -0.000001 -0.000001 -0.000002 -0.000005 -0.000009 -0.000019 -0.000037 -0.000084
                                -0.000157 -0.000380 -0.000602 -0.001368 -0.001169 -0.001846  0.004524  0.004608  0.018072 -0.023520
                                 0.023779 -0.204641  3.075501 -2.700780  0.518221 -0.812410  1.694708 -3.482963 -4.073536  3.605238
                                 2.931320 -0.000000  0.000000  0.000000 -0.000000 -0.000000  0.000000  0.000000 -0.000000 -0.000000
                                 0.000000  0.000000  0.000000 -0.000000  0.000000  0.000000  0.000000 -0.000000 -0.000000  0.000000
                                 0.000000  0.000000  0.000000 -0.000000  0.000000  0.000000 -0.000000 -0.000000  0.000000 -0.000000
                                -0.000000 -0.000000 -0.000000 -0.000000 -0.000000  0.000000  0.000000

   9.1   0     0.0344   -3.2070  0.000000  0.000000  0.000000  0.000000  0.000000 -0.000000  0.000000 -0.000000  0.000000 -0.000000
                                 0.000000 -0.000000  0.000000 -0.000000  0.000000 -0.000000  0.000000 -0.000000  0.000000 -0.000000
                                 0.000000 -0.000000  0.000006 -0.000003  0.000000 -0.000000  0.000000 -0.000000 -0.000008  0.000005
                                 0.000000 -0.000001  0.000002 -0.000004  0.000012 -0.000040  0.000111 -0.000105  0.000297 -0.000462
                                 0.001300 -0.000517  0.001455 -0.001797  0.005057  0.000438 -0.001232 -0.005263  0.014812  0.031301
                                -0.088093  0.080681 -0.227066  0.109864 -0.309199 -0.059486  0.167415  0.112881 -0.317690 -0.163061
                                 0.458915 -0.054106  0.152274 -0.121339  0.341493  0.411520 -1.158171

                                   1 2px     1 2px     1 2px     1 2px     1 2px     1 2px     1 2px     1 2px     1 2px     1 2px  
                                   1 2px     1 2px     1 2px     1 2px     1 2px     1 2px     1 2px     1 2px     1 2px     1 2px  
                                   1 2px     1 4f1+    1 4f3+    1 4f1+    1 4f3+    1 4f1+    1 4f3+ 

   1.2   2   -73.6489 -253.2670  0.000024  0.000109  0.000476  0.002003  0.007933  0.028143  0.084515  0.199995  0.339367  0.347019
                                 0.158277  0.021307  0.002803 -0.000580 -0.000226 -0.000052  0.000033 -0.000015  0.000458  0.000112
                                 0.000005 -0.000000  0.000000  0.000000 -0.000000  0.000000 -0.000000

   2.2   2   -10.8032  -81.9799 -0.000010 -0.000046 -0.000200 -0.000842 -0.003362 -0.012058 -0.037224 -0.091661 -0.165254 -0.165878
                                 0.058283  0.383216  0.463187  0.203707  0.002551  0.000240 -0.000176  0.000079  0.025494 -0.000589
                                -0.000024 -0.000000 -0.000000  0.000000  0.000000  0.000000  0.000000

   3.2   2    -1.0951  -27.8762 -0.000003 -0.000015 -0.000064 -0.000270 -0.001082 -0.003869 -0.012053 -0.029678 -0.054511 -0.053457
                                 0.028256  0.163143  0.213614  0.087662 -0.542464 -0.047308  0.010284 -0.005343 -0.328999 -0.278878
                                 0.001580 -0.000000  0.000000 -0.000000  0.000000  0.000000  0.000000

   4.2   0     0.0098   -4.1554  0.000000  0.000001  0.000006  0.000024  0.000095  0.000347  0.001057  0.002675  0.004735  0.005025
                                -0.003244 -0.013290 -0.022735 -0.001433  0.078455  0.029656 -0.356818  0.240558  0.023574  0.014160
                                -1.023812 -0.000000  0.000000  0.000000 -0.000000  0.000000 -0.000000

   5.2   0     0.0356   -4.6581  0.000000  0.000002  0.000008  0.000034  0.000142  0.000485  0.001589  0.003689  0.007358  0.006001
                                -0.001684 -0.025972 -0.018719 -0.030250  0.030900 -0.333852  0.442968 -2.012518  0.080181  0.166318
                                 1.587676  0.000000 -0.000000 -0.000000  0.000000 -0.000000  0.000000

                                   1 2py     1 2py     1 2py     1 2py     1 2py     1 2py     1 2py     1 2py     1 2py     1 2py  
                                   1 2py     1 2py     1 2py     1 2py     1 2py     1 2py     1 2py     1 2py     1 2py     1 2py  
                                   1 2py     1 4f1-    1 4f3-    1 4f1-    1 4f3-    1 4f1-    1 4f3- 

   1.3   2   -73.6489 -253.2670  0.000024  0.000109  0.000476  0.002003  0.007933  0.028143  0.084515  0.199995  0.339367  0.347019
                                 0.158277  0.021307  0.002803 -0.000580 -0.000226 -0.000052  0.000033 -0.000015  0.000458  0.000112
                                 0.000005 -0.000000 -0.000000  0.000000  0.000000  0.000000  0.000000

   2.3   2   -10.8032  -81.9799 -0.000010 -0.000046 -0.000200 -0.000842 -0.003362 -0.012058 -0.037224 -0.091661 -0.165254 -0.165878
                                 0.058283  0.383216  0.463187  0.203707  0.002551  0.000240 -0.000176  0.000079  0.025494 -0.000589
                                -0.000024 -0.000000  0.000000  0.000000 -0.000000  0.000000 -0.000000

   3.3   2    -1.0951  -27.8762 -0.000003 -0.000015 -0.000064 -0.000270 -0.001082 -0.003869 -0.012053 -0.029678 -0.054511 -0.053457
                                 0.028256  0.163143  0.213614  0.087662 -0.542464 -0.047308  0.010284 -0.005343 -0.328999 -0.278878
                                 0.001580 -0.000000 -0.000000 -0.000000 -0.000000  0.000000 -0.000000

   4.3   0     0.0098   -4.1554  0.000000  0.000001  0.000006  0.000024  0.000095  0.000347  0.001057  0.002675  0.004735  0.005025
                                -0.003244 -0.013290 -0.022735 -0.001433  0.078455  0.029656 -0.356818  0.240558  0.023574  0.014160
                                -1.023812 -0.000000 -0.000000  0.000000  0.000000  0.000000  0.000000

   5.3   0     0.0356   -4.6581  0.000000  0.000002  0.000008  0.000034  0.000142  0.000485  0.001589  0.003689  0.007358  0.006001
                                -0.001684 -0.025972 -0.018719 -0.030250  0.030900 -0.333852  0.442968 -2.012518  0.080181  0.166318
                                 1.587676  0.000000  0.000000 -0.000000 -0.000000 -0.000000 -0.000000

                                   1 3d2-    1 3d2-    1 3d2-    1 3d2-    1 3d2-    1 3d2-    1 3d2-    1 3d2-    1 3d2-    1 3d2- 
                                   1 3d2-    1 3d2-    1 3d2-    1 3d2-    1 3d2-    1 3d2-    1 3d2-    1 3d2- 

   1.4   2    -5.5870  -72.0523  0.000161  0.001427  0.008274  0.032799  0.092214  0.190462  0.285692  0.317825  0.237475  0.098545
                                 0.017147  0.002244 -0.000252  0.000090 -0.000033 -0.003494 -0.004147  0.000008

   2.4   0     0.0344   -3.2070 -0.000002 -0.000013 -0.000118 -0.000315 -0.001379 -0.001544 -0.005367  0.001307 -0.015720  0.093488
                                 0.240974  0.328138 -0.177669  0.337149 -0.487024 -0.161601 -0.362409  1.229108

   3.4   0     0.0860   -7.2635  0.000010  0.000106  0.000540  0.002437  0.005998  0.014911  0.016100  0.030225 -0.015629  0.145793
                                 0.351636  0.468724 -0.541448  0.415502 -1.464280 -0.312077 -0.691106  0.839501

                                   1 2pz     1 2pz     1 2pz     1 2pz     1 2pz     1 2pz     1 2pz     1 2pz     1 2pz     1 2pz  
                                   1 2pz     1 2pz     1 2pz     1 2pz     1 2pz     1 2pz     1 2pz     1 2pz     1 2pz     1 2pz  
                                   1 2pz     1 4f0     1 4f2+    1 4f0     1 4f2+    1 4f0     1 4f2+ 

   1.5   2   -73.6489 -253.2670  0.000024  0.000109  0.000476  0.002003  0.007933  0.028143  0.084515  0.199995  0.339367  0.347019
                                 0.158277  0.021307  0.002803 -0.000580 -0.000226 -0.000052  0.000033 -0.000015  0.000458  0.000112
                                 0.000005 -0.000000  0.000000  0.000000 -0.000000  0.000000 -0.000000

   2.5   2   -10.8032  -81.9799 -0.000010 -0.000046 -0.000200 -0.000842 -0.003362 -0.012058 -0.037224 -0.091661 -0.165254 -0.165878
                                 0.058283  0.383216  0.463187  0.203707  0.002551  0.000240 -0.000176  0.000079  0.025494 -0.000589
                                -0.000024 -0.000000 -0.000000  0.000000  0.000000  0.000000  0.000000

   3.5   2    -1.0951  -27.8762 -0.000003 -0.000015 -0.000064 -0.000270 -0.001082 -0.003869 -0.012053 -0.029678 -0.054511 -0.053457
                                 0.028256  0.163143  0.213614  0.087662 -0.542464 -0.047308  0.010284 -0.005343 -0.328999 -0.278878
                                 0.001580 -0.000000 -0.000000  0.000000 -0.000000 -0.000000  0.000000

   4.5   0     0.0098   -4.1554  0.000000  0.000001  0.000006  0.000024  0.000095  0.000347  0.001057  0.002675  0.004735  0.005025
                                -0.003244 -0.013290 -0.022735 -0.001433  0.078455  0.029656 -0.356818  0.240558  0.023574  0.014160
                                -1.023812 -0.000000  0.000000 -0.000000  0.000000 -0.000000 -0.000000

   5.5   0     0.0356   -4.6581  0.000000  0.000002  0.000008  0.000034  0.000142  0.000485  0.001589  0.003689  0.007358  0.006001
                                -0.001684 -0.025972 -0.018719 -0.030250  0.030900 -0.333852  0.442968 -2.012518  0.080181  0.166318
                                 1.587676  0.000000  0.000000 -0.000000  0.000000 -0.000000 -0.000000

                                   1 3d1+    1 3d1+    1 3d1+    1 3d1+    1 3d1+    1 3d1+    1 3d1+    1 3d1+    1 3d1+    1 3d1+ 
                                   1 3d1+    1 3d1+    1 3d1+    1 3d1+    1 3d1+    1 3d1+    1 3d1+    1 3d1+ 

   1.6   2    -5.5870  -72.0523  0.000161  0.001427  0.008274  0.032799  0.092214  0.190462  0.285692  0.317825  0.237475  0.098545
                                 0.017147  0.002244 -0.000252  0.000090 -0.000033 -0.003494 -0.004147  0.000008

   2.6   0     0.0344   -3.2070 -0.000002 -0.000013 -0.000118 -0.000315 -0.001379 -0.001544 -0.005367  0.001307 -0.015720  0.093488
                                 0.240974  0.328138 -0.177669  0.337149 -0.487024 -0.161601 -0.362409  1.229108

   3.6   0     0.0860   -7.2635  0.000010  0.000106  0.000540  0.002437  0.005998  0.014911  0.016100  0.030225 -0.015629  0.145793
                                 0.351636  0.468724 -0.541448  0.415502 -1.464280 -0.312077 -0.691106  0.839501

                                   1 3d1-    1 3d1-    1 3d1-    1 3d1-    1 3d1-    1 3d1-    1 3d1-    1 3d1-    1 3d1-    1 3d1- 
                                   1 3d1-    1 3d1-    1 3d1-    1 3d1-    1 3d1-    1 3d1-    1 3d1-    1 3d1- 

   1.7   2    -5.5870  -72.0523  0.000161  0.001427  0.008274  0.032799  0.092214  0.190462  0.285692  0.317825  0.237475  0.098545
                                 0.017147  0.002244 -0.000252  0.000090 -0.000033 -0.003494 -0.004147  0.000008

   2.7   0     0.0344   -3.2070 -0.000002 -0.000013 -0.000118 -0.000315 -0.001379 -0.001544 -0.005367  0.001307 -0.015720  0.093488
                                 0.240974  0.328138 -0.177669  0.337149 -0.487024 -0.161601 -0.362409  1.229108

   3.7   0     0.0860   -7.2635  0.000010  0.000106  0.000540  0.002437  0.005998  0.014911  0.016100  0.030225 -0.015629  0.145793
                                 0.351636  0.468724 -0.541448  0.415502 -1.464280 -0.312077 -0.691106  0.839501

                                   1 4f2-    1 4f2-    1 4f2- 

   1.8   0     0.2736   -6.5808 -0.156404  0.039984  1.088971

   2.8   0     0.7430  -10.4543 -1.257923 -0.043197  0.701058

 HOMO      7.1    -0.181218 =      -4.9312eV
 LUMO      4.2     0.009840 =       0.2678eV
 LUMO-HOMO         0.191058 =       5.1990eV


 **********************************************************************************************************************************
 DATASETS  * FILE   NREC   LENGTH (MB)   RECORD NAMES
              1      22       20.47       500      610      700      900      950      970     1000      129      960     1700   
                                          VAR    BASINP    GEOM    SYMINP    ZMAT    AOBASIS   BASIS     P2S    ABASIS    OPER   
                                         1101     1401     1411     1412     1650     1100     1400     1410     1200     1210   
                                          SR      EKINR    POTR     PVPR    MOLCAS      S      EKIN      POT      H0       H01  
                                         1080     1600   
                                         AOSYM     SMH  

              2       5        5.52       200      700     1000      520     4202   
                                        OPTIONS   GEOM     BASIS   MCVARS     RHF  

 PROGRAMS   *        TOTAL       RHF       INT
 CPU TIMES  *        24.81      0.55     23.85
 REAL TIME  *        29.01 SEC
 DISK USED  *         1.11 GB      
 SF USED    *         0.03 MB      
 GA USED    *         0.00 MB       (max)       0.00 MB       (current)
 **********************************************************************************************************************************


 PROGRAM * POP (Mulliken population analysis)

 
 Density matrix read from record         4202.2  Type=RHF/CHARGE (state 1.1)
 
 Population analysis by basis function type

 Unique atom        s        p        d        f        g    Total    Charge
   1  SR     10.00000 18.00000 10.00000  0.00000  0.00000 38.00000  + 0.00000


 **********************************************************************************************************************************
 DATASETS  * FILE   NREC   LENGTH (MB)   RECORD NAMES
              1      22       20.47       500      610      700      900      950      970     1000      129      960     1700   
                                          VAR    BASINP    GEOM    SYMINP    ZMAT    AOBASIS   BASIS     P2S    ABASIS    OPER   
                                         1101     1401     1411     1412     1650     1100     1400     1410     1200     1210   
                                          SR      EKINR    POTR     PVPR    MOLCAS      S      EKIN      POT      H0       H01  
                                         1080     1600   
                                         AOSYM     SMH  

              2       5        5.52       200      700     1000      520     4202   
                                        OPTIONS   GEOM     BASIS   MCVARS     RHF  

 PROGRAMS   *        TOTAL       POP       RHF       INT
 CPU TIMES  *        24.82      0.00      0.55     23.85
 REAL TIME  *        29.04 SEC
 DISK USED  *         1.11 GB      
 SF USED    *         0.03 MB      
 GA USED    *         0.00 MB       (max)       0.00 MB       (current)
 **********************************************************************************************************************************


 PROGRAM * MULTI (Direct Multiconfiguration SCF)       Authors: P.J. Knowles, H.-J. Werner (1984)     S.T. Elbert (1988)


 Number of closed-shell orbitals:  19 (   7   3   3   1   3   1   1   0 )
 Number of active  orbitals:        0 (   0   0   0   0   0   0   0   0 )
 Number of external orbitals:     186 (  60  24  24  17  24  17  17   3 )

 State symmetry 1

 Number of electrons:     0    Spin symmetry=Singlet   Space symmetry=1
 Number of states:        1
 Number of CSFs:          1   (1 determinants, 1 intermediate states)

 State symmetry 1

 Number of electrons:   -38    Spin symmetry=Singlet   Space symmetry=1
 Number of states:        1
 Number of CSFs:          0   (1 determinants, 0 intermediate states)

 Molecular orbitals read from record     4202.2  Type=RHF/CANONICAL (state 1.1)
 *** IN SYMMETRY 1 ORBITAL  5 SYMMETRY CONTAMINATION OF 0.878D-02 HAS BEEN REMOVED
 *** IN SYMMETRY 1 ORBITAL  6 SYMMETRY CONTAMINATION OF 0.878D-02 HAS BEEN REMOVED

 EXTRA SYMMETRY OF MOS IN SYMMETRY 1:   1 1 1 1 3 2 1 1 3 2   2 3 1 2 3 1 2 3 2 3   1 3 2 1 3 2 1 2 3 2   3 1 2 3 1 2 3 1 2 3
                                        1 2 3 1 2 3 1 2 3 1   2 3 1 1 2 3 1 1 1 1   1 1 1 1 1 1 1
 EXTRA SYMMETRY OF MOS IN SYMMETRY 2:   1 1 1 1 1 1 2 3 1 2   3 1 2 3 1 1 1 1 1 1   1 1 1 1 1 1 1
 EXTRA SYMMETRY OF MOS IN SYMMETRY 3:   1 1 1 1 1 1 2 3 1 2   3 1 2 3 1 1 1 1 1 1   1 1 1 1 1 1 1
 EXTRA SYMMETRY OF MOS IN SYMMETRY 5:   1 1 1 1 1 1 3 2 1 2   3 1 3 2 1 1 1 1 1 1   1 1 1 1 1 1 1

 Wavefunction dump at record             5202.2

 Convergence thresholds  0.10E-01 (gradient)  0.10E-05 (energy)  0.10E-02 (step length)

 Number of orbital rotations:      687   (     0 Core/Active    687 Core/Virtual   0 Active/Active      0 Active/Virtual)
 Total number of variables:        688


 ITER. MIC  NCI  NEG     ENERGY(VAR)     ENERGY(PROJ)   ENERGY CHANGE     GRAD(0)  GRAD(ORB)   GRAD(CI)     STEP       TIME

   1   24    4    0   -3177.36291703   -3177.36291703   -0.00000000    0.00000045 0.00000000 0.00000000  0.14D-05      0.39

 ** WVFN ****  CONVERGENCE REACHED, FINAL GRADIENT:  0.42D-09


 First order charge density matrix for state 1.1 saved on record  5202.2 (density set 1)

 Results for state 1.1
 =====================

 !MCSCF STATE 1.1 Energy            -3177.362917029824
 Nuclear energy                         0.00000000
 Kinetic energy                      3455.66657283
 One electron energy                -4396.70060460
 Two electron energy                 1219.33768757
 Virial ratio                           1.91946455

 !MCSCF STATE 1.1 Dipole moment         0.00000000     0.00000000     0.00000000
 Dipole moment /Debye                   0.00000000     0.00000000     0.00000000


 NATURAL ORBITALS
 ================

   Orb     Occ        Energy       Coefficients

                                   1 1s      1 1s      1 1s      1 1s      1 1s      1 1s      1 1s      1 1s      1 1s      1 1s   
                                   1 1s      1 1s      1 1s      1 1s      1 1s      1 1s      1 1s      1 1s      1 1s      1 1s   
                                   1 1s      1 1s      1 1s      1 1s      1 1s      1 1s      1 1s      1 1s      1 1s      1 1s   
                                   1 1s      1 3d0     1 3d2+    1 3d0     1 3d2+    1 3d0     1 3d2+    1 3d0     1 3d2+    1 3d0  
                                   1 3d2+    1 3d0     1 3d2+    1 3d0     1 3d2+    1 3d0     1 3d2+    1 3d0     1 3d2+    1 3d0  
                                   1 3d2+    1 3d0     1 3d2+    1 3d0     1 3d2+    1 3d0     1 3d2+    1 3d0     1 3d2+    1 3d0  
                                   1 3d2+    1 3d0     1 3d2+    1 3d0     1 3d2+    1 3d0     1 3d2+ 

   1.1  2.00000  -595.243334     0.000048  0.000073  0.000195  0.000393  0.000837  0.001680  0.003396  0.006826  0.013908  0.028556
                                 0.058335  0.114024  0.200183  0.285696  0.281268  0.147430  0.025265 -0.000224  0.000650 -0.000409
                                 0.000262 -0.000360  0.002163 -0.000549  0.000027 -0.000005  0.000004 -0.000002 -0.002390  0.000968
                                 0.000000 -0.000000  0.000000 -0.000000  0.000000 -0.000000  0.000000 -0.000000  0.000000 -0.000000
                                 0.000000 -0.000000  0.000000 -0.000000  0.000000 -0.000000  0.000000 -0.000000  0.000000 -0.000000
                                 0.000000 -0.000000  0.000000 -0.000000  0.000000  0.000000 -0.000000 -0.000000  0.000000  0.000000
                                -0.000000  0.000000 -0.000000  0.000000 -0.000000 -0.000000  0.000000

   2.1  2.00000   -83.108504    -0.000016 -0.000024 -0.000064 -0.000129 -0.000274 -0.000552 -0.001120 -0.002263 -0.004655 -0.009698
                                -0.020366 -0.041756 -0.080373 -0.135048 -0.174185 -0.097583  0.204709  0.514298  0.379656  0.081956
                                 0.001600  0.003089 -0.011172  0.002294 -0.000117  0.000018 -0.000014  0.000007  0.011836 -0.004264
                                -0.000002  0.000000 -0.000000  0.000000 -0.000000  0.000000 -0.000000  0.000000 -0.000000  0.000000
                                -0.000000  0.000000 -0.000000  0.000000 -0.000000  0.000000 -0.000000  0.000000 -0.000000  0.000000
                                -0.000000  0.000000 -0.000000  0.000000 -0.000000 -0.000000  0.000000  0.000000 -0.000000 -0.000000
                                 0.000000 -0.000000  0.000000 -0.000000  0.000000  0.000000 -0.000000

   3.1  2.00000   -13.954554     0.000006  0.000010  0.000026  0.000053  0.000113  0.000226  0.000460  0.000929  0.001914  0.003996
                                 0.008424  0.017379  0.033892  0.058282  0.078445  0.046126 -0.118400 -0.393678 -0.393216  0.151966
                                 0.683753  0.438365 -0.044883  0.023707 -0.000520  0.000175 -0.000130  0.000061  0.105317 -0.039505
                                -0.000016 -0.000000  0.000000 -0.000000  0.000000 -0.000000  0.000000 -0.000000  0.000000 -0.000000
                                 0.000000 -0.000000  0.000000 -0.000000  0.000000 -0.000000  0.000000 -0.000000  0.000000 -0.000000
                                 0.000000 -0.000000  0.000000 -0.000000  0.000000  0.000000 -0.000000 -0.000000  0.000000  0.000000
                                -0.000000  0.000000 -0.000000  0.000000 -0.000000 -0.000000  0.000000

   4.1  2.00000    -5.586996     0.000000  0.000000  0.000000  0.000000  0.000000  0.000000  0.000000  0.000000  0.000000  0.000000
                                 0.000000  0.000000  0.000000  0.000000  0.000000  0.000000 -0.000000 -0.000000 -0.000000  0.000000
                                 0.000000  0.000000  0.000000 -0.000000 -0.000000 -0.000000  0.000000 -0.000000 -0.000000  0.000000
                                 0.000000  0.000161 -0.000000  0.001427 -0.000000  0.008274 -0.000000  0.032799 -0.000000  0.092214
                                -0.000000  0.190462 -0.000000  0.285692 -0.000000  0.317825 -0.000000  0.237475 -0.000000  0.098545
                                -0.000000  0.017147 -0.000000  0.002244 -0.000000 -0.000252  0.000000  0.000090 -0.000000 -0.000033
                                 0.000000 -0.003494  0.000000 -0.004147  0.000000  0.000008 -0.000000

   5.1  2.00000    -5.586996    -0.000000 -0.000000 -0.000000 -0.000000 -0.000000 -0.000000 -0.000000 -0.000000 -0.000000 -0.000000
                                -0.000000 -0.000000 -0.000000 -0.000000 -0.000000 -0.000000  0.000000  0.000000  0.000000 -0.000000
                                -0.000000 -0.000000 -0.000000  0.000000  0.000000  0.000000 -0.000000  0.000000  0.000000 -0.000000
                                -0.000000  0.000000  0.000161  0.000000  0.001427  0.000000  0.008274  0.000000  0.032799  0.000000
                                 0.092214  0.000000  0.190462  0.000000  0.285692  0.000000  0.317825  0.000000  0.237475  0.000000
                                 0.098545  0.000000  0.017147  0.000000  0.002244  0.000000 -0.000252  0.000000  0.000090  0.000000
                                -0.000033  0.000000 -0.003494  0.000000 -0.004147  0.000000  0.000008

   6.1  2.00000    -1.948445    -0.000002 -0.000003 -0.000009 -0.000019 -0.000040 -0.000081 -0.000164 -0.000331 -0.000682 -0.001421
                                -0.003004 -0.006188 -0.012134 -0.020853 -0.028470 -0.016558  0.043974  0.157643  0.160756 -0.068905
                                -0.424812 -0.466757 -0.043671  0.774065  0.362359  0.015581 -0.007519  0.002981  0.275417 -0.045530
                                -0.000735 -0.000000  0.000000 -0.000000  0.000000 -0.000000  0.000000 -0.000000  0.000000 -0.000000
                                 0.000000 -0.000000  0.000000 -0.000000  0.000000 -0.000000  0.000000 -0.000000  0.000000 -0.000000
                                 0.000000 -0.000000  0.000000 -0.000000  0.000000  0.000000 -0.000000 -0.000000  0.000000  0.000000
                                -0.000000  0.000000 -0.000000  0.000000 -0.000000 -0.000000  0.000000

   7.1  2.00000    -0.181218     0.000001  0.000001  0.000002  0.000005  0.000010  0.000021  0.000042  0.000086  0.000177  0.000368
                                 0.000779  0.001604  0.003147  0.005409  0.007395  0.004300 -0.011468 -0.041465 -0.042430  0.018275
                                 0.119088  0.142826 -0.038095 -0.286787 -0.310456  0.366741  0.620862  0.219645 -0.033570 -0.016249
                                 0.001012  0.000000 -0.000000  0.000000 -0.000000  0.000000 -0.000000  0.000000 -0.000000  0.000000
                                -0.000000  0.000000 -0.000000  0.000000 -0.000000  0.000000 -0.000000  0.000000 -0.000000  0.000000
                                -0.000000  0.000000 -0.000000  0.000000 -0.000000 -0.000000  0.000000  0.000000 -0.000000 -0.000000
                                 0.000000 -0.000000  0.000000 -0.000000  0.000000  0.000000 -0.000000

                                   1 2px     1 2px     1 2px     1 2px     1 2px     1 2px     1 2px     1 2px     1 2px     1 2px  
                                   1 2px     1 2px     1 2px     1 2px     1 2px     1 2px     1 2px     1 2px     1 2px     1 2px  
                                   1 2px     1 4f1+    1 4f3+    1 4f1+    1 4f3+    1 4f1+    1 4f3+ 

   1.2  2.00000   -73.648867     0.000024  0.000109  0.000476  0.002003  0.007933  0.028143  0.084515  0.199995  0.339367  0.347019
                                 0.158277  0.021307  0.002803 -0.000580 -0.000226 -0.000052  0.000033 -0.000015  0.000458  0.000112
                                 0.000005  0.000000  0.000000  0.000000  0.000000  0.000000  0.000000

   2.2  2.00000   -10.803241    -0.000010 -0.000046 -0.000200 -0.000842 -0.003362 -0.012058 -0.037224 -0.091661 -0.165254 -0.165878
                                 0.058283  0.383216  0.463187  0.203707  0.002551  0.000240 -0.000176  0.000079  0.025494 -0.000589
                                -0.000024  0.000000  0.000000  0.000000  0.000000  0.000000  0.000000

   3.2  2.00000    -1.095085    -0.000003 -0.000015 -0.000064 -0.000270 -0.001082 -0.003869 -0.012053 -0.029678 -0.054511 -0.053457
                                 0.028256  0.163143  0.213614  0.087662 -0.542464 -0.047308  0.010284 -0.005343 -0.328999 -0.278878
                                 0.001580  0.000000  0.000000  0.000000  0.000000  0.000000  0.000000

                                   1 2py     1 2py     1 2py     1 2py     1 2py     1 2py     1 2py     1 2py     1 2py     1 2py  
                                   1 2py     1 2py     1 2py     1 2py     1 2py     1 2py     1 2py     1 2py     1 2py     1 2py  
                                   1 2py     1 4f1-    1 4f3-    1 4f1-    1 4f3-    1 4f1-    1 4f3- 

   1.3  2.00000   -73.648867     0.000024  0.000109  0.000476  0.002003  0.007933  0.028143  0.084515  0.199995  0.339367  0.347019
                                 0.158277  0.021307  0.002803 -0.000580 -0.000226 -0.000052  0.000033 -0.000015  0.000458  0.000112
                                 0.000005  0.000000  0.000000  0.000000  0.000000  0.000000  0.000000

   2.3  2.00000   -10.803241    -0.000010 -0.000046 -0.000200 -0.000842 -0.003362 -0.012058 -0.037224 -0.091661 -0.165254 -0.165878
                                 0.058283  0.383216  0.463187  0.203707  0.002551  0.000240 -0.000176  0.000079  0.025494 -0.000589
                                -0.000024  0.000000  0.000000  0.000000  0.000000  0.000000  0.000000

   3.3  2.00000    -1.095085    -0.000003 -0.000015 -0.000064 -0.000270 -0.001082 -0.003869 -0.012053 -0.029678 -0.054511 -0.053457
                                 0.028256  0.163143  0.213614  0.087662 -0.542464 -0.047308  0.010284 -0.005343 -0.328999 -0.278878
                                 0.001580  0.000000  0.000000  0.000000  0.000000  0.000000  0.000000

                                   1 3d2-    1 3d2-    1 3d2-    1 3d2-    1 3d2-    1 3d2-    1 3d2-    1 3d2-    1 3d2-    1 3d2- 
                                   1 3d2-    1 3d2-    1 3d2-    1 3d2-    1 3d2-    1 3d2-    1 3d2-    1 3d2- 

   1.4  2.00000    -5.586996     0.000161  0.001427  0.008274  0.032799  0.092214  0.190462  0.285692  0.317825  0.237475  0.098545
                                 0.017147  0.002244 -0.000252  0.000090 -0.000033 -0.003494 -0.004147  0.000008

                                   1 2pz     1 2pz     1 2pz     1 2pz     1 2pz     1 2pz     1 2pz     1 2pz     1 2pz     1 2pz  
                                   1 2pz     1 2pz     1 2pz     1 2pz     1 2pz     1 2pz     1 2pz     1 2pz     1 2pz     1 2pz  
                                   1 2pz     1 4f0     1 4f2+    1 4f0     1 4f2+    1 4f0     1 4f2+ 

   1.5  2.00000   -73.648867     0.000024  0.000109  0.000476  0.002003  0.007933  0.028143  0.084515  0.199995  0.339367  0.347019
                                 0.158277  0.021307  0.002803 -0.000580 -0.000226 -0.000052  0.000033 -0.000015  0.000458  0.000112
                                 0.000005  0.000000  0.000000  0.000000  0.000000  0.000000  0.000000

   2.5  2.00000   -10.803241    -0.000010 -0.000046 -0.000200 -0.000842 -0.003362 -0.012058 -0.037224 -0.091661 -0.165254 -0.165878
                                 0.058283  0.383216  0.463187  0.203707  0.002551  0.000240 -0.000176  0.000079  0.025494 -0.000589
                                -0.000024  0.000000  0.000000  0.000000  0.000000  0.000000  0.000000

   3.5  2.00000    -1.095085    -0.000003 -0.000015 -0.000064 -0.000270 -0.001082 -0.003869 -0.012053 -0.029678 -0.054511 -0.053457
                                 0.028256  0.163143  0.213614  0.087662 -0.542464 -0.047308  0.010284 -0.005343 -0.328999 -0.278878
                                 0.001580  0.000000  0.000000  0.000000  0.000000  0.000000  0.000000

                                   1 3d1+    1 3d1+    1 3d1+    1 3d1+    1 3d1+    1 3d1+    1 3d1+    1 3d1+    1 3d1+    1 3d1+ 
                                   1 3d1+    1 3d1+    1 3d1+    1 3d1+    1 3d1+    1 3d1+    1 3d1+    1 3d1+ 

   1.6  2.00000    -5.586996     0.000161  0.001427  0.008274  0.032799  0.092214  0.190462  0.285692  0.317825  0.237475  0.098545
                                 0.017147  0.002244 -0.000252  0.000090 -0.000033 -0.003494 -0.004147  0.000008

                                   1 3d1-    1 3d1-    1 3d1-    1 3d1-    1 3d1-    1 3d1-    1 3d1-    1 3d1-    1 3d1-    1 3d1- 
                                   1 3d1-    1 3d1-    1 3d1-    1 3d1-    1 3d1-    1 3d1-    1 3d1-    1 3d1- 

   1.7  2.00000    -5.586996     0.000161  0.001427  0.008274  0.032799  0.092214  0.190462  0.285692  0.317825  0.237475  0.098545
                                 0.017147  0.002244 -0.000252  0.000090 -0.000033 -0.003494 -0.004147  0.000008
 

 EXTRA SYMMETRY OF MOS IN SYMMETRY 1:   1 1 1 2 3 1 1 1 3 2   2 3 1 2 3 1 2 3 2 3   1 3 2 1 3 2 1 2 3 2   3 1 2 3 1 2 3 1 2 3
                                        1 2 3 1 2 3 1 2 3 1   2 3 1 1 2 3 1 1 1 1   1 1 1 1 1 1 1
 EXTRA SYMMETRY OF MOS IN SYMMETRY 2:   1 1 1 1 1 1 3 2 1 2   3 1 2 3 1 1 1 1 1 1   1 1 1 1 1 1 1
 EXTRA SYMMETRY OF MOS IN SYMMETRY 3:   1 1 1 1 1 1 3 2 1 2   3 1 2 3 1 1 1 1 1 1   1 1 1 1 1 1 1
 EXTRA SYMMETRY OF MOS IN SYMMETRY 5:   1 1 1 1 1 1 3 2 1 3   2 1 3 2 1 1 1 1 1 1   1 1 1 1 1 1 1

 Natural orbital dump at molpro section  5202.2    (Orbital set 2)


 CI vector
 =========

              1.0000000

 TOTAL ENERGIES                     -3177.36291703



 **********************************************************************************************************************************
 DATASETS  * FILE   NREC   LENGTH (MB)   RECORD NAMES
              1      23       33.88       500      610      700      900      950      970     1000      129      960     1700   
                                          VAR    BASINP    GEOM    SYMINP    ZMAT    AOBASIS   BASIS     P2S    ABASIS    OPER   
                                         1101     1401     1411     1412     1650     1100     1400     1410     1200     1210   
                                          SR      EKINR    POTR     PVPR    MOLCAS      S      EKIN      POT      H0       H01  
                                         1080     1600     1380   
                                         AOSYM     SMH     JKOP   

              2       6        8.35       200      700     1000      520     4202     5202   
                                        OPTIONS   GEOM     BASIS   MCVARS     RHF     MCSCF   

 PROGRAMS   *        TOTAL     MULTI       POP       RHF       INT
 CPU TIMES  *        25.56      0.74      0.00      0.55     23.85
 REAL TIME  *        30.89 SEC
 DISK USED  *         1.11 GB      
 SF USED    *        46.82 MB      
 GA USED    *         0.00 MB       (max)       0.00 MB       (current)
 **********************************************************************************************************************************


 PROGRAM * RHF-SCF (CLOSED SHELL)       Authors: W. Meyer, H.-J. Werner


 NUMBER OF ELECTRONS:      19+   19-    SPACE SYMMETRY=1    SPIN SYMMETRY: Singlet 
 CONVERGENCE THRESHOLDS:    1.00E-05 (Density)    1.00E-07 (Energy)
 MAX. NUMBER OF ITERATIONS:        0
 INTERPOLATION TYPE:            DIIS
 INTERPOLATION STEPS:              2 (START)      1 (STEP)
 LEVEL SHIFTS:                  0.00 (CLOSED)  0.00 (OPEN) 

 Number of closed-shell orbitals:   19 (   7   3   3   1   3   1   1   0 )


 Molecular orbitals read from record     5202.2  Type=MCSCF/NATURAL (state 1.1)

 Molecular orbital dump at record        2101.2

 ITERATION    DDIFF          GRAD             ENERGY        2-EL.EN.            DIPOLE MOMENTS         DIIS   ORB.
    1      0.000D+00      0.000D+00     -3177.36291703   2438.675375    0.00000    0.00000    0.00000    0    start

 Final occupancy:   7   3   3   1   3   1   1   0

 !RHF STATE 1.1 Energy              -3177.362917029824
 Nuclear energy                         0.00000000
 One-electron energy                -4396.70060460
 Two-electron energy                 1219.33768757
 Virial quotient                       -0.91946455
 !RHF STATE 1.1 Dipole moment           0.00000000     0.00000000     0.00000000
 Dipole moment /Debye                   0.00000000     0.00000000     0.00000000

 Orbital energies:

         1.1          2.1          3.1          4.1          5.1          6.1          7.1          8.1          9.1
   -595.243334   -83.108504   -13.954554    -5.586996    -5.586996    -1.948445    -0.181218     0.017421     0.034442

         1.2          2.2          3.2          4.2          5.2
    -73.648867   -10.803241    -1.095085     0.009840     0.035558

         1.3          2.3          3.3          4.3          5.3
    -73.648867   -10.803241    -1.095085     0.009840     0.035558

         1.4          2.4          3.4
     -5.586996     0.034442     0.085967

         1.5          2.5          3.5          4.5          5.5
    -73.648867   -10.803241    -1.095085     0.009840     0.035558

         1.6          2.6          3.6
     -5.586996     0.034442     0.085967

         1.7          2.7          3.7
     -5.586996     0.034442     0.085967

         1.8          2.8
      0.273616     0.743026

 HOMO      7.1    -0.181218 =      -4.9312eV
 LUMO      4.2     0.009840 =       0.2678eV
 LUMO-HOMO         0.191058 =       5.1990eV


 **********************************************************************************************************************************
 DATASETS  * FILE   NREC   LENGTH (MB)   RECORD NAMES
              1      23       33.88       500      610      700      900      950      970     1000      129      960     1700   
                                          VAR    BASINP    GEOM    SYMINP    ZMAT    AOBASIS   BASIS     P2S    ABASIS    OPER   
                                         1101     1401     1411     1412     1650     1100     1400     1410     1200     1210   
                                          SR      EKINR    POTR     PVPR    MOLCAS      S      EKIN      POT      H0       H01  
                                         1080     1600     1380   
                                         AOSYM     SMH     JKOP   

              2       7       11.03       200      700     1000      520     4202     5202     2101   
                                        OPTIONS   GEOM     BASIS   MCVARS     RHF     MCSCF     RHF  

 PROGRAMS   *        TOTAL       RHF     MULTI       POP       RHF       INT
 CPU TIMES  *        25.71      0.15      0.74      0.00      0.55     23.85
 REAL TIME  *        31.32 SEC
 DISK USED  *         1.11 GB      
 SF USED    *        46.82 MB      
 GA USED    *         0.00 MB       (max)       0.00 MB       (current)
 **********************************************************************************************************************************
 SETTING SCF(1)         =     -3177.36291703  AU                              
 SETTING _CC_NORM_MAX   =         2.00000000                                  


 PROGRAM * CCSD (Restricted open-shell coupled cluster)     Authors: C. Hampel, H.-J. Werner, 1991, M. Deegan, P.J. Knowles, 1992


 Convergence thresholds:  THRVAR = 1.00D-08  THRDEN = 1.00D-06

 CCSD(T)     terms to be evaluated (factor= 1.000)


 Number of closed-shell orbitals:  19 (   7   3   3   1   3   1   1   0 )
 Number of external orbitals:     186 (  60  24  24  17  24  17  17   3 )

 Memory could be reduced to 32.39 Mwords without degradation in triples

 Number of N-1 electron functions:              38
 Number of N-2 electron functions:             703
 Number of singly external CSFs:              1374
 Number of doubly external CSFs:           2466516
 Total number of CSFs:                     2467890

 Molecular orbitals read from record     2101.2  Type=RHF/CANONICAL (state 1.1)

 Integral transformation finished. Total CPU:   0.92 sec, npass=  1  Memory used:   5.56 MW

 Starting RMP2 calculation

 Wavefunction is spin-projected

 ITER.      SQ.NORM     CORR.ENERGY   TOTAL ENERGY   ENERGY CHANGE        DEN1      VAR(S)    VAR(P)  DIIS     TIME
   1      1.10474701    -1.03803868 -3178.40095571    -1.03803868    -0.00165575  0.16D-19  0.16D-02  1  1     1.30
   2      1.10921512    -1.03983530 -3178.40275233    -0.00179662    -0.00004949  0.97D-21  0.74D-04  2  2     1.60
   3      1.11039539    -1.04011814 -3178.40303517    -0.00028284    -0.00000037  0.34D-22  0.51D-06  3  3     2.11
   4      1.11046151    -1.04012694 -3178.40304397    -0.00000880    -0.00000001  0.23D-23  0.86D-08  4  4     2.68
   5      1.11046320    -1.04012698 -3178.40304401    -0.00000004    -0.00000000  0.11D-24  0.71D-10  5  5     3.39

 Norm of t1 vector:      0.00000000      S-energy:    -0.00000000      T1 diagnostic:  0.00000000
 Norm of t2 vector:      0.33236004      P-energy:    -1.04012698
                                         Alpha-Beta:  -0.71291709
                                         Alpha-Alpha: -0.16360494
                                         Beta-Beta:   -0.16360494

 Spin contamination <S**2-Sz**2-Sz>     0.00000000
  Reference energy                  -3177.362917029823
  RHF-RMP2 correlation energy          -1.040126984214
 !RHF-RMP2 energy                   -3178.403044014038
 (NB above energy spin projected)

 Starting RCCSD calculation

 ITER.      SQ.NORM     CORR.ENERGY   TOTAL ENERGY   ENERGY CHANGE        DEN1      VAR(S)    VAR(P)  DIIS     TIME
   1      1.10592497    -0.99325950 -3178.35617653    -0.99325950    -0.01508960  0.18D-02  0.32D-02  0  0     5.46
   2      1.11931448    -1.00708617 -3178.37000320    -0.01382667    -0.00115070  0.48D-03  0.72D-03  1  1     7.53
   3      1.12598634    -1.00736993 -3178.37028696    -0.00028376    -0.00032171  0.22D-03  0.27D-03  2  2     9.76
   4      1.13519224    -1.00898360 -3178.37190063    -0.00161367    -0.00003420  0.28D-04  0.27D-04  3  3    11.56
   5      1.13867579    -1.00931981 -3178.37223684    -0.00033622    -0.00000322  0.24D-05  0.26D-05  4  4    13.42
   6      1.13948773    -1.00936737 -3178.37228440    -0.00004755    -0.00000056  0.29D-06  0.56D-06  5  5    15.33
   7      1.13974345    -1.00938311 -3178.37230014    -0.00001575    -0.00000007  0.92D-08  0.79D-07  6  6    18.16
   8      1.13977890    -1.00938423 -3178.37230126    -0.00000112    -0.00000001  0.67D-09  0.13D-07  6  1    26.14
   9      1.13978716    -1.00938422 -3178.37230125     0.00000001    -0.00000000  0.81D-09  0.13D-08  6  2    33.46

 Norm of t1 vector:      0.09951037      S-energy:     0.00000000      T1 diagnostic:  0.01141462
                                                                       D1 diagnostic:  0.06973303
 Norm of t2 vector:      0.36039541      P-energy:    -1.00938422
                                         Alpha-Beta:  -0.70828065
                                         Alpha-Alpha: -0.15055178
                                         Beta-Beta:   -0.15055178

 Spin contamination <S**2-Sz**2-Sz>     0.00000000

 Memory could be reduced to 35.20 Mwords without degradation in triples
 

  Correlated core orbitals:             1.1       2.1       3.1       4.1       5.1       6.1       1.2       2.2       3.2       1.3
                                        2.3       3.3       1.4       1.5       2.5       3.5       1.6       1.7
  Orbital energies:                  -595.2433  -83.1085  -13.9546   -5.5870   -5.5870   -1.9484  -73.6489  -10.8032   -1.0951  -73.6489
                                      -10.8032   -1.0951   -5.5870  -73.6489  -10.8032   -1.0951   -5.5870   -5.5870
 
  RCCSD core-core energy               -0.953501514438
  RCCSD core-valence energy            -0.033957382145
  RCCSD valence correlation energy     -0.021925323131
 

 RESULTS
 =======

  Reference energy                  -3177.362917029823
  RCCSD singles energy                  0.000000000000
  RCCSD pair energy                    -1.009384219714
  RCCSD correlation energy             -1.009384219714
  Triples (T) contribution             -0.013112611997
  Total correlation energy             -1.022496831711
 
  RHF-RCCSD energy                  -3178.372301249537
  RHF-RCCSD[T] energy               -3178.385845114451
  RHF-RCCSD-T energy                -3178.385302353729
 !RHF-RCCSD(T) energy               -3178.385413861534

 Program statistics:

 Available memory in ccsd:               511996822
 Min. memory needed in ccsd:               6919475
 Max. memory used in ccsd:                10057816
 Max. memory used in cckext:               8438494 ( 9 integral passes)
 Max. memory used in cckint:               5558999 ( 1 integral passes)



 **********************************************************************************************************************************
 DATASETS  * FILE   NREC   LENGTH (MB)   RECORD NAMES
              1      23       33.88       500      610      700      900      950      970     1000      129      960     1700   
                                          VAR    BASINP    GEOM    SYMINP    ZMAT    AOBASIS   BASIS     P2S    ABASIS    OPER   
                                         1101     1401     1411     1412     1650     1100     1400     1410     1200     1210   
                                          SR      EKINR    POTR     PVPR    MOLCAS      S      EKIN      POT      H0       H01  
                                         1080     1600     1380   
                                         AOSYM     SMH     JKOP   

              2       7       11.03       200      700     1000      520     4202     5202     2101   
                                        OPTIONS   GEOM     BASIS   MCVARS     RHF     MCSCF     RHF  

 PROGRAMS   *        TOTAL  RCCSD(T)       RHF     MULTI       POP       RHF       INT
 CPU TIMES  *        78.85     53.06      0.15      0.74      0.00      0.55     23.85
 REAL TIME  *       103.89 SEC
 DISK USED  *         8.73 GB      
 SF USED    *       657.35 MB      
 GA USED    *         0.00 MB       (max)       0.00 MB       (current)
 **********************************************************************************************************************************
 SETTING CCSD(1)        =     -3178.38541386  AU                              

 DO I                   =         2.00000000   

 Running procedure=IS5S5P


 PROGRAM * RHF-SCF (OPEN SHELL)       Authors: W. Meyer, H.-J. Werner


 NUMBER OF ELECTRONS:      20+   18-    SPACE SYMMETRY=2    SPIN SYMMETRY: Triplet 
 CONVERGENCE THRESHOLDS:    1.00E-05 (Density)    1.00E-07 (Energy)
 MAX. NUMBER OF ITERATIONS:       60
 INTERPOLATION TYPE:            DIIS
 INTERPOLATION STEPS:              2 (START)      1 (STEP)
 LEVEL SHIFTS:                 -0.60 (CLOSED) -0.30 (OPEN) 

 Number of closed-shell orbitals:   18 (   6   3   3   1   3   1   1   0 )
 Number of open-shell orbitals:      2 (   1   1   0   0   0   0   0   0 )

 Singly occupied orbitals:      7.1       4.2
 
 Extra symmetries of mos in symmetry 1:   1   1   1   1   3   2   1
 Orbital guess generated from atomic densities. Full valence occupancy:    7   3   3   1   3   1   1   0


 Molecular orbital dump at record        4202.2

 ITERATION    DDIFF          GRAD             ENERGY        2-EL.EN.            DIPOLE MOMENTS         DIIS   ORB.
    1      0.000D+00      0.000D+00     -3111.33035341   3126.855886    0.00000    0.00000    0.00000    0    start
    2      0.000D+00      0.944D+00     -2967.83302882   1147.105628    0.00000    0.00000    0.00000    1    diag,B
    3      0.211D+01      0.633D+00     -3154.08355063   2844.629435    0.00000    0.00000    0.00000    2    diag,B
    4      0.743D+00      0.429D+00     -3174.79130400   2566.463929    0.00000    0.00000    0.00000    3    diag,B
    5      0.170D+01      0.983D-01     -3177.04598968   2472.232268    0.00000    0.00000    0.00000    4    diag,B
    6      0.493D+00      0.187D-01     -3177.26939746   2446.145260    0.00000    0.00000    0.00000    5    diag,B
    7      0.222D+01      0.299D-02     -3177.30810785   2440.343945    0.00000    0.00000    0.00000    6    fixocc
    8      0.220D+00      0.123D-02     -3177.32205258   2438.140780    0.00000    0.00000    0.00000    7    diag,B
    9      0.278D-01      0.567D-03     -3177.32610229   2436.859593    0.00000    0.00000    0.00000    8    diag,B
   10      0.484D-01      0.218D-03     -3177.32684477   2436.397766    0.00000    0.00000    0.00000    9    orth
   11      0.547D-02      0.106D-03     -3177.32706539   2436.138782    0.00000    0.00000    0.00000    9    diag,B
   12      0.477D-02      0.446D-04     -3177.32710352   2436.075701    0.00000    0.00000    0.00000    9    diag,B
   13      0.685D-03      0.216D-04     -3177.32711349   2436.053406    0.00000    0.00000    0.00000    9    diag,B
   14      0.642D-03      0.107D-04     -3177.32711595   2436.049240    0.00000    0.00000    0.00000    9    diag,B
   15      0.411D-03      0.420D-05     -3177.32711622   2436.048475    0.00000    0.00000    0.00000    9    diag,B
   16      0.792D-04      0.212D-05     -3177.32711629   2436.048574    0.00000    0.00000    0.00000    9    diag,B
   17      0.599D-04      0.122D-05     -3177.32711631   2436.048494    0.00000    0.00000    0.00000    9    diag,B
   18      0.177D-04      0.543D-06     -3177.32711632   2436.048362    0.00000    0.00000    0.00000    9    diag,B
   19      0.512D-05      0.219D-06     -3177.32711632   2436.048387    0.00000    0.00000    0.00000    0    orth

 Final alpha occupancy:   7   4   3   1   3   1   1   0
 Final beta  occupancy:   6   3   3   1   3   1   1   0

 !RHF STATE 1.2 Energy              -3177.327116318426
 Nuclear energy                         0.00000000
 One-electron energy                -4395.35130969
 Two-electron energy                 1218.02419337
 Virial quotient                       -0.91946953
 !RHF STATE 1.2 Dipole moment           0.00000000     0.00000000     0.00000000
 Dipole moment /Debye                   0.00000000     0.00000000     0.00000000

 ELECTRON ORBITALS
 =================


   Orb  Occ    Energy  Couls-En    Coefficients

                                   1 1s      1 1s      1 1s      1 1s      1 1s      1 1s      1 1s      1 1s      1 1s      1 1s   
                                   1 1s      1 1s      1 1s      1 1s      1 1s      1 1s      1 1s      1 1s      1 1s      1 1s   
                                   1 1s      1 1s      1 1s      1 1s      1 1s      1 1s      1 1s      1 1s      1 1s      1 1s   
                                   1 1s      1 3d0     1 3d2+    1 3d0     1 3d2+    1 3d0     1 3d2+    1 3d0     1 3d2+    1 3d0  
                                   1 3d2+    1 3d0     1 3d2+    1 3d0     1 3d2+    1 3d0     1 3d2+    1 3d0     1 3d2+    1 3d0  
                                   1 3d2+    1 3d0     1 3d2+    1 3d0     1 3d2+    1 3d0     1 3d2+    1 3d0     1 3d2+    1 3d0  
                                   1 3d2+    1 3d0     1 3d2+    1 3d0     1 3d2+    1 3d0     1 3d2+ 

   1.1   2  -595.2779-1331.5355  0.000048  0.000073  0.000195  0.000393  0.000837  0.001680  0.003396  0.006826  0.013908  0.028556
                                 0.058335  0.114024  0.200183  0.285695  0.281268  0.147430  0.025265 -0.000224  0.000649 -0.000409
                                 0.000262 -0.000360  0.002163 -0.000549  0.000027 -0.000005  0.000004 -0.000002 -0.002390  0.000968
                                 0.000000  0.000000 -0.000000  0.000000 -0.000000 -0.000000  0.000000 -0.000000  0.000000  0.000000
                                -0.000000  0.000000 -0.000000  0.000000 -0.000000 -0.000000  0.000000 -0.000000  0.000000 -0.000000
                                 0.000000 -0.000000  0.000000 -0.000000  0.000000  0.000000 -0.000000  0.000000 -0.000000  0.000000
                                -0.000000  0.000000 -0.000000  0.000000 -0.000000 -0.000000  0.000000

   2.1   2   -83.1429 -265.9156 -0.000016 -0.000024 -0.000064 -0.000129 -0.000274 -0.000552 -0.001120 -0.002263 -0.004655 -0.009698
                                -0.020366 -0.041756 -0.080372 -0.135046 -0.174182 -0.097583  0.204701  0.514288  0.379663  0.081964
                                 0.001604  0.003087 -0.011165  0.002289 -0.000117  0.000018 -0.000014  0.000007  0.011825 -0.004257
                                -0.000002 -0.000000  0.000000 -0.000000  0.000000  0.000000 -0.000000  0.000000 -0.000000  0.000001
                                -0.000002  0.000001 -0.000002 -0.000000  0.000001  0.000000 -0.000000  0.000000 -0.000000  0.000001
                                -0.000001  0.000000 -0.000000 -0.000000  0.000000 -0.000000  0.000000 -0.000000  0.000000 -0.000000
                                 0.000000 -0.000000  0.000001 -0.000000  0.000000  0.000000 -0.000000

   3.1   2   -13.9887  -88.0346  0.000006  0.000010  0.000026  0.000053  0.000113  0.000226  0.000460  0.000929  0.001914  0.003996
                                 0.008423  0.017378  0.033890  0.058278  0.078440  0.046122 -0.118386 -0.393640 -0.393172  0.151857
                                 0.683660  0.438516 -0.045546  0.023953 -0.000539  0.000164 -0.000130  0.000059  0.106097 -0.039846
                                -0.000016  0.000000 -0.000000  0.000000 -0.000000  0.000000 -0.000001  0.000002 -0.000003  0.000005
                                -0.000008  0.000010 -0.000017  0.000014 -0.000024  0.000026 -0.000045  0.000033 -0.000057 -0.000006
                                 0.000010 -0.000006  0.000011  0.000000 -0.000001  0.000003 -0.000005  0.000001 -0.000002  0.000000
                                -0.000001  0.000009 -0.000015  0.000005 -0.000008 -0.000000  0.000000

   4.1   2    -1.9815  -32.3467 -0.000002 -0.000003 -0.000009 -0.000019 -0.000040 -0.000080 -0.000163 -0.000330 -0.000681 -0.001419
                                -0.002999 -0.006178 -0.012115 -0.020819 -0.028426 -0.016528  0.043894  0.157393  0.160450 -0.068678
                                -0.424026 -0.465285 -0.053646  0.788598  0.363037  0.015120 -0.006453  0.002913  0.287764 -0.064934
                                -0.000685 -0.000000  0.000000 -0.000001  0.000001 -0.000004  0.000007 -0.000016  0.000028 -0.000046
                                 0.000079 -0.000094  0.000163 -0.000138  0.000240 -0.000142  0.000245 -0.000101  0.000175  0.000154
                                -0.000266  0.000575 -0.000996  0.001115 -0.001931  0.000124 -0.000214 -0.000092  0.000159 -0.000016
                                 0.000027 -0.000129  0.000224  0.000336 -0.000583 -0.000003  0.000005

   5.1   2    -5.6212  -72.0887  0.000000  0.000000  0.000000  0.000000  0.000000  0.000000  0.000000  0.000000  0.000000  0.000001
                                 0.000002  0.000003  0.000007  0.000011  0.000015  0.000009 -0.000023 -0.000081 -0.000088  0.000030
                                 0.000221  0.000078 -0.000465  0.000153 -0.000103 -0.000021  0.000035  0.000002  0.000548 -0.000314
                                 0.000001 -0.000080  0.000139 -0.000713  0.001236 -0.004137  0.007166 -0.016400  0.028406 -0.046110
                                 0.079865 -0.095238  0.164957 -0.142855  0.247432 -0.158926  0.275268 -0.118725  0.205637 -0.049220
                                 0.085252 -0.008562  0.014829 -0.001107  0.001917  0.000136 -0.000235 -0.000041  0.000070  0.000016
                                -0.000028  0.001715 -0.002970  0.002061 -0.003570 -0.000004  0.000007

   6.1   2    -5.6227  -72.0866  0.000000 -0.000000  0.000000 -0.000000  0.000000 -0.000000 -0.000000  0.000000  0.000000 -0.000000
                                 0.000000 -0.000000  0.000000 -0.000000  0.000000 -0.000000  0.000000 -0.000000  0.000000 -0.000000
                                 0.000000 -0.000000  0.000000 -0.000000 -0.000000  0.000000 -0.000000  0.000000 -0.000000  0.000000
                                -0.000000  0.000139  0.000080  0.001235  0.000713  0.007165  0.004137  0.028403  0.016399  0.079856
                                 0.046105  0.164938  0.095227  0.247401  0.142837  0.275248  0.158915  0.205681  0.118750  0.085274
                                 0.049233  0.014868  0.008584  0.001940  0.001120 -0.000216 -0.000125  0.000077  0.000045 -0.000028
                                -0.000016 -0.002961 -0.001710 -0.003563 -0.002057  0.000007  0.000004

   7.1   +    -0.2429  -10.2597  0.000001  0.000001  0.000002  0.000005  0.000010  0.000021  0.000043  0.000087  0.000179  0.000373
                                 0.000787  0.001626  0.003179  0.005487  0.007456  0.004410 -0.011736 -0.041671 -0.043501  0.019758
                                 0.117018  0.156071 -0.254165 -0.054835 -0.376115  0.421911  0.661460  0.129505  0.256860 -0.298160
                                 0.001221  0.000001 -0.000001  0.000007 -0.000013  0.000042 -0.000073  0.000167 -0.000290  0.000475
                                -0.000823  0.000982 -0.001701  0.001448 -0.002508  0.001518 -0.002629  0.000795 -0.001377 -0.001761
                                 0.003049 -0.005789  0.010027 -0.007953  0.013775 -0.013044  0.022593 -0.035618  0.061692 -0.023971
                                 0.041519 -0.000063  0.000109  0.000487 -0.000843 -0.000890  0.001542

   8.1   0     0.0147   -3.1658  0.000000  0.000000  0.000001  0.000001  0.000002  0.000005  0.000009  0.000019  0.000037  0.000084
                                 0.000159  0.000378  0.000614  0.001350  0.001227  0.001743 -0.004296 -0.005165 -0.017077  0.021252
                                -0.017858  0.184796 -2.723485  2.392043 -0.478446  0.757160 -1.416818  3.023118  3.606018 -3.198896
                                -2.720429  0.000000 -0.000001  0.000003 -0.000006  0.000021 -0.000036  0.000074 -0.000128  0.000233
                                -0.000404  0.000420 -0.000728  0.000768 -0.001330  0.000473 -0.000819  0.001033 -0.001788 -0.005167
                                 0.008949 -0.013945  0.024153 -0.019725  0.034165  0.005092 -0.008820 -0.022249  0.038536  0.021474
                                -0.037194  0.007801 -0.013511  0.018170 -0.031472 -0.091843  0.159076

   9.1   0     0.0294   -3.8388 -0.000000 -0.000000 -0.000000 -0.000000 -0.000000 -0.000000 -0.000000 -0.000000  0.000000 -0.000000
                                 0.000000 -0.000000  0.000000 -0.000000  0.000000 -0.000000  0.000000 -0.000000  0.000000 -0.000000
                                 0.000000 -0.000001  0.000013 -0.000007  0.000001 -0.000000  0.000000 -0.000001 -0.000016  0.000011
                                 0.000000 -0.000004 -0.000002 -0.000031 -0.000018 -0.000207 -0.000120 -0.000719 -0.000415 -0.002369
                                -0.001368 -0.004024 -0.002323 -0.008006 -0.004622 -0.003761 -0.002171 -0.012960 -0.007482  0.068349
                                 0.039462  0.180691  0.104322  0.248981  0.143749 -0.087036 -0.050250  0.277639  0.160295 -0.265190
                                -0.153107 -0.108163 -0.062448 -0.245486 -0.141731  0.950604  0.548832

                                   1 2px     1 2px     1 2px     1 2px     1 2px     1 2px     1 2px     1 2px     1 2px     1 2px  
                                   1 2px     1 2px     1 2px     1 2px     1 2px     1 2px     1 2px     1 2px     1 2px     1 2px  
                                   1 2px     1 4f1+    1 4f3+    1 4f1+    1 4f3+    1 4f1+    1 4f3+ 

   1.2   2   -73.6837 -253.3021  0.000024  0.000109  0.000476  0.002003  0.007933  0.028144  0.084516  0.199998  0.339371  0.347018
                                 0.158272  0.021304  0.002803 -0.000578 -0.000226 -0.000053  0.000033 -0.000015  0.000459  0.000111
                                 0.000005 -0.000000  0.000000  0.000000 -0.000000  0.000000 -0.000000

   2.2   2   -10.8378  -82.0192 -0.000010 -0.000046 -0.000200 -0.000843 -0.003362 -0.012060 -0.037230 -0.091675 -0.165280 -0.165897
                                 0.058312  0.383303  0.463283  0.203570  0.002530  0.000260 -0.000157  0.000087  0.025390 -0.000571
                                -0.000024 -0.000004  0.000005  0.000022 -0.000028  0.000004 -0.000005

   3.2   2    -1.1261  -28.0400  0.000003  0.000015  0.000065  0.000272  0.001089  0.003896  0.012134  0.029885  0.054876  0.053847
                                -0.028541 -0.164187 -0.215523 -0.087386  0.550897  0.039092 -0.012244  0.003179  0.331084  0.273809
                                -0.001363  0.001749 -0.002258  0.001371 -0.001770 -0.000653  0.000843

   4.2   +    -0.1450   -8.1014 -0.000001 -0.000003 -0.000014 -0.000060 -0.000242 -0.000864 -0.002693 -0.006636 -0.012198 -0.011959
                                 0.006563  0.037249  0.049792  0.018845 -0.157227  0.218363  0.636698  0.283209 -0.086514 -0.130170
                                 0.001752 -0.001388  0.001792 -0.000527  0.000680 -0.004390  0.005668

   5.2   0     0.0232   -2.6897  0.000000  0.000001  0.000003  0.000013  0.000056  0.000183  0.000633  0.001379  0.002995  0.001971
                                 0.000182 -0.011981 -0.003348 -0.019588 -0.010045 -0.256194  0.373539 -1.339365  0.044424  0.108511
                                 1.743436 -0.000163  0.000210  0.000147 -0.000190  0.000208 -0.000268

   6.2   0     0.1036   -4.5779  0.000000  0.000002  0.000009  0.000041  0.000150  0.000601  0.001651  0.004712  0.007013  0.010341
                                -0.010241 -0.011253 -0.060778  0.043433  0.273228  0.632912 -2.689672  3.399031 -0.033677 -0.207130
                                -1.372425 -0.002219  0.002865  0.000576 -0.000744  0.002244 -0.002897

                                   1 2py     1 2py     1 2py     1 2py     1 2py     1 2py     1 2py     1 2py     1 2py     1 2py  
                                   1 2py     1 2py     1 2py     1 2py     1 2py     1 2py     1 2py     1 2py     1 2py     1 2py  
                                   1 2py     1 4f1-    1 4f3-    1 4f1-    1 4f3-    1 4f1-    1 4f3- 

   1.3   2   -73.6838 -253.3017  0.000024  0.000109  0.000476  0.002003  0.007933  0.028143  0.084515  0.199994  0.339365  0.347019
                                 0.158280  0.021306  0.002803 -0.000579 -0.000226 -0.000052  0.000033 -0.000015  0.000459  0.000111
                                 0.000005 -0.000000  0.000000  0.000000 -0.000000  0.000000 -0.000000

   2.3   2   -10.8386  -82.0151 -0.000010 -0.000046 -0.000200 -0.000842 -0.003362 -0.012058 -0.037224 -0.091660 -0.165252 -0.165877
                                 0.058282  0.383178  0.463245  0.203695  0.002566  0.000258 -0.000174  0.000080  0.025455 -0.000569
                                -0.000025 -0.000001  0.000004  0.000007 -0.000028  0.000001 -0.000005

   3.3   2    -1.1323  -27.9405 -0.000003 -0.000015 -0.000064 -0.000270 -0.001083 -0.003873 -0.012062 -0.029708 -0.054549 -0.053528
                                 0.028341  0.163131  0.214071  0.087134 -0.544787 -0.041757  0.010676 -0.004907 -0.327773 -0.280712
                                 0.001464 -0.000600  0.002323 -0.000455  0.001764  0.000206 -0.000796

   4.3   0    -0.0024   -5.8220 -0.000000 -0.000002 -0.000009 -0.000039 -0.000158 -0.000565 -0.001755 -0.004344 -0.007934 -0.007885
                                 0.004449  0.023861  0.033231  0.010697 -0.104460  0.074829  0.393895  0.221351 -0.052806 -0.073193
                                 0.500181 -0.000597  0.002313 -0.000062  0.000240 -0.000466  0.001806

   5.3   0     0.0259   -3.6768 -0.000000 -0.000002 -0.000007 -0.000028 -0.000119 -0.000405 -0.001330 -0.003081 -0.006162 -0.004994
                                 0.001356  0.021863  0.015419  0.025856 -0.024130  0.299990 -0.314806  1.694868 -0.068352 -0.147916
                                -1.740338 -0.000260  0.001006 -0.000059  0.000230 -0.000072  0.000279

                                   1 3d2-    1 3d2-    1 3d2-    1 3d2-    1 3d2-    1 3d2-    1 3d2-    1 3d2-    1 3d2-    1 3d2- 
                                   1 3d2-    1 3d2-    1 3d2-    1 3d2-    1 3d2-    1 3d2-    1 3d2-    1 3d2- 

   1.4   2    -5.6216  -72.0881  0.000161  0.001427  0.008274  0.032800  0.092217  0.190470  0.285700  0.317846  0.237463  0.098448
                                 0.017135  0.002219 -0.000267  0.000080 -0.000035 -0.003426 -0.004120  0.000008

[...]
                                -0.000024  0.000000  0.000000  0.000000  0.000000  0.000000  0.000000

   3.2  2.00000    -1.582049    -0.000003 -0.000015 -0.000065 -0.000272 -0.001090 -0.003901 -0.012146 -0.029924 -0.054921 -0.053943
                                 0.028660  0.164157  0.216157  0.086740 -0.553015 -0.029021  0.008760 -0.003596 -0.329997 -0.277068
                                 0.001053  0.000000  0.000000  0.000000  0.000000  0.000000  0.000000

                                   1 2py     1 2py     1 2py     1 2py     1 2py     1 2py     1 2py     1 2py     1 2py     1 2py  
                                   1 2py     1 2py     1 2py     1 2py     1 2py     1 2py     1 2py     1 2py     1 2py     1 2py  
                                   1 2py     1 4f1-    1 4f3-    1 4f1-    1 4f3-    1 4f1-    1 4f3- 

   1.3  2.00000   -74.148288     0.000024  0.000109  0.000476  0.002003  0.007933  0.028144  0.084516  0.199998  0.339368  0.347019
                                 0.158275  0.021302  0.002804 -0.000579 -0.000226 -0.000053  0.000033 -0.000015  0.000459  0.000111
                                 0.000005  0.000000  0.000000  0.000000  0.000000  0.000000  0.000000

   2.3  2.00000   -11.301010    -0.000010 -0.000046 -0.000200 -0.000843 -0.003362 -0.012060 -0.037229 -0.091674 -0.165274 -0.165896
                                 0.058314  0.383236  0.463363  0.203607  0.002551  0.000277 -0.000171  0.000080  0.025284 -0.000544
                                -0.000024  0.000000  0.000000  0.000000  0.000000  0.000000  0.000000

   3.3  2.00000    -1.582049    -0.000003 -0.000015 -0.000065 -0.000272 -0.001090 -0.003901 -0.012146 -0.029924 -0.054921 -0.053943
                                 0.028660  0.164157  0.216157  0.086740 -0.553015 -0.029021  0.008760 -0.003596 -0.329997 -0.277068
                                 0.001053  0.000000  0.000000  0.000000  0.000000  0.000000  0.000000

                                   1 3d2-    1 3d2-    1 3d2-    1 3d2-    1 3d2-    1 3d2-    1 3d2-    1 3d2-    1 3d2-    1 3d2- 
                                   1 3d2-    1 3d2-    1 3d2-    1 3d2-    1 3d2-    1 3d2-    1 3d2-    1 3d2- 

   1.4  2.00000    -6.084776     0.000161  0.001427  0.008275  0.032806  0.092233  0.190502  0.285733  0.317889  0.237482  0.098247
                                 0.017046  0.002204 -0.000246  0.000088 -0.000032 -0.003410 -0.004073  0.000008

                                   1 2pz     1 2pz     1 2pz     1 2pz     1 2pz     1 2pz     1 2pz     1 2pz     1 2pz     1 2pz  
                                   1 2pz     1 2pz     1 2pz     1 2pz     1 2pz     1 2pz     1 2pz     1 2pz     1 2pz     1 2pz  
                                   1 2pz     1 4f0     1 4f2+    1 4f0     1 4f2+    1 4f0     1 4f2+ 

   1.5  2.00000   -74.148288     0.000024  0.000109  0.000476  0.002003  0.007933  0.028144  0.084516  0.199998  0.339368  0.347019
                                 0.158275  0.021302  0.002804 -0.000579 -0.000226 -0.000053  0.000033 -0.000015  0.000459  0.000111
                                 0.000005  0.000000  0.000000  0.000000  0.000000  0.000000  0.000000

   2.5  2.00000   -11.301010    -0.000010 -0.000046 -0.000200 -0.000843 -0.003362 -0.012060 -0.037229 -0.091674 -0.165274 -0.165896
                                 0.058314  0.383236  0.463363  0.203607  0.002551  0.000277 -0.000171  0.000080  0.025284 -0.000544
                                -0.000024  0.000000  0.000000  0.000000  0.000000  0.000000  0.000000

   3.5  2.00000    -1.582049     0.000003  0.000015  0.000065  0.000272  0.001090  0.003901  0.012146  0.029924  0.054921  0.053943
                                -0.028660 -0.164157 -0.216157 -0.086740  0.553015  0.029021 -0.008760  0.003596  0.329997  0.277068
                                -0.001053  0.000000  0.000000  0.000000  0.000000  0.000000  0.000000

                                   1 3d1+    1 3d1+    1 3d1+    1 3d1+    1 3d1+    1 3d1+    1 3d1+    1 3d1+    1 3d1+    1 3d1+ 
                                   1 3d1+    1 3d1+    1 3d1+    1 3d1+    1 3d1+    1 3d1+    1 3d1+    1 3d1+ 

   1.6  2.00000    -6.084776     0.000161  0.001427  0.008275  0.032806  0.092233  0.190502  0.285733  0.317889  0.237482  0.098247
                                 0.017046  0.002204 -0.000246  0.000088 -0.000032 -0.003410 -0.004073  0.000008

                                   1 3d1-    1 3d1-    1 3d1-    1 3d1-    1 3d1-    1 3d1-    1 3d1-    1 3d1-    1 3d1-    1 3d1- 
                                   1 3d1-    1 3d1-    1 3d1-    1 3d1-    1 3d1-    1 3d1-    1 3d1-    1 3d1- 

   1.7  2.00000    -6.084776     0.000161  0.001427  0.008275  0.032806  0.092233  0.190502  0.285733  0.317889  0.237482  0.098247
                                 0.017046  0.002204 -0.000246  0.000088 -0.000032 -0.003410 -0.004073  0.000008

 Total charge:   2.000000000000
 
 *** IN SYMMETRY 1 ORBITAL  4 SYMMETRY CONTAMINATION OF 0.184D-03 HAS BEEN REMOVED
 *** IN SYMMETRY 1 ORBITAL  5 SYMMETRY CONTAMINATION OF 0.184D-03 HAS BEEN REMOVED

 EXTRA SYMMETRY OF MOS IN SYMMETRY 1:   1 1 1 2 3 1 1 3 2 1   3 2 1 3 2 1 2 3 2 3   1 3 2 1 3 2 1 2 3 2   3 1 2 3 1 2 3 1 2 3
                                        1 2 3 1 2 3 1 2 3 1   2 3 1 1 2 3 1 1 1 1   1 1 1 1 1 1 1
 EXTRA SYMMETRY OF MOS IN SYMMETRY 2:   1 1 1 1 1 1 3 2 1 2   3 1 2 3 1 1 1 1 1 1   1 1 1 1 1 1 1
 EXTRA SYMMETRY OF MOS IN SYMMETRY 3:   1 1 1 1 1 1 3 2 1 2   3 1 2 3 1 1 1 1 1 1   1 1 1 1 1 1 1
 EXTRA SYMMETRY OF MOS IN SYMMETRY 5:   1 1 1 1 1 1 3 2 1 3   2 1 3 2 1 1 1 1 1 1   1 1 1 1 1 1 1

 Natural orbital dump at molpro section  5202.2    (Orbital set 2)


 CI vector
 =========

              1.0000000

 TOTAL ENERGIES                     -3176.80472165



 **********************************************************************************************************************************
 DATASETS  * FILE   NREC   LENGTH (MB)   RECORD NAMES
              1      23       41.18       500      610      700      900      950      970     1000      129      960     1700   
                                          VAR    BASINP    GEOM    SYMINP    ZMAT    AOBASIS   BASIS     P2S    ABASIS    OPER   
                                         1101     1401     1411     1412     1650     1100     1400     1410     1200     1210   
                                          SR      EKINR    POTR     PVPR    MOLCAS      S      EKIN      POT      H0       H01  
                                         1080     1600     1380   
                                         AOSYM     SMH     JKOP   

              2      13       22.47       200      700     1000      520     4202     5202     2101     5202(1)  2103     5202(2)
                                        OPTIONS   GEOM     BASIS   MCVARS     RHF     MCSCF     RHF     MCSCF     RHF     MCSCF   
                                         2105     2107     2109   
                                          RHF      RHF      RHF  

 PROGRAMS   *        TOTAL     MULTI       POP       RHF  RCCSD(T)       RHF     MULTI       POP       RHF  RCCSD(T)       RHF
 CPU TIMES  *       327.80      1.02      0.00      0.73     39.88      0.05      2.24      0.01      0.95     44.45      0.08
 REAL TIME  *       469.18 SEC
 DISK USED  *         9.03 GB      
 SF USED    *       693.38 MB      
 GA USED    *         0.00 MB       (max)       0.00 MB       (current)
 **********************************************************************************************************************************


 PROGRAM * RHF-SCF (CLOSED SHELL)       Authors: W. Meyer, H.-J. Werner


 NUMBER OF ELECTRONS:      18+   18-    SPACE SYMMETRY=1    SPIN SYMMETRY: Singlet 
 CONVERGENCE THRESHOLDS:    1.00E-05 (Density)    1.00E-07 (Energy)
 MAX. NUMBER OF ITERATIONS:        0
 INTERPOLATION TYPE:            DIIS
 INTERPOLATION STEPS:              2 (START)      1 (STEP)
 LEVEL SHIFTS:                  0.00 (CLOSED)  0.00 (OPEN) 

 Number of closed-shell orbitals:   18 (   6   3   3   1   3   1   1   0 )


 Molecular orbitals read from record     5202.2  Type=MCSCF/NATURAL (state 1.1)

 Molecular orbital dump at record        2111.2

 ITERATION    DDIFF          GRAD             ENERGY        2-EL.EN.            DIPOLE MOMENTS         DIIS   ORB.
    1      0.000D+00      0.000D+00     -3176.80472165   2402.597519    0.00000    0.00000    0.00000    0    start

 Final occupancy:   6   3   3   1   3   1   1   0

 !RHF STATE 1.1 Energy              -3176.804721645726
 Nuclear energy                         0.00000000
 One-electron energy                -4378.10348108
 Two-electron energy                 1201.29875943
 Virial quotient                       -0.91946370
 !RHF STATE 1.1 Dipole moment           0.00000000     0.00000000     0.00000000
 Dipole moment /Debye                   0.00000000     0.00000000     0.00000000

 Orbital energies:

         1.1          2.1          3.1          4.1          5.1          6.1          7.1          8.1
   -595.743646   -83.606865   -14.450629    -6.084776    -6.084776    -2.433918    -0.382841    -0.306675

         1.2          2.2          3.2          4.2          5.2
    -74.148288   -11.301010    -1.582049    -0.282705    -0.146328

         1.3          2.3          3.3          4.3          5.3
    -74.148288   -11.301010    -1.582049    -0.282705    -0.146328

         1.4          2.4          3.4
     -6.084776    -0.306675    -0.155764

         1.5          2.5          3.5          4.5          5.5
    -74.148288   -11.301010    -1.582049    -0.282705    -0.146328

         1.6          2.6          3.6
     -6.084776    -0.306675    -0.155764

         1.7          2.7          3.7
     -6.084776    -0.306675    -0.155764

         1.8          2.8
     -0.067933     0.317422

 HOMO      3.2    -1.582049 =     -43.0497eV
 LUMO      7.1    -0.382841 =     -10.4176eV
 LUMO-HOMO         1.199208 =      32.6321eV


 **********************************************************************************************************************************
 DATASETS  * FILE   NREC   LENGTH (MB)   RECORD NAMES
              1      23       41.18       500      610      700      900      950      970     1000      129      960     1700   
                                          VAR    BASINP    GEOM    SYMINP    ZMAT    AOBASIS   BASIS     P2S    ABASIS    OPER   
                                         1101     1401     1411     1412     1650     1100     1400     1410     1200     1210   
                                          SR      EKINR    POTR     PVPR    MOLCAS      S      EKIN      POT      H0       H01  
                                         1080     1600     1380   
                                         AOSYM     SMH     JKOP   

              2      14       25.21       200      700     1000      520     4202     5202     2101     5202(1)  2103     5202(2)
                                        OPTIONS   GEOM     BASIS   MCVARS     RHF     MCSCF     RHF     MCSCF     RHF     MCSCF   
                                         2105     2107     2109     2111   
                                          RHF      RHF      RHF      RHF  

 PROGRAMS   *        TOTAL       RHF     MULTI       POP       RHF  RCCSD(T)       RHF     MULTI       POP       RHF  RCCSD(T)
 CPU TIMES  *       327.91      0.10      1.02      0.00      0.73     39.88      0.05      2.24      0.01      0.95     44.45
 REAL TIME  *       469.55 SEC
 DISK USED  *         9.03 GB      
 SF USED    *       693.38 MB      
 GA USED    *         0.00 MB       (max)       0.00 MB       (current)
 **********************************************************************************************************************************
 SETTING SCF(6)         =     -3176.80472165  AU                              
 SETTING _CC_NORM_MAX   =         2.00000000                                  


 PROGRAM * CCSD (Restricted open-shell coupled cluster)     Authors: C. Hampel, H.-J. Werner, 1991, M. Deegan, P.J. Knowles, 1992


 Convergence thresholds:  THRVAR = 1.00D-08  THRDEN = 1.00D-06

 CCSD(T)     terms to be evaluated (factor= 1.000)


 Number of closed-shell orbitals:  18 (   6   3   3   1   3   1   1   0 )
 Number of external orbitals:     187 (  61  24  24  17  24  17  17   3 )

 Memory could be reduced to 33.82 Mwords without degradation in triples

 Number of N-1 electron functions:              36
 Number of N-2 electron functions:             630
 Number of singly external CSFs:              1266
 Number of doubly external CSFs:           2216244
 Total number of CSFs:                     2217510

 Molecular orbitals read from record     2111.2  Type=RHF/CANONICAL (state 1.1)

 Integral transformation finished. Total CPU:   0.78 sec, npass=  1  Memory used:   5.37 MW

 Starting RMP2 calculation

 Wavefunction is spin-projected

 ITER.      SQ.NORM     CORR.ENERGY   TOTAL ENERGY   ENERGY CHANGE        DEN1      VAR(S)    VAR(P)  DIIS     TIME
   1      1.06070476    -0.98897385 -3177.79369549    -0.98897385    -0.00045543  0.56D-21  0.12D-03  1  1     1.16
   2      1.06098083    -0.98944814 -3177.79416978    -0.00047429    -0.00000026  0.19D-24  0.81D-07  2  2     1.50
   3      1.06098697    -0.98945585 -3177.79417749    -0.00000771    -0.00000000  0.15D-27  0.29D-10  3  3     1.84
   4      1.06098700    -0.98945584 -3177.79417749     0.00000000    -0.00000000  0.11D-30  0.87D-14  4  4     2.82

 Norm of t1 vector:      0.00000000      S-energy:    -0.00000000      T1 diagnostic:  0.00000000
 Norm of t2 vector:      0.24695545      P-energy:    -0.98945584
                                         Alpha-Beta:  -0.67689747
                                         Alpha-Alpha: -0.15627919
                                         Beta-Beta:   -0.15627919

 Spin contamination <S**2-Sz**2-Sz>     0.00000000
  Reference energy                  -3176.804721645727
  RHF-RMP2 correlation energy          -0.989455844879
 !RHF-RMP2 energy                   -3177.794177490606
 (NB above energy spin projected)

 Starting RCCSD calculation

 ITER.      SQ.NORM     CORR.ENERGY   TOTAL ENERGY   ENERGY CHANGE        DEN1      VAR(S)    VAR(P)  DIIS     TIME
   1      1.06121972    -0.94895193 -3177.75367358    -0.94895193    -0.01254533  0.16D-03  0.92D-03  0  0     4.41
   2      1.06360765    -0.96048912 -3177.76521077    -0.01153719    -0.00039889  0.28D-05  0.47D-04  1  1     7.86
   3      1.06385412    -0.95984990 -3177.76457154     0.00063922    -0.00002047  0.94D-07  0.50D-05  2  2    10.98
   4      1.06403445    -0.96013495 -3177.76485659    -0.00028505    -0.00000058  0.49D-08  0.15D-06  3  3    13.86
   5      1.06405515    -0.96015184 -3177.76487348    -0.00001689    -0.00000003  0.16D-09  0.82D-08  4  4    16.71
   6      1.06405805    -0.96015192 -3177.76487357    -0.00000008    -0.00000000  0.27D-11  0.54D-10  5  5    18.45

 Norm of t1 vector:      0.01199063      S-energy:     0.00000000      T1 diagnostic:  0.00141311
                                                                       D1 diagnostic:  0.00331708
 Norm of t2 vector:      0.25281273      P-energy:    -0.96015192
                                         Alpha-Beta:  -0.67138388
                                         Alpha-Alpha: -0.14438402
                                         Beta-Beta:   -0.14438402

 Spin contamination <S**2-Sz**2-Sz>     0.00000000

 Memory could be reduced to 33.29 Mwords without degradation in triples
 

  Correlated core orbitals:             1.1       2.1       3.1       4.1       5.1       6.1       1.2       2.2       3.2       1.3
                                        2.3       3.3       1.4       1.5       2.5       3.5       1.6       1.7
  Orbital energies:                  -595.7436  -83.6069  -14.4506   -6.0848   -6.0848   -2.4339  -74.1483  -11.3010   -1.5820  -74.1483
                                      -11.3010   -1.5820   -6.0848  -74.1483  -11.3010   -1.5820   -6.0848   -6.0848
 
  RCCSD core-core energy               -0.960151919548
 

 RESULTS
 =======

  Reference energy                  -3176.804721645727
  RCCSD singles energy                  0.000000000000
  RCCSD pair energy                    -0.960151919548
  RCCSD correlation energy             -0.960151919548
  Triples (T) contribution             -0.008771426504
  Total correlation energy             -0.968923346052
 
  RHF-RCCSD energy                  -3177.764873565275
  RHF-RCCSD[T] energy               -3177.773804423225
  RHF-RCCSD-T energy                -3177.773563951872
 !RHF-RCCSD(T) energy               -3177.773644991778

 Program statistics:

 Available memory in ccsd:               511997128
 Min. memory needed in ccsd:               6228518
 Max. memory used in ccsd:                 9040652
 Max. memory used in cckext:               7507219 ( 6 integral passes)
 Max. memory used in cckint:               5373359 ( 1 integral passes)



 **********************************************************************************************************************************
 DATASETS  * FILE   NREC   LENGTH (MB)   RECORD NAMES
              1      23       41.18       500      610      700      900      950      970     1000      129      960     1700   
                                          VAR    BASINP    GEOM    SYMINP    ZMAT    AOBASIS   BASIS     P2S    ABASIS    OPER   
                                         1101     1401     1411     1412     1650     1100     1400     1410     1200     1210   
                                          SR      EKINR    POTR     PVPR    MOLCAS      S      EKIN      POT      H0       H01  
                                         1080     1600     1380   
                                         AOSYM     SMH     JKOP   

              2      14       25.21       200      700     1000      520     4202     5202     2101     5202(1)  2103     5202(2)
                                        OPTIONS   GEOM     BASIS   MCVARS     RHF     MCSCF     RHF     MCSCF     RHF     MCSCF   
                                         2105     2107     2109     2111   
                                          RHF      RHF      RHF      RHF  

 PROGRAMS   *        TOTAL  RCCSD(T)       RHF     MULTI       POP       RHF  RCCSD(T)       RHF     MULTI       POP       RHF
 CPU TIMES  *       364.19     36.20      0.10      1.02      0.00      0.73     39.88      0.05      2.24      0.01      0.95
 REAL TIME  *       522.16 SEC
 DISK USED  *         9.03 GB      
 SF USED    *       693.38 MB      
 GA USED    *         0.00 MB       (max)       0.00 MB       (current)
 **********************************************************************************************************************************
 SETTING CCSD(6)        =     -3177.77364499  AU                              
 Output type csv         
                                                                                                                                                                                                                                                                

         SCF,CCSD
   -3177.362917,   -3178.385414
   -3177.324537,   -3178.318776
   -3177.292878,   -3178.297948
   -3177.188383,   -3178.177266
   -3177.116144,   -3178.104530
   -3176.804722,   -3177.773645
                                                  

 RCCSD(T)/USERDEF energy=  -3177.773644991778

        RCCSD(T)        RHF-SCF         MULTI           RHF-SCF         RCCSD(T)        RHF-SCF         MULTI           RHF-SCF 
  -3177.77364499  -3176.80472165  -3176.80472165  -3176.80472165  -3178.10452989  -3177.11614353  -3177.11614353  -3177.11693909
 **********************************************************************************************************************************
 Molpro calculation terminated
 Variable memory released
