
 Primary working directories    : /global/cscratch1/sd/bkincaid
 Secondary working directories  : /global/cscratch1/sd/bkincaid
 Wavefunction directory         : /global/homes/b/bkincaid/wfu/
 Main file repository           : /global/cscratch1/sd/bkincaid/

 SHA1      : 19cd028119e0e09f93f0674bd8af7968d9b3eff6
 NAME      : 2015.1.36
 ARCHNAME  : linux/x86_64
 FC        : /opt/cray/pe/craype/2.5.14/bin/ftn
 BLASLIB   : -L/opt/intel/compilers_and_libraries_2018.1.163/linux/mkl/lib/intel64 -Wl,-_start-group -lmkl_intel_ilp64 -lmkl_intel_thread -lmkl_core -Wl,-_end-group -liomp5
 id        : lbl

 Nodes     nprocs
 nid00781    11
 Number of processes for MPI-2 version of Molpro:   nprocs(total)=   12   nprocs(compute)=   11   nprocs(helper)=    1

 Using customized tuning parameters: mindgm=7; mindgv=16; mindgc=1; mindgr=1; noblas=0; minvec=7
 default implementation of scratch files=sf  

 ***,Calculation for PtH groundstate
 memory,1024,m
 gthresh,twoint=1.0E-15
 gthresh,throvl=1.0E-15
                                                                                 !symmetry,nosym
 
 set,dkroll=1,dkho=10,dkhp=4
 
 ne = 79
 z = 1.8
 
 geometry={
 2
 PtH
 Pt 0.0 0.0 0.0
 H 0.0 0.0 z
 }
 
 A1=18
 B1=9
 B2=9
 A2=4
 
 basis={
 
 Including file /global/u1/b/bkincaid/molpro/Pt/molecules/PtH/tz/UC/1.8/Pt-aug-cc-pwCVTZ.basis
 
 Including file /global/u1/b/bkincaid/molpro/Pt/molecules/PtH/tz/UC/1.8/H-aug-cc-pVTZ.basis
 }
 
 {rhf
 wf,nelec=ne,spin=1,sym=4
 occ,A1,B1,B2,A2
 closed,A1,B1,B2,A2-1
 orbital,2101.2
 }
 {rhf,nitord=1,maxit=0
 start,2101.2
 wf,nelec=ne,spin=1,sym=4
 occ,A1,B1,B2,A2
 closed,A1,B1,B2,A2-1
 rotate,12.1,14.1,0
 orbital,3101.2
 }
 
 
 scf=energy
 _CC_NORM_MAX=2.0
 {rccsd(t);maxit,100;core,13,7,7,3}
 ccsd=energy
 
 table,z,scf,ccsd
 save, 3.csv, new
 

 Variables initialized (889), CPU time= 0.01 sec
 Commands  initialized (702), CPU time= 0.01 sec, 572 directives.
 Default parameters read. Elapsed time= 0.13 sec

 Checking input...
 Passed
1


                                         ***  PROGRAM SYSTEM MOLPRO  ***
                                       Copyright, TTI GmbH Stuttgart, 2015
                                    Version 2015.1 linked Dec 29 2018 15:55:43


 **********************************************************************************************************************************
 LABEL *   Calculation for PtH groundstate                                               
  64 bit mpp version                                                                     DATE: 10-Sep-21          TIME: 15:46:27  
 **********************************************************************************************************************************

 SHA1:             19cd028119e0e09f93f0674bd8af7968d9b3eff6
 **********************************************************************************************************************************

 THRESHOLDS:

 ZERO    =  1.00D-12  ONEINT  =  1.00D-12  TWOINT  =  1.00D-15  PREFAC  =  1.00D-14  LOCALI  =  1.00D-09  EORDER  =  1.00D-04
 ENERGY  =  0.00D+00  ETEST   =  0.00D+00  EDENS   =  0.00D+00  THRDEDEF=  1.00D-06  GRADIENT=  1.00D-02  STEP    =  1.00D-03
 ORBITAL =  1.00D-05  CIVEC   =  1.00D-05  COEFF   =  1.00D-04  PRINTCI =  5.00D-02  PUNCHCI =  9.90D+01  OPTGRAD =  3.00D-04
 OPTENERG=  1.00D-06  OPTSTEP =  3.00D-04  THRGRAD =  1.00D-10  COMPRESS=  1.00D-11  VARMIN  =  1.00D-07  VARMAX  =  1.00D-03
 THRDOUB =  0.00D+00  THRDIV  =  1.00D-05  THRRED  =  1.00D-07  THRPSP  =  1.00D+00  THRDC   =  1.00D-10  THRCS   =  1.00D-10
 THRNRM  =  1.00D-08  THREQ   =  0.00D+00  THRDE   =  1.00D+00  THRREF  =  1.00D-05  SPARFAC =  1.00D+00  THRDLP  =  1.00D-07
 THRDIA  =  1.00D-10  THRDLS  =  1.00D-07  THRGPS  =  0.00D+00  THRKEX  =  0.00D+00  THRDIS  =  2.00D-01  THRVAR  =  1.00D-10
 THRLOC  =  1.00D-06  THRGAP  =  1.00D-06  THRLOCT = -1.00D+00  THRGAPT = -1.00D+00  THRORB  =  1.00D-06  THRMLTP =  0.00D+00
 THRCPQCI=  1.00D-10  KEXTA   =  0.00D+00  THRCOARS=  0.00D+00  SYMTOL  =  1.00D-06  GRADTOL =  1.00D-06  THROVL  =  1.00D-08
 THRORTH =  1.00D-08  GRID    =  1.00D-06  GRIDMAX =  1.00D-03  DTMAX   =  0.00D+00  THROCCDE=  1.00D-01  THROCCDE=  1.00D-01



 THRESHOLDS:

 ZERO    =  1.00D-12  ONEINT  =  1.00D-12  TWOINT  =  1.00D-15  PREFAC  =  1.00D-14  LOCALI  =  1.00D-09  EORDER  =  1.00D-04
 ENERGY  =  0.00D+00  ETEST   =  0.00D+00  EDENS   =  0.00D+00  THRDEDEF=  1.00D-06  GRADIENT=  1.00D-02  STEP    =  1.00D-03
 ORBITAL =  1.00D-05  CIVEC   =  1.00D-05  COEFF   =  1.00D-04  PRINTCI =  5.00D-02  PUNCHCI =  9.90D+01  OPTGRAD =  3.00D-04
 OPTENERG=  1.00D-06  OPTSTEP =  3.00D-04  THRGRAD =  1.00D-10  COMPRESS=  1.00D-11  VARMIN  =  1.00D-07  VARMAX  =  1.00D-03
 THRDOUB =  0.00D+00  THRDIV  =  1.00D-05  THRRED  =  1.00D-07  THRPSP  =  1.00D+00  THRDC   =  1.00D-10  THRCS   =  1.00D-10
 THRNRM  =  1.00D-08  THREQ   =  0.00D+00  THRDE   =  1.00D+00  THRREF  =  1.00D-05  SPARFAC =  1.00D+00  THRDLP  =  1.00D-07
 THRDIA  =  1.00D-10  THRDLS  =  1.00D-07  THRGPS  =  0.00D+00  THRKEX  =  0.00D+00  THRDIS  =  2.00D-01  THRVAR  =  1.00D-10
 THRLOC  =  1.00D-06  THRGAP  =  1.00D-06  THRLOCT = -1.00D+00  THRGAPT = -1.00D+00  THRORB  =  1.00D-06  THRMLTP =  0.00D+00
 THRCPQCI=  1.00D-10  KEXTA   =  0.00D+00  THRCOARS=  0.00D+00  SYMTOL  =  1.00D-06  GRADTOL =  1.00D-06  THROVL  =  1.00D-15
 THRORTH =  1.00D-08  GRID    =  1.00D-06  GRIDMAX =  1.00D-03  DTMAX   =  0.00D+00  THROCCDE=  1.00D-01  THROCCDE=  1.00D-01


 SETTING DKROLL         =         1.00000000                                  
 SETTING DKHO           =        10.00000000                                  
 SETTING DKHP           =         4.00000000                                  
 SETTING NE             =        79.00000000                                  
 SETTING Z              =         1.80000000                                  

Geometry recognized as XYZ

 SETTING A1             =        18.00000000                                  
 SETTING B1             =         9.00000000                                  
 SETTING B2             =         9.00000000                                  
 SETTING A2             =         4.00000000                                  

 Variable memory set to 1024000000 words,  buffer space   230000 words

 SETTING BASIS          =    USERDEF


 Recomputing integrals since basis changed


 Using spherical harmonics



 PROGRAM * SEWARD (Integral evaluation for generally contracted gaussian basis sets)     Author: Roland Lindh, 1990

 Geometry written to block  1 of record 700


 Point group  C2v 



 ATOMIC COORDINATES

 NR  ATOM    CHARGE       X              Y              Z

   1  PT     78.00    0.000000000    0.000000000    0.000000000
   2  H       1.00    0.000000000    0.000000000    3.401507024

 Bond lengths in Bohr (Angstrom)

 1-2  3.401507024
     ( 1.800000000)

 NUCLEAR CHARGE:                   79
 NUMBER OF PRIMITIVE AOS:         461
 NUMBER OF SYMMETRY AOS:          372
 NUMBER OF CONTRACTIONS:          372   ( 151A1  +  89B1  +  89B2  +  43A2  )
 NUMBER OF CORE ORBITALS:          34   (  15A1  +   8B1  +   8B2  +   3A2  )
 NUMBER OF VALENCE ORBITALS:        7   (   4A1  +   1B1  +   1B2  +   1A2  )


 NUCLEAR REPULSION ENERGY   22.93101247

 One-electron integrals computed with SEWARD

 10nd-order Douglas-Kroll-Hess method activated. McWeeny DKH parametrization is used.

 Computing Douglas-Kroll / X2C integrals

 AO integral compression algorithm  1   Integral accuracy      1.0D-15

     2524.709 MB (compressed) written to integral file ( 45.6%)

     Node minimum: 74.187 MB, node maximum: 664.273 MB


 NUMBER OF SORTED TWO-ELECTRON INTEGRALS:   55986265.     BUFFER LENGTH:  32768
 NUMBER OF SEGMENTS:   2  SEGMENT LENGTH:   31969825      RECORD LENGTH: 524288

 Memory used in sort:      32.53 MW

 SORT1 READ   691865561. AND WROTE    22759230. INTEGRALS IN     66 RECORDS. CPU TIME:    10.05 SEC, REAL TIME:    12.28 SEC
 SORT2 READ   247499749. AND WROTE   615829769. INTEGRALS IN   5335 RECORDS. CPU TIME:     0.85 SEC, REAL TIME:     1.60 SEC

 Node minimum:    55944091.  Node maximum:    56068050. integrals

 OPERATOR DM      FOR CENTER  0  COORDINATES:    0.000000    0.000000    0.000000

 EXTRA SYMMETRY OF AOS IN SYMMETRY 1:   1 1 1 1 1 1 1 1 1 1   1 1 1 1 1 1 1 1 1 1   1 1 1 1 1 1 1 1 1 1   1 1 1 1 1 1 1 1 1 1
                                        1 1 1 1 1 1 1 1 1 1   1 1 1 1 1 1 1 1 1 1   1 1 1 1 1 1 1 1 1 1   1 1 1 1 1 1 1 1 1 1
                                        1 1 1 1 1 1 1 1 1 1   1 1 1 1 1 1 1 1 1 1   1 1 1 1 1 1 1 1 1 1   1 1 1 1 1 1 1 1 1 1
                                        1 1 1 1 1 1 1 1 1 1   2 1 1 2 1 1 2 1 1 1   1 1 1 1 1 1 1 1 1 1   1
 EXTRA SYMMETRY OF AOS IN SYMMETRY 2:   1 1 1 1 1 1 1 1 1 1   1 1 1 1 1 1 1 1 1 1   1 1 1 1 1 1 1 1 1 1   1 1 1 1 1 1 1 1 1 1
                                        1 1 1 1 1 2 1 2 1 2   1 2 1 2 1 2 1 2 1 2   1 2 1 2 1 2 1 2 1 2   1 2 1 2 1 2 1 2 1 2
                                        1 2 1 2 1 1 1 1 1
 EXTRA SYMMETRY OF AOS IN SYMMETRY 3:   1 1 1 1 1 1 1 1 1 1   1 1 1 1 1 1 1 1 1 1   1 1 1 1 1 1 1 1 1 1   1 1 1 1 1 1 1 1 1 1
                                        1 1 1 1 1 2 1 2 1 2   1 2 1 2 1 2 1 2 1 2   1 2 1 2 1 2 1 2 1 2   1 2 1 2 1 2 1 2 1 2
                                        1 2 1 2 1 1 1 1 1
 EXTRA SYMMETRY OF AOS IN SYMMETRY 4:   1 1 1 1 1 1 1 1 1 1   1 1 1 1 1 1 1 1 1 1   1 1 1 1 1 1 1 1 1 1   1 1 1 1 1 1 2 1 2 1
                                        2 1 1

 Eigenvalues of metric

         1 0.631E-05 0.138E-04 0.387E-04 0.601E-04 0.114E-03 0.183E-03 0.266E-03 0.323E-03
         2 0.139E-04 0.272E-03 0.798E-03 0.962E-03 0.187E-02 0.191E-02 0.215E-02 0.241E-02
         3 0.139E-04 0.272E-03 0.798E-03 0.962E-03 0.187E-02 0.191E-02 0.215E-02 0.241E-02
         4 0.824E-03 0.191E-02 0.217E-02 0.243E-02 0.658E-02 0.713E-02 0.118E-01 0.171E-01


 **********************************************************************************************************************************
 DATASETS  * FILE   NREC   LENGTH (MB)   RECORD NAMES
              1      22       22.68       500      610      700      900      950      970     1000      129      960     1700   
                                          VAR    BASINP    GEOM    SYMINP    ZMAT    AOBASIS   BASIS     P2S    ABASIS    OPER   
                                         1101     1401     1411     1412     1650     1100     1400     1410     1200     1210   
                                          SR      EKINR    POTR     PVPR    MOLCAS      S      EKIN      POT      H0       H01  
                                         1080     1600   
                                         AOSYM     SMH  

 PROGRAMS   *        TOTAL       INT
 CPU TIMES  *       113.17    112.83
 REAL TIME  *       117.48 SEC
 DISK USED  *         5.61 GB      
 GA USED    *         0.00 MB       (max)       0.00 MB       (current)
 **********************************************************************************************************************************


 PROGRAM * RHF-SCF (OPEN SHELL)       Authors: W. Meyer, H.-J. Werner


 NUMBER OF ELECTRONS:      40+   39-    SPACE SYMMETRY=4    SPIN SYMMETRY: Doublet 
 CONVERGENCE THRESHOLDS:    1.00E-05 (Density)    1.58E-07 (Energy)
 MAX. NUMBER OF ITERATIONS:       60
 INTERPOLATION TYPE:            DIIS
 INTERPOLATION STEPS:              2 (START)      1 (STEP)
 LEVEL SHIFTS:                 -0.60 (CLOSED) -0.30 (OPEN) 

 Number of closed-shell orbitals:   39 (  18   9   9   3 )
 Number of open-shell orbitals:      1 (   0   0   0   1 )


 Orbital guess generated from atomic densities. Full valence occupancy:   19   9   9   4

 Molecular orbital dump at record        2101.2

 ITERATION    DDIFF          GRAD             ENERGY        2-EL.EN.            DIPOLE MOMENTS         DIIS   ORB.
    1      0.000D+00      0.000D+00    -18390.56379673  12805.609415    0.00000    0.00000   -3.29510    0    start
    2      0.000D+00      0.404D-01    -18406.07340365  14290.260134    0.00000    0.00000    2.53409    1    diag,B
    3      0.607D+01      0.814D-01    -18410.52946993  14052.889943    0.00000    0.00000    2.04689    2    diag,B
    4      0.656D-01      0.383D-01    -18412.67151448  13908.262599    0.00000    0.00000    1.13639    3    diag,B
    5      0.700D-01      0.195D-01    -18413.49939296  13807.843156    0.00000    0.00000    0.10153    4    diag,B
    6      0.288D-01      0.767D-02    -18413.70354465  13747.297138    0.00000    0.00000   -0.67725    5    diag,B
    7      0.105D-01      0.158D-02    -18413.72519397  13730.952599    0.00000    0.00000   -0.97074    6    fixocc
    8      0.773D-02      0.636D-03    -18413.72856463  13730.096965    0.00000    0.00000   -1.05354    7    diag,B
    9      0.258D-02      0.340D-03    -18413.72979523  13730.398610    0.00000    0.00000   -1.10171    8    diag,B
   10      0.198D-02      0.126D-03    -18413.73007743  13730.659241    0.00000    0.00000   -1.12181    9    orth
   11      0.102D-02      0.715D-04    -18413.73015745  13730.593246    0.00000    0.00000   -1.12719    9    diag,B
   12      0.245D-03      0.500D-04    -18413.73019246  13730.235322    0.00000    0.00000   -1.12792    9    diag,B
   13      0.274D-03      0.224D-04    -18413.73020676  13730.219518    0.00000    0.00000   -1.12285    9    diag,B
   14      0.108D-03      0.153D-04    -18413.73021610  13730.166445    0.00000    0.00000   -1.11649    9    diag,B
   15      0.500D-04      0.922D-05    -18413.73021965  13730.152217    0.00000    0.00000   -1.11174    9    diag,B
   16      0.304D-04      0.520D-05    -18413.73022087  13730.136855    0.00000    0.00000   -1.10888    9    diag,B
   17      0.314D-04      0.229D-05    -18413.73022105  13730.131408    0.00000    0.00000   -1.10791    9    diag,B
   18      0.111D-04      0.993D-06    -18413.73022108  13730.130871    0.00000    0.00000   -1.10777    9    diag,B
   19      0.647D-05      0.472D-06    -18413.73022108  13730.130435    0.00000    0.00000   -1.10778    0    orth

 Final alpha occupancy:  18   9   9   4
 Final beta  occupancy:  18   9   9   3

 !RHF STATE 1.4 Energy               -18413.7302210789    
 Nuclear energy                        22.93101247
 One-electron energy               -25301.72645108
 Two-electron energy                 6865.06521753
 Virial quotient                       -0.67628550
 !RHF STATE 1.4 Dipole moment           0.00000000     0.00000000    -1.10778020
 Dipole moment /Debye                   0.00000000     0.00000000    -2.81551199

 Orbital energies:

         1.1          2.1          3.1          4.1          5.1          6.1          7.1          8.1          9.1         10.1
  -2897.626014  -514.509747  -447.400498  -123.349173  -103.399261   -80.905963   -80.896048   -27.849826   -21.161618   -12.754800

        11.1         12.1         13.1         14.1         15.1         16.1         17.1         18.1         19.1         20.1
    -12.736942    -4.442917    -3.383766    -3.378784    -2.596188    -0.466393    -0.449205    -0.339459    -0.003513     0.018425

         1.2          2.2          3.2          4.2          5.2          6.2          7.2          8.2          9.2         10.2
   -447.403300  -103.408583   -80.899473   -21.176343   -12.743140    -3.395771    -3.380065    -2.593112    -0.436434     0.031135

        11.2
      0.108901

         1.3          2.3          3.3          4.3          5.3          6.3          7.3          8.3          9.3         10.3
   -447.403300  -103.408583   -80.899473   -21.176343   -12.743140    -3.395771    -3.380065    -2.593112    -0.436434     0.031135

        11.3
      0.108901

         1.4          2.4          3.4          4.4          5.4          6.4
    -80.901805   -12.747318    -3.386376    -0.486702     0.110429     0.158189

 HOMO     18.1    -0.339459 =      -9.2372eV
 LUMO     19.1    -0.003513 =      -0.0956eV
 LUMO-HOMO         0.335946 =       9.1416eV


 **********************************************************************************************************************************
 DATASETS  * FILE   NREC   LENGTH (MB)   RECORD NAMES
              1      22       22.68       500      610      700      900      950      970     1000      129      960     1700   
                                          VAR    BASINP    GEOM    SYMINP    ZMAT    AOBASIS   BASIS     P2S    ABASIS    OPER   
                                         1101     1401     1411     1412     1650     1100     1400     1410     1200     1210   
                                          SR      EKINR    POTR     PVPR    MOLCAS      S      EKIN      POT      H0       H01  
                                         1080     1600   
                                         AOSYM     SMH  

              2       4        3.96       700     1000      520     2101   
                                         GEOM     BASIS   MCVARS     RHF  

 PROGRAMS   *        TOTAL       RHF       INT
 CPU TIMES  *       118.91      5.74    112.83
 REAL TIME  *       123.81 SEC
 DISK USED  *         5.97 GB      
 SF USED    *         0.16 MB      
 GA USED    *         0.00 MB       (max)       0.00 MB       (current)
 **********************************************************************************************************************************


 PROGRAM * RHF-SCF (OPEN SHELL)       Authors: W. Meyer, H.-J. Werner


 NUMBER OF ELECTRONS:      40+   39-    SPACE SYMMETRY=4    SPIN SYMMETRY: Doublet 
 CONVERGENCE THRESHOLDS:    1.00E-05 (Density)    1.58E-07 (Energy)
 MAX. NUMBER OF ITERATIONS:        0
 INTERPOLATION TYPE:            DIIS
 INTERPOLATION STEPS:              2 (START)      1 (STEP)
 LEVEL SHIFTS:                 -0.60 (CLOSED) -0.30 (OPEN) 

 Number of closed-shell orbitals:   39 (  18   9   9   3 )
 Number of open-shell orbitals:      1 (   0   0   0   1 )


 Molecular orbitals read from record     2101.2  Type=RHF/CANONICAL (state 1.4)

 Molecular orbital dump at record        3101.2
 ROTATION OF ORBITALS  12.1   14.1       90.00 DEGREES

 ITERATION    DDIFF          GRAD             ENERGY        2-EL.EN.            DIPOLE MOMENTS         DIIS   ORB.
    1      0.000D+00      0.000D+00    -18413.73022108  13730.130435    0.00000    0.00000   -1.10778    0    start

 Final alpha occupancy:  18   9   9   4
 Final beta  occupancy:  18   9   9   3

 !RHF STATE 1.4 Energy               -18413.7302210790    
 Nuclear energy                        22.93101247
 One-electron energy               -25301.72645108
 Two-electron energy                 6865.06521753
 Virial quotient                       -0.67628550
 !RHF STATE 1.4 Dipole moment           0.00000000     0.00000000    -1.10778020
 Dipole moment /Debye                   0.00000000     0.00000000    -2.81551199

 Orbital energies:

         1.1          2.1          3.1          4.1          5.1          6.1          7.1          8.1          9.1         10.1
  -2897.626014  -514.509747  -447.400498  -123.349173  -103.399261   -80.905963   -80.896048   -27.849826   -21.161618   -12.754800

        11.1         12.1         13.1         14.1         15.1         16.1         17.1         18.1         19.1         20.1
    -12.736942    -4.442917    -3.383766    -3.378784    -2.596188    -0.466393    -0.449205    -0.339459    -0.003513     0.018425

         1.2          2.2          3.2          4.2          5.2          6.2          7.2          8.2          9.2         10.2
   -447.403300  -103.408583   -80.899473   -21.176343   -12.743140    -3.395771    -3.380065    -2.593112    -0.436434     0.031135

        11.2
      0.108901

         1.3          2.3          3.3          4.3          5.3          6.3          7.3          8.3          9.3         10.3
   -447.403300  -103.408583   -80.899473   -21.176343   -12.743140    -3.395771    -3.380065    -2.593112    -0.436434     0.031135

        11.3
      0.108901

         1.4          2.4          3.4          4.4          5.4          6.4
    -80.901805   -12.747318    -3.386376    -0.486702     0.110429     0.158189

 HOMO     18.1    -0.339459 =      -9.2372eV
 LUMO     19.1    -0.003513 =      -0.0956eV
 LUMO-HOMO         0.335946 =       9.1416eV


 **********************************************************************************************************************************
 DATASETS  * FILE   NREC   LENGTH (MB)   RECORD NAMES
              1      22       22.68       500      610      700      900      950      970     1000      129      960     1700   
                                          VAR    BASINP    GEOM    SYMINP    ZMAT    AOBASIS   BASIS     P2S    ABASIS    OPER   
                                         1101     1401     1411     1412     1650     1100     1400     1410     1200     1210   
                                          SR      EKINR    POTR     PVPR    MOLCAS      S      EKIN      POT      H0       H01  
                                         1080     1600   
                                         AOSYM     SMH  

              2       5        8.09       700     1000      520     2101     3101   
                                         GEOM     BASIS   MCVARS     RHF      RHF  

 PROGRAMS   *        TOTAL       RHF       RHF       INT
 CPU TIMES  *       119.18      0.27      5.74    112.83
 REAL TIME  *       124.23 SEC
 DISK USED  *         5.97 GB      
 SF USED    *         0.16 MB      
 GA USED    *         0.00 MB       (max)       0.00 MB       (current)
 **********************************************************************************************************************************
 SETTING SCF            =    -18413.73022108  AU                              
 SETTING _CC_NORM_MAX   =         2.00000000                                  


 PROGRAM * CCSD (Restricted open-shell coupled cluster)     Authors: C. Hampel, H.-J. Werner, 1991, M. Deegan, P.J. Knowles, 1992


 Convergence thresholds:  THRVAR = 1.00D-08  THRDEN = 1.58D-06

 CCSD(T)     terms to be evaluated (factor= 1.000)


 Number of core orbitals:          30 (  13   7   7   3 )
 Number of closed-shell orbitals:   9 (   5   2   2   0 )
 Number of active  orbitals:        1 (   0   0   0   1 )
 Number of external orbitals:     332 ( 133  80  80  39 )

 Memory could be reduced to 170.78 Mwords without degradation in triples

 Number of N-1 electron functions:              19
 Number of N-2 electron functions:             171
 Number of singly external CSFs:              2010
 Number of doubly external CSFs:           3723969
 Total number of CSFs:                     3725979

 Molecular orbitals read from record     3101.2  Type=RHF/CANONICAL (state 1.4)

 Integral transformation finished. Total CPU:   5.47 sec, npass=  1  Memory used:  18.11 MW

 Starting RMP2 calculation

 Wavefunction is spin-projected

 ITER.      SQ.NORM     CORR.ENERGY   TOTAL ENERGY   ENERGY CHANGE        DEN1      VAR(S)    VAR(P)  DIIS     TIME
   1      1.15225265    -0.66074573-18414.39096681    -0.66074573    -0.00165386  0.24D-05  0.81D-03  1  1     6.22
   2      1.15422336    -0.66251341-18414.39273449    -0.00176768    -0.00000627  0.99D-08  0.49D-05  2  2     6.90
   3      1.15435603    -0.66257960-18414.39280068    -0.00006619    -0.00000003  0.41D-10  0.23D-07  3  3     7.36
   4      1.15436022    -0.66258050-18414.39280158    -0.00000090    -0.00000000  0.94D-12  0.11D-09  4  4     8.00

 Norm of t1 vector:      0.02430495      S-energy:    -0.00231531      T1 diagnostic:  0.00003520
 Norm of t2 vector:      0.39213453      P-energy:    -0.66026520
                                         Alpha-Beta:  -0.45633174
                                         Alpha-Alpha: -0.11357252
                                         Beta-Beta:   -0.09036093

 Spin contamination <S**2-Sz**2-Sz>     0.00000000
  Reference energy                   -18413.7302210790    
  RHF-RMP2 correlation energy          -0.662580503666
 !RHF-RMP2 energy                    -18414.3928015827    
 (NB above energy spin projected)

 Starting RCCSD calculation

 ITER.      SQ.NORM     CORR.ENERGY   TOTAL ENERGY   ENERGY CHANGE        DEN1      VAR(S)    VAR(P)  DIIS     TIME
   1      1.13614601    -0.61825283-18414.34847391    -0.61825283    -0.01603755  0.56D-02  0.31D-02  1  1    12.37
   2      1.15248979    -0.63198965-18414.36221073    -0.01373682    -0.00191846  0.81D-03  0.72D-03  2  2    16.67
   3      1.16641377    -0.63485440-18414.36507547    -0.00286474    -0.00050891  0.63D-03  0.74D-04  3  3    20.76
   4      1.17844087    -0.63675262-18414.36697370    -0.00189823    -0.00015904  0.19D-03  0.28D-04  4  4    25.07
   5      1.18911894    -0.63760527-18414.36782635    -0.00085265    -0.00004676  0.61D-04  0.69D-05  5  5    29.14
   6      1.19646015    -0.63794471-18414.36816579    -0.00033944    -0.00001305  0.15D-04  0.20D-05  6  6    33.60
   7      1.20070161    -0.63810741-18414.36832849    -0.00016270    -0.00000367  0.32D-05  0.88D-06  6  1    38.24
   8      1.20172662    -0.63809476-18414.36831584     0.00001264    -0.00000056  0.37D-06  0.17D-06  6  2    43.32
   9      1.20238683    -0.63812908-18414.36835016    -0.00003431    -0.00000009  0.60D-07  0.25D-07  6  3    47.91
  10      1.20225162    -0.63811721-18414.36833829     0.00001187    -0.00000002  0.11D-07  0.41D-08  6  4    52.56
  11      1.20230236    -0.63811910-18414.36834017    -0.00000189    -0.00000000  0.23D-08  0.69D-09  6  5    56.83
  12      1.20227489    -0.63811667-18414.36833775     0.00000243    -0.00000000  0.41D-09  0.18D-09  6  1    61.00
  13      1.20228318    -0.63811705-18414.36833813    -0.00000038    -0.00000000  0.35D-10  0.39D-10  6  6    65.50

 Norm of t1 vector:      0.21363216      S-energy:    -0.00241042      T1 diagnostic:  0.03431762
                                                                       D1 diagnostic:  0.14412049
 Norm of t2 vector:      0.39578338      P-energy:    -0.63570663
                                         Alpha-Beta:  -0.45685789
                                         Alpha-Alpha: -0.09919103
                                         Beta-Beta:   -0.07965771

 Singles amplitudes (print threshold =  0.500E-01):

         I         SYM. A    A   T(IA) [Alpha-Alpha]

         5         1         1      0.09550068
         5         1         2     -0.05450005
         5         1         4      0.05615676
 
         I         SYM. A    A   T(IA) [Beta-Beta]

         5         1         1      0.09935399
         5         1         2     -0.05215078

 Spin contamination <S**2-Sz**2-Sz>     0.00000000

 Memory could be reduced to 175.96 Mwords without degradation in triples
 

  Correlated core orbitals:            14.1      15.1       8.2       8.3
  Orbital energies:                    -4.4675   -2.6033   -2.6420   -2.6420
 
  RCCSD core-core energy               -0.094507131981
  RCCSD core-valence energy            -0.206877559749
  RCCSD valence correlation energy     -0.336732355858
 

 RESULTS
 =======

  Reference energy                   -18413.7302210790    
  RCCSD singles energy                 -0.002410415589
  RCCSD pair energy                    -0.635706631998
  RCCSD correlation energy             -0.638117047588
  Triples (T) contribution             -0.028078932291
  Total correlation energy             -0.666195979879
 
  RHF-RCCSD energy                   -18414.3683381266    
  RHF-RCCSD[T] energy                -18414.3988686467    
  RHF-RCCSD-T energy                 -18414.3960881400    
 !RHF-RCCSD(T) energy                -18414.3964170589    

 Program statistics:

 Available memory in ccsd:              1023999000
 Min. memory needed in ccsd:              11076221
 Max. memory used in ccsd:                15583208
 Max. memory used in cckext:              15270820 (13 integral passes)
 Max. memory used in cckint:              18106025 ( 1 integral passes)



 **********************************************************************************************************************************
 DATASETS  * FILE   NREC   LENGTH (MB)   RECORD NAMES
              1      22       22.68       500      610      700      900      950      970     1000      129      960     1700   
                                          VAR    BASINP    GEOM    SYMINP    ZMAT    AOBASIS   BASIS     P2S    ABASIS    OPER   
                                         1101     1401     1411     1412     1650     1100     1400     1410     1200     1210   
                                          SR      EKINR    POTR     PVPR    MOLCAS      S      EKIN      POT      H0       H01  
                                         1080     1600   
                                         AOSYM     SMH  

              2       5        8.09       700     1000      520     2101     3101   
                                         GEOM     BASIS   MCVARS     RHF      RHF  

 PROGRAMS   *        TOTAL  RCCSD(T)       RHF       RHF       INT
 CPU TIMES  *       242.61    123.33      0.27      5.74    112.83
 REAL TIME  *       290.98 SEC
 DISK USED  *        11.10 GB      
 SF USED    *         2.75 GB      
 GA USED    *         0.00 MB       (max)       0.00 MB       (current)
 **********************************************************************************************************************************
 SETTING CCSD           =    -18414.39641706  AU                              
                                                                                                                                                                                                                                                                

      Z          SCF            CCSD
    1.8   -18413.73022   -18414.39642
                                                  

 RCCSD(T)/USERDEF energy= -18414.396417058895

        RCCSD(T)        RHF-SCF         RHF-SCF 
 -18414.39641706 -18413.73022108 -18413.73022108
 **********************************************************************************************************************************
 Molpro calculation terminated
 Variable memory released
