/global/cscratch1/sd/bkincaid/Ir/250-610/runs/scf_450

     Program PWSCF v.6.4.1 starts on 17Jan2022 at 13:51:12 

     This program is part of the open-source Quantum ESPRESSO suite
     for quantum simulation of materials; please cite
         "P. Giannozzi et al., J. Phys.:Condens. Matter 21 395502 (2009);
         "P. Giannozzi et al., J. Phys.:Condens. Matter 29 465901 (2017);
          URL http://www.quantum-espresso.org", 
     in publications or presentations arising from this work. More details at
     http://www.quantum-espresso.org/quote

     Parallel version (MPI & OpenMP), running on      32 processor cores
     Number of MPI processes:                32
     Threads/MPI process:                     1

     MPI processes distributed on     1 nodes
     R & G space division:  proc/nbgrp/npool/nimage =      32
     Reading input from scf_450.in

     Current dimensions of program PWSCF are:
     Max number of different atomic species (ntypx) = 10
     Max number of k-points (npk) =  40000
     Max angular momentum in pseudopotentials (lmaxx) =  3

     IMPORTANT: XC functional enforced from input :
     Exchange-correlation      = PBE ( 1  4  3  4 0 0)
     Any further DFT definition will be discarded
     Please, verify this is what you really want


     gamma-point specific algorithms are used
     Message from routine setup:
     the system is metallic, specify occupations

     Subspace diagonalization in iterative solution of the eigenvalue problem:
     one sub-group per band group will be used
     scalapack distributed-memory algorithm (size of sub-group:  4*  4 procs)

     Message from routine setup:
     DEPRECATED: symmetry with ibrav=0, use correct ibrav instead
 
     Parallelization info
     --------------------
     sticks:   dense  smooth     PW     G-vecs:    dense   smooth      PW
     Min        2301    2301    575               469958   469958   58747
     Max        2304    2304    578               469964   469964   58752
     Sum       73693   73693  18441             15038775 15038775 1880009
 


     bravais-lattice index     =            0
     lattice parameter (alat)  =      22.6767  a.u.
     unit-cell volume          =   11661.1222 (a.u.)^3
     number of atoms/cell      =            1
     number of atomic types    =            1
     number of electrons       =        17.00 (up:  10.00, down:   7.00)
     number of Kohn-Sham states=           12
     kinetic-energy cutoff     =     450.0000  Ry
     charge density cutoff     =    1800.0000  Ry
     convergence threshold     =      1.0E-06
     mixing beta               =       0.7000
     number of iterations used =            8  plain     mixing
     Exchange-correlation      = PBE ( 1  4  3  4 0 0)

     celldm(1)=  22.676714  celldm(2)=   0.000000  celldm(3)=   0.000000
     celldm(4)=   0.000000  celldm(5)=   0.000000  celldm(6)=   0.000000

     crystal axes: (cart. coord. in units of alat)
               a(1) = (   1.000000   0.000000   0.000000 )  
               a(2) = (   0.000000   1.000000   0.000000 )  
               a(3) = (   0.000000   0.000000   1.000000 )  

     reciprocal axes: (cart. coord. in units 2 pi/alat)
               b(1) = (  1.000000  0.000000  0.000000 )  
               b(2) = (  0.000000  1.000000  0.000000 )  
               b(3) = (  0.000000  0.000000  1.000000 )  


     PseudoPot. # 1 for Ir read from file:
     ./Ir.upf
     MD5 check sum: 4ec64f0b3ebe11de5a1e063b7aff0c74
     Pseudo is Norm-conserving, Zval = 17.0
     Generated by new atomic code, or converted to UPF format
     Using radial grid of 1188 points,  3 beta functions with: 
                l(1) =   1
                l(2) =   2
                l(3) =   3

     atomic species   valence    mass     pseudopotential
        Ir            17.00   192.20000     Ir( 1.00)

     Starting magnetic structure 
     atomic species   magnetization
        Ir           0.500

     48 Sym. Ops., with inversion, found


                                    s                        frac. trans.

      isym =  1     identity                                     

 cryst.   s( 1) = (     1          0          0      )
                  (     0          1          0      )
                  (     0          0          1      )

 cart.    s( 1) = (  1.0000000  0.0000000  0.0000000 )
                  (  0.0000000  1.0000000  0.0000000 )
                  (  0.0000000  0.0000000  1.0000000 )


      isym =  2     180 deg rotation - cart. axis [0,0,1]        

 cryst.   s( 2) = (    -1          0          0      )
                  (     0         -1          0      )
                  (     0          0          1      )

 cart.    s( 2) = ( -1.0000000  0.0000000  0.0000000 )
                  (  0.0000000 -1.0000000  0.0000000 )
                  (  0.0000000  0.0000000  1.0000000 )


      isym =  3     180 deg rotation - cart. axis [0,1,0]        

 cryst.   s( 3) = (    -1          0          0      )
                  (     0          1          0      )
                  (     0          0         -1      )

 cart.    s( 3) = ( -1.0000000  0.0000000  0.0000000 )
                  (  0.0000000  1.0000000  0.0000000 )
                  (  0.0000000  0.0000000 -1.0000000 )


      isym =  4     180 deg rotation - cart. axis [1,0,0]        

 cryst.   s( 4) = (     1          0          0      )
                  (     0         -1          0      )
                  (     0          0         -1      )

 cart.    s( 4) = (  1.0000000  0.0000000  0.0000000 )
                  (  0.0000000 -1.0000000  0.0000000 )
                  (  0.0000000  0.0000000 -1.0000000 )


      isym =  5     180 deg rotation - cart. axis [1,1,0]        

 cryst.   s( 5) = (     0          1          0      )
                  (     1          0          0      )
                  (     0          0         -1      )

 cart.    s( 5) = (  0.0000000  1.0000000  0.0000000 )
                  (  1.0000000  0.0000000  0.0000000 )
                  (  0.0000000  0.0000000 -1.0000000 )


      isym =  6     180 deg rotation - cart. axis [1,-1,0]       

 cryst.   s( 6) = (     0         -1          0      )
                  (    -1          0          0      )
                  (     0          0         -1      )

 cart.    s( 6) = (  0.0000000 -1.0000000  0.0000000 )
                  ( -1.0000000  0.0000000  0.0000000 )
                  (  0.0000000  0.0000000 -1.0000000 )


      isym =  7      90 deg rotation - cart. axis [0,0,-1]       

 cryst.   s( 7) = (     0         -1          0      )
                  (     1          0          0      )
                  (     0          0          1      )

 cart.    s( 7) = (  0.0000000  1.0000000  0.0000000 )
                  ( -1.0000000  0.0000000  0.0000000 )
                  (  0.0000000  0.0000000  1.0000000 )


      isym =  8      90 deg rotation - cart. axis [0,0,1]        

 cryst.   s( 8) = (     0          1          0      )
                  (    -1          0          0      )
                  (     0          0          1      )

 cart.    s( 8) = (  0.0000000 -1.0000000  0.0000000 )
                  (  1.0000000  0.0000000  0.0000000 )
                  (  0.0000000  0.0000000  1.0000000 )


      isym =  9     180 deg rotation - cart. axis [1,0,1]        

 cryst.   s( 9) = (     0          0          1      )
                  (     0         -1          0      )
                  (     1          0          0      )

 cart.    s( 9) = (  0.0000000  0.0000000  1.0000000 )
                  (  0.0000000 -1.0000000  0.0000000 )
                  (  1.0000000  0.0000000  0.0000000 )


      isym = 10     180 deg rotation - cart. axis [-1,0,1]       

 cryst.   s(10) = (     0          0         -1      )
                  (     0         -1          0      )
                  (    -1          0          0      )

 cart.    s(10) = (  0.0000000  0.0000000 -1.0000000 )
                  (  0.0000000 -1.0000000  0.0000000 )
                  ( -1.0000000  0.0000000  0.0000000 )


      isym = 11      90 deg rotation - cart. axis [0,1,0]        

 cryst.   s(11) = (     0          0         -1      )
                  (     0          1          0      )
                  (     1          0          0      )

 cart.    s(11) = (  0.0000000  0.0000000  1.0000000 )
                  (  0.0000000  1.0000000  0.0000000 )
                  ( -1.0000000  0.0000000  0.0000000 )


      isym = 12      90 deg rotation - cart. axis [0,-1,0]       

 cryst.   s(12) = (     0          0          1      )
                  (     0          1          0      )
                  (    -1          0          0      )

 cart.    s(12) = (  0.0000000  0.0000000 -1.0000000 )
                  (  0.0000000  1.0000000  0.0000000 )
                  (  1.0000000  0.0000000  0.0000000 )


      isym = 13     180 deg rotation - cart. axis [0,1,1]        

 cryst.   s(13) = (    -1          0          0      )
                  (     0          0          1      )
                  (     0          1          0      )

 cart.    s(13) = ( -1.0000000  0.0000000  0.0000000 )
                  (  0.0000000  0.0000000  1.0000000 )
                  (  0.0000000  1.0000000  0.0000000 )


      isym = 14     180 deg rotation - cart. axis [0,1,-1]       

 cryst.   s(14) = (    -1          0          0      )
                  (     0          0         -1      )
                  (     0         -1          0      )

 cart.    s(14) = ( -1.0000000  0.0000000  0.0000000 )
                  (  0.0000000  0.0000000 -1.0000000 )
                  (  0.0000000 -1.0000000  0.0000000 )


      isym = 15      90 deg rotation - cart. axis [-1,0,0]       

 cryst.   s(15) = (     1          0          0      )
                  (     0          0         -1      )
                  (     0          1          0      )

 cart.    s(15) = (  1.0000000  0.0000000  0.0000000 )
                  (  0.0000000  0.0000000  1.0000000 )
                  (  0.0000000 -1.0000000  0.0000000 )


      isym = 16      90 deg rotation - cart. axis [1,0,0]        

 cryst.   s(16) = (     1          0          0      )
                  (     0          0          1      )
                  (     0         -1          0      )

 cart.    s(16) = (  1.0000000  0.0000000  0.0000000 )
                  (  0.0000000  0.0000000 -1.0000000 )
                  (  0.0000000  1.0000000  0.0000000 )


      isym = 17     120 deg rotation - cart. axis [-1,-1,-1]     

 cryst.   s(17) = (     0          0          1      )
                  (     1          0          0      )
                  (     0          1          0      )

 cart.    s(17) = (  0.0000000  1.0000000  0.0000000 )
                  (  0.0000000  0.0000000  1.0000000 )
                  (  1.0000000  0.0000000  0.0000000 )


      isym = 18     120 deg rotation - cart. axis [-1,1,1]       

 cryst.   s(18) = (     0          0         -1      )
                  (    -1          0          0      )
                  (     0          1          0      )

 cart.    s(18) = (  0.0000000 -1.0000000  0.0000000 )
                  (  0.0000000  0.0000000  1.0000000 )
                  ( -1.0000000  0.0000000  0.0000000 )


      isym = 19     120 deg rotation - cart. axis [1,1,-1]       

 cryst.   s(19) = (     0          0         -1      )
                  (     1          0          0      )
                  (     0         -1          0      )

 cart.    s(19) = (  0.0000000  1.0000000  0.0000000 )
                  (  0.0000000  0.0000000 -1.0000000 )
                  ( -1.0000000  0.0000000  0.0000000 )


      isym = 20     120 deg rotation - cart. axis [1,-1,1]       

 cryst.   s(20) = (     0          0          1      )
                  (    -1          0          0      )
                  (     0         -1          0      )

 cart.    s(20) = (  0.0000000 -1.0000000  0.0000000 )
                  (  0.0000000  0.0000000 -1.0000000 )
                  (  1.0000000  0.0000000  0.0000000 )


      isym = 21     120 deg rotation - cart. axis [1,1,1]        

 cryst.   s(21) = (     0          1          0      )
                  (     0          0          1      )
                  (     1          0          0      )

 cart.    s(21) = (  0.0000000  0.0000000  1.0000000 )
                  (  1.0000000  0.0000000  0.0000000 )
                  (  0.0000000  1.0000000  0.0000000 )


      isym = 22     120 deg rotation - cart. axis [-1,1,-1]      

 cryst.   s(22) = (     0         -1          0      )
                  (     0          0         -1      )
                  (     1          0          0      )

 cart.    s(22) = (  0.0000000  0.0000000  1.0000000 )
                  ( -1.0000000  0.0000000  0.0000000 )
                  (  0.0000000 -1.0000000  0.0000000 )


      isym = 23     120 deg rotation - cart. axis [1,-1,-1]      

 cryst.   s(23) = (     0         -1          0      )
                  (     0          0          1      )
                  (    -1          0          0      )

 cart.    s(23) = (  0.0000000  0.0000000 -1.0000000 )
                  ( -1.0000000  0.0000000  0.0000000 )
                  (  0.0000000  1.0000000  0.0000000 )


      isym = 24     120 deg rotation - cart. axis [-1,-1,1]      

 cryst.   s(24) = (     0          1          0      )
                  (     0          0         -1      )
                  (    -1          0          0      )

 cart.    s(24) = (  0.0000000  0.0000000 -1.0000000 )
                  (  1.0000000  0.0000000  0.0000000 )
                  (  0.0000000 -1.0000000  0.0000000 )


      isym = 25     inversion                                    

 cryst.   s(25) = (    -1          0          0      )
                  (     0         -1          0      )
                  (     0          0         -1      )

 cart.    s(25) = ( -1.0000000  0.0000000  0.0000000 )
                  (  0.0000000 -1.0000000  0.0000000 )
                  (  0.0000000  0.0000000 -1.0000000 )


      isym = 26     inv. 180 deg rotation - cart. axis [0,0,1]   

 cryst.   s(26) = (     1          0          0      )
                  (     0          1          0      )
                  (     0          0         -1      )

 cart.    s(26) = (  1.0000000  0.0000000  0.0000000 )
                  (  0.0000000  1.0000000  0.0000000 )
                  (  0.0000000  0.0000000 -1.0000000 )


      isym = 27     inv. 180 deg rotation - cart. axis [0,1,0]   

 cryst.   s(27) = (     1          0          0      )
                  (     0         -1          0      )
                  (     0          0          1      )

 cart.    s(27) = (  1.0000000  0.0000000  0.0000000 )
                  (  0.0000000 -1.0000000  0.0000000 )
                  (  0.0000000  0.0000000  1.0000000 )


      isym = 28     inv. 180 deg rotation - cart. axis [1,0,0]   

 cryst.   s(28) = (    -1          0          0      )
                  (     0          1          0      )
                  (     0          0          1      )

 cart.    s(28) = ( -1.0000000  0.0000000  0.0000000 )
                  (  0.0000000  1.0000000  0.0000000 )
                  (  0.0000000  0.0000000  1.0000000 )


      isym = 29     inv. 180 deg rotation - cart. axis [1,1,0]   

 cryst.   s(29) = (     0         -1          0      )
                  (    -1          0          0      )
                  (     0          0          1      )

 cart.    s(29) = (  0.0000000 -1.0000000  0.0000000 )
                  ( -1.0000000  0.0000000  0.0000000 )
                  (  0.0000000  0.0000000  1.0000000 )


      isym = 30     inv. 180 deg rotation - cart. axis [1,-1,0]  

 cryst.   s(30) = (     0          1          0      )
                  (     1          0          0      )
                  (     0          0          1      )

 cart.    s(30) = (  0.0000000  1.0000000  0.0000000 )
                  (  1.0000000  0.0000000  0.0000000 )
                  (  0.0000000  0.0000000  1.0000000 )


      isym = 31     inv.  90 deg rotation - cart. axis [0,0,-1]  

 cryst.   s(31) = (     0          1          0      )
                  (    -1          0          0      )
                  (     0          0         -1      )

 cart.    s(31) = (  0.0000000 -1.0000000  0.0000000 )
                  (  1.0000000  0.0000000  0.0000000 )
                  (  0.0000000  0.0000000 -1.0000000 )


      isym = 32     inv.  90 deg rotation - cart. axis [0,0,1]   

 cryst.   s(32) = (     0         -1          0      )
                  (     1          0          0      )
                  (     0          0         -1      )

 cart.    s(32) = (  0.0000000  1.0000000  0.0000000 )
                  ( -1.0000000  0.0000000  0.0000000 )
                  (  0.0000000  0.0000000 -1.0000000 )


      isym = 33     inv. 180 deg rotation - cart. axis [1,0,1]   

 cryst.   s(33) = (     0          0         -1      )
                  (     0          1          0      )
                  (    -1          0          0      )

 cart.    s(33) = (  0.0000000  0.0000000 -1.0000000 )
                  (  0.0000000  1.0000000  0.0000000 )
                  ( -1.0000000  0.0000000  0.0000000 )


      isym = 34     inv. 180 deg rotation - cart. axis [-1,0,1]  

 cryst.   s(34) = (     0          0          1      )
                  (     0          1          0      )
                  (     1          0          0      )

 cart.    s(34) = (  0.0000000  0.0000000  1.0000000 )
                  (  0.0000000  1.0000000  0.0000000 )
                  (  1.0000000  0.0000000  0.0000000 )


      isym = 35     inv.  90 deg rotation - cart. axis [0,1,0]   

 cryst.   s(35) = (     0          0          1      )
                  (     0         -1          0      )
                  (    -1          0          0      )

 cart.    s(35) = (  0.0000000  0.0000000 -1.0000000 )
                  (  0.0000000 -1.0000000  0.0000000 )
                  (  1.0000000  0.0000000  0.0000000 )


      isym = 36     inv.  90 deg rotation - cart. axis [0,-1,0]  

 cryst.   s(36) = (     0          0         -1      )
                  (     0         -1          0      )
                  (     1          0          0      )

 cart.    s(36) = (  0.0000000  0.0000000  1.0000000 )
                  (  0.0000000 -1.0000000  0.0000000 )
                  ( -1.0000000  0.0000000  0.0000000 )


      isym = 37     inv. 180 deg rotation - cart. axis [0,1,1]   

 cryst.   s(37) = (     1          0          0      )
                  (     0          0         -1      )
                  (     0         -1          0      )

 cart.    s(37) = (  1.0000000  0.0000000  0.0000000 )
                  (  0.0000000  0.0000000 -1.0000000 )
                  (  0.0000000 -1.0000000  0.0000000 )


      isym = 38     inv. 180 deg rotation - cart. axis [0,1,-1]  

 cryst.   s(38) = (     1          0          0      )
                  (     0          0          1      )
                  (     0          1          0      )

 cart.    s(38) = (  1.0000000  0.0000000  0.0000000 )
                  (  0.0000000  0.0000000  1.0000000 )
                  (  0.0000000  1.0000000  0.0000000 )


      isym = 39     inv.  90 deg rotation - cart. axis [-1,0,0]  

 cryst.   s(39) = (    -1          0          0      )
                  (     0          0          1      )
                  (     0         -1          0      )

 cart.    s(39) = ( -1.0000000  0.0000000  0.0000000 )
                  (  0.0000000  0.0000000 -1.0000000 )
                  (  0.0000000  1.0000000  0.0000000 )


      isym = 40     inv.  90 deg rotation - cart. axis [1,0,0]   

 cryst.   s(40) = (    -1          0          0      )
                  (     0          0         -1      )
                  (     0          1          0      )

 cart.    s(40) = ( -1.0000000  0.0000000  0.0000000 )
                  (  0.0000000  0.0000000  1.0000000 )
                  (  0.0000000 -1.0000000  0.0000000 )


      isym = 41     inv. 120 deg rotation - cart. axis [-1,-1,-1]

 cryst.   s(41) = (     0          0         -1      )
                  (    -1          0          0      )
                  (     0         -1          0      )

 cart.    s(41) = (  0.0000000 -1.0000000  0.0000000 )
                  (  0.0000000  0.0000000 -1.0000000 )
                  ( -1.0000000  0.0000000  0.0000000 )


      isym = 42     inv. 120 deg rotation - cart. axis [-1,1,1]  

 cryst.   s(42) = (     0          0          1      )
                  (     1          0          0      )
                  (     0         -1          0      )

 cart.    s(42) = (  0.0000000  1.0000000  0.0000000 )
                  (  0.0000000  0.0000000 -1.0000000 )
                  (  1.0000000  0.0000000  0.0000000 )


      isym = 43     inv. 120 deg rotation - cart. axis [1,1,-1]  

 cryst.   s(43) = (     0          0          1      )
                  (    -1          0          0      )
                  (     0          1          0      )

 cart.    s(43) = (  0.0000000 -1.0000000  0.0000000 )
                  (  0.0000000  0.0000000  1.0000000 )
                  (  1.0000000  0.0000000  0.0000000 )


      isym = 44     inv. 120 deg rotation - cart. axis [1,-1,1]  

 cryst.   s(44) = (     0          0         -1      )
                  (     1          0          0      )
                  (     0          1          0      )

 cart.    s(44) = (  0.0000000  1.0000000  0.0000000 )
                  (  0.0000000  0.0000000  1.0000000 )
                  ( -1.0000000  0.0000000  0.0000000 )


      isym = 45     inv. 120 deg rotation - cart. axis [1,1,1]   

 cryst.   s(45) = (     0         -1          0      )
                  (     0          0         -1      )
                  (    -1          0          0      )

 cart.    s(45) = (  0.0000000  0.0000000 -1.0000000 )
                  ( -1.0000000  0.0000000  0.0000000 )
                  (  0.0000000 -1.0000000  0.0000000 )


      isym = 46     inv. 120 deg rotation - cart. axis [-1,1,-1] 

 cryst.   s(46) = (     0          1          0      )
                  (     0          0          1      )
                  (    -1          0          0      )

 cart.    s(46) = (  0.0000000  0.0000000 -1.0000000 )
                  (  1.0000000  0.0000000  0.0000000 )
                  (  0.0000000  1.0000000  0.0000000 )


      isym = 47     inv. 120 deg rotation - cart. axis [1,-1,-1] 

 cryst.   s(47) = (     0          1          0      )
                  (     0          0         -1      )
                  (     1          0          0      )

 cart.    s(47) = (  0.0000000  0.0000000  1.0000000 )
                  (  1.0000000  0.0000000  0.0000000 )
                  (  0.0000000 -1.0000000  0.0000000 )


      isym = 48     inv. 120 deg rotation - cart. axis [-1,-1,1] 

 cryst.   s(48) = (     0         -1          0      )
                  (     0          0          1      )
                  (     1          0          0      )

 cart.    s(48) = (  0.0000000  0.0000000  1.0000000 )
                  ( -1.0000000  0.0000000  0.0000000 )
                  (  0.0000000  1.0000000  0.0000000 )


   Cartesian axes

     site n.     atom                  positions (alat units)
         1           Ir  tau(   1) = (   0.5000000   0.5000000   0.5000000  )

   Crystallographic axes

     site n.     atom                  positions (cryst. coord.)
         1           Ir  tau(   1) = (  0.5000000  0.5000000  0.5000000  )

     number of k points=     1
                       cart. coord. in units 2pi/alat
        k(    1) = (   0.0000000   0.0000000   0.0000000), wk =   1.0000000

                       cryst. coord.
        k(    1) = (   0.0000000   0.0000000   0.0000000), wk =   1.0000000

     Dense  grid:  7519388 G-vectors     FFT dimensions: ( 320, 320, 320)

     Dynamical RAM for                 wfc:       5.38 MB

     Dynamical RAM for     wfc (w. buffer):      16.13 MB

     Dynamical RAM for           str. fact:       3.59 MB

     Dynamical RAM for           local pot:       0.00 MB

     Dynamical RAM for          nlocal pot:       6.72 MB

     Dynamical RAM for                qrad:       4.91 MB

     Dynamical RAM for          rho,v,vnew:      68.39 MB

     Dynamical RAM for               rhoin:      22.80 MB

     Dynamical RAM for            rho*nmix:     114.74 MB

     Dynamical RAM for           G-vectors:      15.24 MB

     Dynamical RAM for          h,s,v(r/c):       0.00 MB

     Dynamical RAM for          <psi|beta>:       0.00 MB

     Dynamical RAM for                 psi:      21.51 MB

     Dynamical RAM for                hpsi:      21.51 MB

     Dynamical RAM for      wfcinit/wfcrot:      14.35 MB

     Estimated static dynamical RAM per process >     306.56 MB

     Estimated max dynamical RAM per process >     349.58 MB

     Estimated total dynamical RAM >      10.92 GB
     Generating pointlists ...
     new r_m :   0.4125 (alat units)  9.3541 (a.u.) for type    1

     Initial potential from superposition of free atoms

     starting charge   14.48040, renormalised to   17.00000

     negative rho (up, down):  7.725E-03 0.000E+00
     Starting wfcs are   16 randomized atomic wfcs

     total cpu time spent up to now is       10.7 secs

     Self-consistent Calculation

     iteration #  1     ecut=   450.00 Ry     beta= 0.70
     Davidson diagonalization with overlap
     ethr =  1.00E-02,  avg # of iterations = 11.0

     negative rho (up, down):  5.872E-06 7.213E-02

     total cpu time spent up to now is       27.6 secs

     total energy              =    -199.73493691 Ry
     Harris-Foulkes estimate   =    -211.36109355 Ry
     estimated scf accuracy    <      14.94219050 Ry

     total magnetization       =     3.00 Bohr mag/cell
     absolute magnetization    =     5.75 Bohr mag/cell

     iteration #  2     ecut=   450.00 Ry     beta= 0.70
     Davidson diagonalization with overlap
     ethr =  1.00E-02,  avg # of iterations =  7.5

     negative rho (up, down):  3.491E-06 7.138E-02

     total cpu time spent up to now is       41.5 secs

     total energy              =    -209.31664301 Ry
     Harris-Foulkes estimate   =    -214.46294188 Ry
     estimated scf accuracy    <       8.95930539 Ry

     total magnetization       =     3.00 Bohr mag/cell
     absolute magnetization    =     3.00 Bohr mag/cell

     iteration #  3     ecut=   450.00 Ry     beta= 0.70
     Davidson diagonalization with overlap
     ethr =  1.00E-02,  avg # of iterations =  3.0

     negative rho (up, down):  2.384E-06 7.144E-02

     total cpu time spent up to now is       50.9 secs

     total energy              =    -209.28738161 Ry
     Harris-Foulkes estimate   =    -209.90635075 Ry
     estimated scf accuracy    <       1.59609883 Ry

     total magnetization       =     3.00 Bohr mag/cell
     absolute magnetization    =     3.00 Bohr mag/cell

     iteration #  4     ecut=   450.00 Ry     beta= 0.70
     Davidson diagonalization with overlap
     ethr =  9.39E-03,  avg # of iterations =  1.0

     negative rho (up, down):  5.081E-07 9.879E-02

     total cpu time spent up to now is       58.7 secs

     total energy              =    -208.81696243 Ry
     Harris-Foulkes estimate   =    -209.33294789 Ry
     estimated scf accuracy    <       0.67110140 Ry

     total magnetization       =     3.00 Bohr mag/cell
     absolute magnetization    =     3.00 Bohr mag/cell

     iteration #  5     ecut=   450.00 Ry     beta= 0.70
     Davidson diagonalization with overlap
     ethr =  3.95E-03,  avg # of iterations =  4.5

     negative rho (up, down):  3.833E-07 8.153E-02

     total cpu time spent up to now is       69.3 secs

     total energy              =    -209.28704905 Ry
     Harris-Foulkes estimate   =    -209.36176141 Ry
     estimated scf accuracy    <       0.85569213 Ry

     total magnetization       =     3.00 Bohr mag/cell
     absolute magnetization    =     3.05 Bohr mag/cell

     iteration #  6     ecut=   450.00 Ry     beta= 0.70
     Davidson diagonalization with overlap
     ethr =  3.95E-03,  avg # of iterations =  1.0

     negative rho (up, down):  3.511E-06 6.995E-02

     total cpu time spent up to now is       77.4 secs

     total energy              =    -209.06221836 Ry
     Harris-Foulkes estimate   =    -209.29737465 Ry
     estimated scf accuracy    <       0.71532685 Ry

     total magnetization       =     3.00 Bohr mag/cell
     absolute magnetization    =     3.05 Bohr mag/cell

     iteration #  7     ecut=   450.00 Ry     beta= 0.70
     Davidson diagonalization with overlap
     ethr =  3.95E-03,  avg # of iterations =  1.5

     negative rho (up, down):  1.012E-06 6.524E-02

     total cpu time spent up to now is       85.9 secs

     total energy              =    -209.08009306 Ry
     Harris-Foulkes estimate   =    -209.11648822 Ry
     estimated scf accuracy    <       0.16749317 Ry

     total magnetization       =     3.00 Bohr mag/cell
     absolute magnetization    =     3.09 Bohr mag/cell

     iteration #  8     ecut=   450.00 Ry     beta= 0.70
     Davidson diagonalization with overlap
     ethr =  9.85E-04,  avg # of iterations =  3.0

     negative rho (up, down):  3.450E-04 2.238E-01

     total cpu time spent up to now is       94.7 secs

     total energy              =    -209.13171408 Ry
     Harris-Foulkes estimate   =    -209.11561300 Ry
     estimated scf accuracy    <       0.03833206 Ry

     total magnetization       =     3.00 Bohr mag/cell
     absolute magnetization    =     3.00 Bohr mag/cell

     iteration #  9     ecut=   450.00 Ry     beta= 0.70
     Davidson diagonalization with overlap
     ethr =  2.25E-04,  avg # of iterations =  3.5

     negative rho (up, down):  4.288E-07 6.998E-02

     total cpu time spent up to now is      105.3 secs

     total energy              =    -209.10749955 Ry
     Harris-Foulkes estimate   =    -209.14942715 Ry
     estimated scf accuracy    <       0.11171359 Ry

     total magnetization       =     3.00 Bohr mag/cell
     absolute magnetization    =     3.00 Bohr mag/cell

     iteration # 10     ecut=   450.00 Ry     beta= 0.70
     Davidson diagonalization with overlap
     ethr =  2.25E-04,  avg # of iterations =  2.0

     negative rho (up, down):  3.680E-07 8.744E-02

     total cpu time spent up to now is      114.1 secs

     total energy              =    -209.12111350 Ry
     Harris-Foulkes estimate   =    -209.12058210 Ry
     estimated scf accuracy    <       0.03178611 Ry

     total magnetization       =     3.00 Bohr mag/cell
     absolute magnetization    =     3.02 Bohr mag/cell

     iteration # 11     ecut=   450.00 Ry     beta= 0.70
     Davidson diagonalization with overlap
     ethr =  1.87E-04,  avg # of iterations =  1.0

     negative rho (up, down):  3.787E-07 6.282E-02

     total cpu time spent up to now is      122.3 secs

     total energy              =    -209.11472687 Ry
     Harris-Foulkes estimate   =    -209.12147379 Ry
     estimated scf accuracy    <       0.04821508 Ry

     total magnetization       =     3.00 Bohr mag/cell
     absolute magnetization    =     3.04 Bohr mag/cell

     iteration # 12     ecut=   450.00 Ry     beta= 0.70
     Davidson diagonalization with overlap
     ethr =  1.87E-04,  avg # of iterations =  1.0

     negative rho (up, down):  1.112E-03 2.568E-01

     total cpu time spent up to now is      130.2 secs

     total energy              =    -209.12412271 Ry
     Harris-Foulkes estimate   =    -209.12374844 Ry
     estimated scf accuracy    <       0.02292319 Ry

     total magnetization       =     3.00 Bohr mag/cell
     absolute magnetization    =     3.00 Bohr mag/cell

     iteration # 13     ecut=   450.00 Ry     beta= 0.70
     Davidson diagonalization with overlap
     ethr =  1.35E-04,  avg # of iterations =  1.0

     negative rho (up, down):  4.201E-04 2.944E-01

     total cpu time spent up to now is      138.2 secs

     total energy              =    -209.12414957 Ry
     Harris-Foulkes estimate   =    -209.12433926 Ry
     estimated scf accuracy    <       0.01944778 Ry

     total magnetization       =     3.00 Bohr mag/cell
     absolute magnetization    =     3.00 Bohr mag/cell

     iteration # 14     ecut=   450.00 Ry     beta= 0.70
     Davidson diagonalization with overlap
     ethr =  1.14E-04,  avg # of iterations =  1.0

     negative rho (up, down):  6.234E-06 2.225E-01

     total cpu time spent up to now is      146.2 secs

     total energy              =    -209.12363918 Ry
     Harris-Foulkes estimate   =    -209.12423221 Ry
     estimated scf accuracy    <       0.01974056 Ry

     total magnetization       =     3.00 Bohr mag/cell
     absolute magnetization    =     3.00 Bohr mag/cell

     iteration # 15     ecut=   450.00 Ry     beta= 0.70
     Davidson diagonalization with overlap
     ethr =  1.14E-04,  avg # of iterations =  1.0

     negative rho (up, down):  1.501E-12 1.835E-04

     total cpu time spent up to now is      154.3 secs

     total energy              =    -209.12364942 Ry
     Harris-Foulkes estimate   =    -209.12371169 Ry
     estimated scf accuracy    <       0.01846193 Ry

     total magnetization       =     3.00 Bohr mag/cell
     absolute magnetization    =     3.00 Bohr mag/cell

     iteration # 16     ecut=   450.00 Ry     beta= 0.70
     Davidson diagonalization with overlap
     ethr =  1.09E-04,  avg # of iterations =  1.0

     negative rho (up, down):  7.445E-06 2.344E-01

     total cpu time spent up to now is      162.4 secs

     total energy              =    -209.12354569 Ry
     Harris-Foulkes estimate   =    -209.12368747 Ry
     estimated scf accuracy    <       0.01813029 Ry

     total magnetization       =     3.00 Bohr mag/cell
     absolute magnetization    =     3.00 Bohr mag/cell

     iteration # 17     ecut=   450.00 Ry     beta= 0.70
     Davidson diagonalization with overlap
     ethr =  1.07E-04,  avg # of iterations =  1.0

     negative rho (up, down):  1.542E-04 3.206E-01

     total cpu time spent up to now is      170.4 secs

     total energy              =    -209.12344016 Ry
     Harris-Foulkes estimate   =    -209.12356917 Ry
     estimated scf accuracy    <       0.01761348 Ry

     total magnetization       =     3.00 Bohr mag/cell
     absolute magnetization    =     3.00 Bohr mag/cell

     iteration # 18     ecut=   450.00 Ry     beta= 0.70
     Davidson diagonalization with overlap
     ethr =  1.04E-04,  avg # of iterations =  1.0

     negative rho (up, down):  9.203E-05 3.319E-01

     total cpu time spent up to now is      178.4 secs

     total energy              =    -209.12374549 Ry
     Harris-Foulkes estimate   =    -209.12345904 Ry
     estimated scf accuracy    <       0.01667788 Ry

     total magnetization       =     3.00 Bohr mag/cell
     absolute magnetization    =     3.00 Bohr mag/cell

     iteration # 19     ecut=   450.00 Ry     beta= 0.70
     Davidson diagonalization with overlap
     ethr =  9.81E-05,  avg # of iterations =  1.0

     negative rho (up, down):  1.839E-09 2.427E-02

     total cpu time spent up to now is      186.5 secs

     total energy              =    -209.12439020 Ry
     Harris-Foulkes estimate   =    -209.12377820 Ry
     estimated scf accuracy    <       0.01684206 Ry

     total magnetization       =     3.00 Bohr mag/cell
     absolute magnetization    =     3.00 Bohr mag/cell

     iteration # 20     ecut=   450.00 Ry     beta= 0.70
     Davidson diagonalization with overlap
     ethr =  9.81E-05,  avg # of iterations =  1.0

     negative rho (up, down):  1.495E-03 2.586E-01

     total cpu time spent up to now is      194.4 secs

     total energy              =    -209.11506821 Ry
     Harris-Foulkes estimate   =    -209.12462112 Ry
     estimated scf accuracy    <       0.02053545 Ry

     total magnetization       =     3.00 Bohr mag/cell
     absolute magnetization    =     3.00 Bohr mag/cell

     iteration # 21     ecut=   450.00 Ry     beta= 0.70
     Davidson diagonalization with overlap
     ethr =  9.81E-05,  avg # of iterations =  2.0

     negative rho (up, down):  2.918E-04 3.456E-01

     total cpu time spent up to now is      203.1 secs

     total energy              =    -209.11762254 Ry
     Harris-Foulkes estimate   =    -209.13208587 Ry
     estimated scf accuracy    <       0.11358347 Ry

     total magnetization       =     3.00 Bohr mag/cell
     absolute magnetization    =     3.02 Bohr mag/cell

     iteration # 22     ecut=   450.00 Ry     beta= 0.70
     Davidson diagonalization with overlap
     ethr =  9.81E-05,  avg # of iterations =  2.0

     negative rho (up, down):  1.440E-04 3.815E-01

     total cpu time spent up to now is      211.7 secs

     total energy              =    -209.12316552 Ry
     Harris-Foulkes estimate   =    -209.12311243 Ry
     estimated scf accuracy    <       0.00269112 Ry

     total magnetization       =     3.00 Bohr mag/cell
     absolute magnetization    =     3.00 Bohr mag/cell

     iteration # 23     ecut=   450.00 Ry     beta= 0.70
     Davidson diagonalization with overlap
     ethr =  1.58E-05,  avg # of iterations =  3.5

     negative rho (up, down):  2.365E-05 4.090E-01

     total cpu time spent up to now is      220.4 secs

     total energy              =    -209.12351088 Ry
     Harris-Foulkes estimate   =    -209.12348483 Ry
     estimated scf accuracy    <       0.00155086 Ry

     total magnetization       =     3.00 Bohr mag/cell
     absolute magnetization    =     3.00 Bohr mag/cell

     iteration # 24     ecut=   450.00 Ry     beta= 0.70
     Davidson diagonalization with overlap
     ethr =  9.12E-06,  avg # of iterations =  4.0

     negative rho (up, down):  6.676E-06 3.684E-01

     total cpu time spent up to now is      229.3 secs

     total energy              =    -209.12357993 Ry
     Harris-Foulkes estimate   =    -209.12358724 Ry
     estimated scf accuracy    <       0.00080092 Ry

     total magnetization       =     3.00 Bohr mag/cell
     absolute magnetization    =     3.00 Bohr mag/cell

     iteration # 25     ecut=   450.00 Ry     beta= 0.70
     Davidson diagonalization with overlap
     ethr =  4.71E-06,  avg # of iterations =  1.5

     negative rho (up, down):  1.319E-05 3.972E-01

     total cpu time spent up to now is      237.5 secs

     total energy              =    -209.12358727 Ry
     Harris-Foulkes estimate   =    -209.12361192 Ry
     estimated scf accuracy    <       0.00059944 Ry

     total magnetization       =     3.00 Bohr mag/cell
     absolute magnetization    =     3.00 Bohr mag/cell

     iteration # 26     ecut=   450.00 Ry     beta= 0.70
     Davidson diagonalization with overlap
     ethr =  3.53E-06,  avg # of iterations =  8.0

     negative rho (up, down):  5.186E-05 3.879E-01

     total cpu time spent up to now is      247.5 secs

     total energy              =    -209.12320388 Ry
     Harris-Foulkes estimate   =    -209.12361437 Ry
     estimated scf accuracy    <       0.00080505 Ry

     total magnetization       =     3.00 Bohr mag/cell
     absolute magnetization    =     3.00 Bohr mag/cell

     iteration # 27     ecut=   450.00 Ry     beta= 0.70
     Davidson diagonalization with overlap
     ethr =  3.53E-06,  avg # of iterations =  3.0

     negative rho (up, down):  5.802E-05 3.886E-01

     total cpu time spent up to now is      256.8 secs

     total energy              =    -209.12355221 Ry
     Harris-Foulkes estimate   =    -209.12356799 Ry
     estimated scf accuracy    <       0.00267073 Ry

     total magnetization       =     3.00 Bohr mag/cell
     absolute magnetization    =     3.00 Bohr mag/cell

     iteration # 28     ecut=   450.00 Ry     beta= 0.70
     Davidson diagonalization with overlap
     ethr =  3.53E-06,  avg # of iterations =  1.0

     negative rho (up, down):  5.912E-05 3.886E-01

     total cpu time spent up to now is      264.8 secs

     total energy              =    -209.12355255 Ry
     Harris-Foulkes estimate   =    -209.12358139 Ry
     estimated scf accuracy    <       0.00233240 Ry

     total magnetization       =     3.00 Bohr mag/cell
     absolute magnetization    =     3.00 Bohr mag/cell

     iteration # 29     ecut=   450.00 Ry     beta= 0.70
     Davidson diagonalization with overlap
     ethr =  3.53E-06,  avg # of iterations =  1.0

     negative rho (up, down):  5.529E-05 3.992E-01

     total cpu time spent up to now is      272.8 secs

     total energy              =    -209.12354429 Ry
     Harris-Foulkes estimate   =    -209.12358935 Ry
     estimated scf accuracy    <       0.00183974 Ry

     total magnetization       =     3.00 Bohr mag/cell
     absolute magnetization    =     3.00 Bohr mag/cell

     iteration # 30     ecut=   450.00 Ry     beta= 0.70
     Davidson diagonalization with overlap
     ethr =  3.53E-06,  avg # of iterations =  2.0

     negative rho (up, down):  1.325E-05 4.327E-01

     total cpu time spent up to now is      281.1 secs

     total energy              =    -209.12282208 Ry
     Harris-Foulkes estimate   =    -209.12363530 Ry
     estimated scf accuracy    <       0.00101952 Ry

     total magnetization       =     3.00 Bohr mag/cell
     absolute magnetization    =     3.00 Bohr mag/cell

     iteration # 31     ecut=   450.00 Ry     beta= 0.70
     Davidson diagonalization with overlap
     c_bands:  2 eigenvalues not converged
     ethr =  3.53E-06,  avg # of iterations = 12.0

     negative rho (up, down):  2.030E-05 4.373E-01

     total cpu time spent up to now is      294.8 secs

     total energy              =    -209.12423163 Ry
     Harris-Foulkes estimate   =    -209.12446482 Ry
     estimated scf accuracy    <       0.00140820 Ry

     total magnetization       =     3.00 Bohr mag/cell
     absolute magnetization    =     3.01 Bohr mag/cell

     iteration # 32     ecut=   450.00 Ry     beta= 0.70
     Davidson diagonalization with overlap
     ethr =  3.53E-06,  avg # of iterations =  2.5

     negative rho (up, down):  4.293E-05 4.349E-01

     total cpu time spent up to now is      303.3 secs

     total energy              =    -209.12406230 Ry
     Harris-Foulkes estimate   =    -209.12424464 Ry
     estimated scf accuracy    <       0.00094648 Ry

     total magnetization       =     3.00 Bohr mag/cell
     absolute magnetization    =     3.01 Bohr mag/cell

     iteration # 33     ecut=   450.00 Ry     beta= 0.70
     Davidson diagonalization with overlap
     ethr =  3.53E-06,  avg # of iterations =  1.0

     negative rho (up, down):  6.104E-06 3.714E-01

     total cpu time spent up to now is      311.3 secs

     total energy              =    -209.12398076 Ry
     Harris-Foulkes estimate   =    -209.12410364 Ry
     estimated scf accuracy    <       0.00058567 Ry

     total magnetization       =     3.00 Bohr mag/cell
     absolute magnetization    =     3.01 Bohr mag/cell

     iteration # 34     ecut=   450.00 Ry     beta= 0.70
     Davidson diagonalization with overlap
     ethr =  3.45E-06,  avg # of iterations =  1.0

     negative rho (up, down):  5.372E-07 1.492E-01

     total cpu time spent up to now is      319.4 secs

     total energy              =    -209.12388869 Ry
     Harris-Foulkes estimate   =    -209.12399337 Ry
     estimated scf accuracy    <       0.00042135 Ry

     total magnetization       =     3.00 Bohr mag/cell
     absolute magnetization    =     3.01 Bohr mag/cell

     iteration # 35     ecut=   450.00 Ry     beta= 0.70
     Davidson diagonalization with overlap
     ethr =  2.48E-06,  avg # of iterations =  1.0

     negative rho (up, down):  4.161E-07 1.299E-01

     total cpu time spent up to now is      327.4 secs

     total energy              =    -209.12393056 Ry
     Harris-Foulkes estimate   =    -209.12393329 Ry
     estimated scf accuracy    <       0.00027718 Ry

     total magnetization       =     3.00 Bohr mag/cell
     absolute magnetization    =     3.01 Bohr mag/cell

     iteration # 36     ecut=   450.00 Ry     beta= 0.70
     Davidson diagonalization with overlap
     ethr =  1.63E-06,  avg # of iterations =  1.0

     negative rho (up, down):  4.256E-08 2.623E-02

     total cpu time spent up to now is      335.5 secs

     total energy              =    -209.12386415 Ry
     Harris-Foulkes estimate   =    -209.12393752 Ry
     estimated scf accuracy    <       0.00022586 Ry

     total magnetization       =     3.00 Bohr mag/cell
     absolute magnetization    =     3.01 Bohr mag/cell

     iteration # 37     ecut=   450.00 Ry     beta= 0.70
     Davidson diagonalization with overlap
     ethr =  1.33E-06,  avg # of iterations =  2.5

     negative rho (up, down):  4.638E-14 1.062E-05

     total cpu time spent up to now is      344.8 secs

     total energy              =    -209.12396537 Ry
     Harris-Foulkes estimate   =    -209.12397073 Ry
     estimated scf accuracy    <       0.00003119 Ry

     total magnetization       =     3.00 Bohr mag/cell
     absolute magnetization    =     3.01 Bohr mag/cell

     iteration # 38     ecut=   450.00 Ry     beta= 0.70
     Davidson diagonalization with overlap
     ethr =  1.83E-07,  avg # of iterations =  2.0

     negative rho (up, down):  7.544E-13 1.641E-04

     total cpu time spent up to now is      353.1 secs

     total energy              =    -209.12397745 Ry
     Harris-Foulkes estimate   =    -209.12397786 Ry
     estimated scf accuracy    <       0.00002591 Ry

     total magnetization       =     3.00 Bohr mag/cell
     absolute magnetization    =     3.01 Bohr mag/cell

     iteration # 39     ecut=   450.00 Ry     beta= 0.70
     Davidson diagonalization with overlap
     ethr =  1.52E-07,  avg # of iterations =  3.0

     total cpu time spent up to now is      362.3 secs

     total energy              =    -209.12397811 Ry
     Harris-Foulkes estimate   =    -209.12398856 Ry
     estimated scf accuracy    <       0.00003916 Ry

     total magnetization       =     3.00 Bohr mag/cell
     absolute magnetization    =     3.01 Bohr mag/cell

     iteration # 40     ecut=   450.00 Ry     beta= 0.70
     Davidson diagonalization with overlap
     ethr =  1.52E-07,  avg # of iterations =  3.0

     total cpu time spent up to now is      371.6 secs

     total energy              =    -209.12399030 Ry
     Harris-Foulkes estimate   =    -209.12399126 Ry
     estimated scf accuracy    <       0.00000714 Ry

     total magnetization       =     3.00 Bohr mag/cell
     absolute magnetization    =     3.01 Bohr mag/cell

     iteration # 41     ecut=   450.00 Ry     beta= 0.70
     Davidson diagonalization with overlap
     ethr =  4.20E-08,  avg # of iterations =  3.0

     negative rho (up, down):  0.000E+00 2.136E-07

     total cpu time spent up to now is      380.9 secs

     total energy              =    -209.12399266 Ry
     Harris-Foulkes estimate   =    -209.12399318 Ry
     estimated scf accuracy    <       0.00000708 Ry

     total magnetization       =     3.00 Bohr mag/cell
     absolute magnetization    =     3.01 Bohr mag/cell

     iteration # 42     ecut=   450.00 Ry     beta= 0.70
     Davidson diagonalization with overlap
     ethr =  4.17E-08,  avg # of iterations =  1.0

     total cpu time spent up to now is      389.0 secs

     total energy              =    -209.12399245 Ry
     Harris-Foulkes estimate   =    -209.12399333 Ry
     estimated scf accuracy    <       0.00000254 Ry

     total magnetization       =     3.00 Bohr mag/cell
     absolute magnetization    =     3.01 Bohr mag/cell

     iteration # 43     ecut=   450.00 Ry     beta= 0.70
     Davidson diagonalization with overlap
     ethr =  1.50E-08,  avg # of iterations =  3.0
 
     Magnetic moment per site:
     atom:    1    charge:   16.9998    magn:    3.0000    constr:    0.0000

     total cpu time spent up to now is      397.9 secs

     End of self-consistent calculation

 ------ SPIN UP ------------


          k = 0.0000 0.0000 0.0000 (940005 PWs)   bands (ev):

   -96.1626 -53.5451 -53.5348 -53.3926  -6.8687  -6.8664  -6.3056  -6.0443
    -6.0371  -5.5876  -1.0686  -1.0613

     occupation numbers 
     1.0000   1.0000   1.0000   1.0000   1.0000   1.0000   1.0000   1.0000
     1.0000   1.0000   0.0000   0.0000

 ------ SPIN DOWN ----------


          k = 0.0000 0.0000 0.0000 (940005 PWs)   bands (ev):

   -94.9075 -52.0432 -52.0375 -51.8375  -4.9850  -4.9840  -4.8054  -4.6392
    -4.0962  -4.0915  -0.4176  -0.2948

     occupation numbers 
     1.0000   1.0000   1.0000   1.0000   1.0000   1.0000   1.0000   0.0000
     0.0000   0.0000   0.0000   0.0000

     highest occupied, lowest unoccupied level (ev):    -4.8054   -4.6392

!    total energy              =    -209.12399473 Ry
     Harris-Foulkes estimate   =    -209.12399505 Ry
     estimated scf accuracy    <       0.00000080 Ry

     The total energy is the sum of the following terms:

     one-electron contribution =    -289.98529785 Ry
     hartree contribution      =     138.12832037 Ry
     xc contribution           =     -21.10750197 Ry
     ewald contribution        =     -36.15951528 Ry

     total magnetization       =     3.00 Bohr mag/cell
     absolute magnetization    =     3.01 Bohr mag/cell

     convergence has been achieved in  43 iterations

     Writing output data file pwscf.save/
 
     init_run     :     10.03s CPU     10.53s WALL (       1 calls)
     electrons    :    381.68s CPU    388.22s WALL (       1 calls)

     Called by init_run:
     wfcinit      :      2.19s CPU      2.36s WALL (       1 calls)
     wfcinit:atom :      0.04s CPU      0.05s WALL (       2 calls)
     wfcinit:wfcr :      2.08s CPU      2.23s WALL (       2 calls)
     potinit      :      2.51s CPU      2.70s WALL (       1 calls)
     hinit0       :      0.24s CPU      0.33s WALL (       1 calls)

     Called by electrons:
     c_bands      :    181.94s CPU    184.43s WALL (      43 calls)
     sum_band     :     62.97s CPU     63.22s WALL (      43 calls)
     v_of_rho     :     98.39s CPU    101.42s WALL (      44 calls)
     v_h          :      7.27s CPU      7.33s WALL (      44 calls)
     v_xc         :     91.12s CPU     94.09s WALL (      44 calls)
     mix_rho      :     36.83s CPU     37.08s WALL (      43 calls)

     Called by c_bands:
     init_us_2    :      1.94s CPU      1.94s WALL (     174 calls)
     regterg      :    177.86s CPU    180.31s WALL (      86 calls)

     Called by sum_band:

     Called by *egterg:
     h_psi        :    164.00s CPU    164.49s WALL (     312 calls)
     g_psi        :      0.50s CPU      0.50s WALL (     224 calls)
     rdiaghg      :      0.38s CPU      0.41s WALL (     310 calls)
     regterg:over :      3.40s CPU      3.41s WALL (     224 calls)
     regterg:upda :      6.44s CPU      6.50s WALL (     224 calls)
     regterg:last :      2.15s CPU      2.16s WALL (      94 calls)
     rdiaghg:chol :      0.12s CPU      0.14s WALL (     310 calls)
     rdiaghg:inve :      0.01s CPU      0.01s WALL (     310 calls)
     rdiaghg:para :      0.04s CPU      0.04s WALL (     620 calls)

     Called by h_psi:
     h_psi:pot    :    162.93s CPU    163.41s WALL (     312 calls)
     h_psi:calbec :      1.09s CPU      1.18s WALL (     312 calls)
     vloc_psi     :    160.57s CPU    160.97s WALL (     312 calls)
     add_vuspsi   :      1.26s CPU      1.27s WALL (     312 calls)

     General routines
     calbec       :      1.09s CPU      1.18s WALL (     312 calls)
     fft          :     86.62s CPU     87.47s WALL (     656 calls)
     ffts         :      9.14s CPU      9.18s WALL (      86 calls)
     fftw         :    156.68s CPU    157.14s WALL (    3230 calls)
 
     Parallel routines
     fft_scatt_xy :     44.08s CPU     44.13s WALL (    3972 calls)
     fft_scatt_yz :     92.39s CPU     93.39s WALL (    3972 calls)
 
     PWSCF        :   6m32.27s CPU   6m40.82s WALL

 
   This run was terminated on:  13:57:53  17Jan2022            

=------------------------------------------------------------------------------=
   JOB DONE.
=------------------------------------------------------------------------------=
