
 Primary working directories    : /global/cscratch1/sd/aannabe
 Secondary working directories  : /global/cscratch1/sd/aannabe
 Wavefunction directory         : /global/homes/a/aannabe/wfu/
 Main file repository           : /global/cscratch1/sd/aannabe/

 SHA1      : 19cd028119e0e09f93f0674bd8af7968d9b3eff6
 NAME      : 2015.1.36
 ARCHNAME  : linux/x86_64
 FC        : /opt/cray/pe/craype/2.5.14/bin/ftn
 BLASLIB   : -L/opt/intel/compilers_and_libraries_2018.1.163/linux/mkl/lib/intel64 -Wl,-_start-group -lmkl_intel_ilp64 -lmkl_intel_thread -lmkl_core -Wl,-_end-group -liomp5
 id        : lbl

 Nodes     nprocs
 nid00749    23
 Number of processes for MPI-2 version of Molpro:   nprocs(total)=   24   nprocs(compute)=   23   nprocs(helper)=    1

 Using customized tuning parameters: mindgm=7; mindgv=16; mindgc=1; mindgr=1; noblas=0; minvec=7
 default implementation of scratch files=sf  

 ***,Calculation for Ag atom, singlet and triplet
 memory,512,m
 geometry={
 1
 Pd
 Pd  0.0 0.0 0.0
 }
 
 basis={
 Including file /global/cscratch1/sd/aannabe/repos/heavy_element_ecps/Pd/arep/atoms/AE/dkh/basis/EA/5z.basis
 }
 
 set,dkroll=1,dkho=10,dkhp=4
 
 Including file /global/cscratch1/sd/aannabe/repos/heavy_element_ecps/Pd/arep/atoms/AE/dkh/basis/EA/states.proc
 
 do i=14,14
     if (i.eq.1) then
         Idten
     else if (i.eq.2) then
         EAs2d9
     else if (i.eq.3) then
         Is1d9
     else if (i.eq.4) then
         Is2d8
     else if (i.eq.5) then
         IId9
     else if (i.eq.6) then
         IIs1d8
     else if (i.eq.7) then
         IIId8
     else if (i.eq.8) then
         IVd7
     else if (i.eq.9) then
         Vd6
     else if (i.eq.10) then
         VId5
     else if (i.eq.11) then
         XIKr
     else if (i.eq.12) then
         XIVp3
     else if (i.eq.13) then
         XVIIs2
     else if (i.eq.14) then
         EAs1dten
     endif
     scf(i)=energy
     _CC_NORM_MAX=2.0
     {rccsd(t),maxit=100;core}
     ccsd(i)=energy
 enddo
 
 table,scf,ccsd
 type,csv
 save

 Variables initialized (889), CPU time= 0.01 sec
 Commands  initialized (702), CPU time= 0.02 sec, 572 directives.
 Default parameters read. Elapsed time= 0.20 sec

 Checking input...
 Passed
1


                                         ***  PROGRAM SYSTEM MOLPRO  ***
                                       Copyright, TTI GmbH Stuttgart, 2015
                                    Version 2015.1 linked Dec 29 2018 15:55:43


 **********************************************************************************************************************************
 LABEL *   Calculation for Ag atom, singlet and triplet                                  
  64 bit mpp version                                                                     DATE: 05-May-21          TIME: 09:57:12  
 **********************************************************************************************************************************

 SHA1:             19cd028119e0e09f93f0674bd8af7968d9b3eff6
 **********************************************************************************************************************************

Geometry recognized as XYZ


 Variable memory set to  512000000 words,  buffer space   230000 words

 SETTING BASIS          =    USERDEF
 SETTING DKROLL         =         1.00000000                                  
 SETTING DKHO           =        10.00000000                                  
 SETTING DKHP           =         4.00000000                                  

 DO I                   =        14.00000000   

 Running procedure=EAS1DTEN


 Recomputing integrals since basis changed


 Using spherical harmonics



 PROGRAM * SEWARD (Integral evaluation for generally contracted gaussian basis sets)     Author: Roland Lindh, 1990

 Geometry written to block  1 of record 700

 Orientation using atomic masses  
 Molecule type: Atom
 Symmetry elements: X,Y,Z
 Rotational constants:       0.0000000      0.0000000      0.0000000 GHz  (calculated with average atomic masses)

 Point group  D2h 



 ATOMIC COORDINATES

 NR  ATOM    CHARGE       X              Y              Z

   1  PD     46.00    0.000000000    0.000000000    0.000000000

 NUCLEAR CHARGE:                   46
 NUMBER OF PRIMITIVE AOS:         429
 NUMBER OF SYMMETRY AOS:          313
 NUMBER OF CONTRACTIONS:          313   (  83Ag  +  42B3u +  42B2u +  31B1g +  42B1u +  31B2g +  31B3g +  11Au  )
 NUMBER OF CORE ORBITALS:          18   (   6Ag  +   3B3u +   3B2u +   1B1g +   3B1u +   1B2g +   1B3g +   0Au  )
 NUMBER OF VALENCE ORBITALS:        6   (   3Ag  +   0B3u +   0B2u +   1B1g +   0B1u +   1B2g +   1B3g +   0Au  )


 NUCLEAR REPULSION ENERGY    0.00000000

 One-electron integrals computed with SEWARD

 10nd-order Douglas-Kroll-Hess method activated. McWeeny DKH parametrization is used.

 Computing Douglas-Kroll / X2C integrals

 AO integral compression algorithm  1   Integral accuracy      1.0D-11

     505.151 MB (compressed) written to integral file ( 27.7%)

     Node minimum: 8.126 MB, node maximum: 41.157 MB


 NUMBER OF SORTED TWO-ELECTRON INTEGRALS:    6728960.     BUFFER LENGTH:  32768
 NUMBER OF SEGMENTS:   1  SEGMENT LENGTH:    6728960      RECORD LENGTH: 524288

 Memory used in sort:       7.29 MW

 SORT1 READ   227623651. AND WROTE     2894944. INTEGRALS IN      9 RECORDS. CPU TIME:    10.26 SEC, REAL TIME:    11.62 SEC
 SORT2 READ    68157109. AND WROTE   155396568. INTEGRALS IN   2254 RECORDS. CPU TIME:     0.42 SEC, REAL TIME:     0.75 SEC

 Node minimum:     6630452.  Node maximum:     6850849. integrals

 OPERATOR DM      FOR CENTER  0  COORDINATES:    0.000000    0.000000    0.000000

 EXTRA SYMMETRY OF AOS IN SYMMETRY 1:   1 1 1 1 1 1 1 1 1 1   1 1 1 1 1 1 1 1 1 1   1 1 1 1 1 1 1 1 1 2   3 2 3 2 3 2 3 2 3 2
                                        3 2 3 2 3 2 3 2 3 2   3 2 3 2 3 2 3 2 3 2   3 2 3 4 5 6 4 5 6 4   5 6 4 5 6 7 8 910 7
                                        8 910
 EXTRA SYMMETRY OF AOS IN SYMMETRY 2:   1 1 1 1 1 1 1 1 1 1   1 1 1 1 1 1 1 1 1 1   1 1 1 2 3 2 3 2 3 2   3 2 3 4 5 6 4 5 6 4
                                        5 6
 EXTRA SYMMETRY OF AOS IN SYMMETRY 3:   1 1 1 1 1 1 1 1 1 1   1 1 1 1 1 1 1 1 1 1   1 1 1 2 3 2 3 2 3 2   3 2 3 4 5 6 4 5 6 4
                                        5 6
 EXTRA SYMMETRY OF AOS IN SYMMETRY 4:   1 1 1 1 1 1 1 1 1 1   1 1 1 1 1 1 1 2 3 2   3 2 3 2 3 4 5 6 4 5   6
 EXTRA SYMMETRY OF AOS IN SYMMETRY 5:   1 1 1 1 1 1 1 1 1 1   1 1 1 1 1 1 1 1 1 1   1 1 1 2 3 2 3 2 3 2   3 2 3 4 5 6 4 5 6 4
                                        5 6
 EXTRA SYMMETRY OF AOS IN SYMMETRY 6:   1 1 1 1 1 1 1 1 1 1   1 1 1 1 1 1 1 2 3 2   3 2 3 2 3 4 5 6 4 5   6
 EXTRA SYMMETRY OF AOS IN SYMMETRY 7:   1 1 1 1 1 1 1 1 1 1   1 1 1 1 1 1 1 2 3 2   3 2 3 2 3 4 5 6 4 5   6
 EXTRA SYMMETRY OF AOS IN SYMMETRY 8:   1 1 1 1 1 2 3 2 3 2   3

 Eigenvalues of metric

         1 0.199E-05 0.951E-05 0.951E-05 0.294E-04 0.121E-03 0.307E-03 0.307E-03 0.364E-03
         2 0.984E-06 0.472E-03 0.163E-02 0.409E-02 0.952E-02 0.187E-01 0.302E-01 0.519E-01
         3 0.984E-06 0.472E-03 0.163E-02 0.409E-02 0.952E-02 0.187E-01 0.302E-01 0.519E-01
         4 0.951E-05 0.307E-03 0.302E-02 0.107E-01 0.287E-01 0.531E-01 0.105E+00 0.153E+00
         5 0.984E-06 0.472E-03 0.163E-02 0.409E-02 0.952E-02 0.187E-01 0.302E-01 0.519E-01
         6 0.951E-05 0.307E-03 0.302E-02 0.107E-01 0.287E-01 0.531E-01 0.105E+00 0.153E+00
         7 0.951E-05 0.307E-03 0.302E-02 0.107E-01 0.287E-01 0.531E-01 0.105E+00 0.153E+00
         8 0.127E+00 0.300E+00 0.300E+00 0.340E+00 0.792E+00 0.909E+00 0.909E+00 0.150E+01


 **********************************************************************************************************************************
 DATASETS  * FILE   NREC   LENGTH (MB)   RECORD NAMES
              1      22       21.02       500      610      700      900      950      970     1000      129      960     1700   
                                          VAR    BASINP    GEOM    SYMINP    ZMAT    AOBASIS   BASIS     P2S    ABASIS    OPER   
                                         1101     1401     1411     1412     1650     1100     1400     1410     1200     1210   
                                          SR      EKINR    POTR     PVPR    MOLCAS      S      EKIN      POT      H0       H01  
                                         1080     1600   
                                         AOSYM     SMH  

 PROGRAMS   *        TOTAL       INT
 CPU TIMES  *        35.88     35.07
 REAL TIME  *        42.30 SEC
 DISK USED  *         1.34 GB      
 GA USED    *         0.00 MB       (max)       0.00 MB       (current)
 **********************************************************************************************************************************


 PROGRAM * RHF-SCF (OPEN SHELL)       Authors: W. Meyer, H.-J. Werner


 NUMBER OF ELECTRONS:      24+   23-    SPACE SYMMETRY=1    SPIN SYMMETRY: Doublet 
 CONVERGENCE THRESHOLDS:    1.00E-05 (Density)    1.00E-07 (Energy)
 MAX. NUMBER OF ITERATIONS:       60
 INTERPOLATION TYPE:            DIIS
 INTERPOLATION STEPS:              2 (START)      1 (STEP)
 LEVEL SHIFTS:                 -0.60 (CLOSED) -0.30 (OPEN) 

 Number of closed-shell orbitals:   23 (   8   3   3   2   3   2   2   0 )
 Number of open-shell orbitals:      1 (   1   0   0   0   0   0   0   0 )


 
 Extra symmetries of mos in symmetry 1:   1   1   1   1   3   2   3   2   1
 Orbital guess generated from atomic densities. Full valence occupancy:    9   3   3   2   3   2   2   0


 Molecular orbital dump at record        4202.2

 ITERATION    DDIFF          GRAD             ENERGY        2-EL.EN.            DIPOLE MOMENTS         DIIS   ORB.
    1      0.000D+00      0.000D+00     -5023.98517325   3365.298918    0.00000    0.00000    0.00000    0    start
    2      0.000D+00      0.911D-01     -5034.63813869   4182.216269    0.00000    0.00000    0.00000    1    diag,B
    3      0.695D+00      0.136D+00     -5039.94595187   4041.658736    0.00000    0.00000    0.00000    2    diag,B
    4      0.327D+00      0.626D-01     -5042.28243614   3930.028370    0.00000    0.00000    0.00000    3    diag,B
    5      0.257D+00      0.194D-01     -5042.72460554   3875.179412    0.00000    0.00000    0.00000    4    diag,B
    6      0.244D-01      0.404D-02     -5042.78528474   3856.260163    0.00000    0.00000    0.00000    5    diag,B
    7      0.168D-01      0.392D-02     -5042.80448169   3857.739453    0.00000    0.00000    0.00000    6    fixocc
    8      0.633D-02      0.214D-02     -5042.81694141   3858.486689    0.00000    0.00000    0.00000    7    diag,B
    9      0.499D-02      0.977D-03     -5042.82299608   3859.007807    0.00000    0.00000    0.00000    8    diag,B
   10      0.250D-02      0.550D-03     -5042.82892029   3858.424352    0.00000    0.00000    0.00000    9    orth
   11      0.510D-02      0.209D-03     -5042.83021249   3858.263711    0.00000    0.00000    0.00000    9    diag,B
   12      0.352D-02      0.140D-03     -5042.83138902   3857.438354    0.00000    0.00000    0.00000    9    diag,B
   13      0.625D-02      0.912D-04     -5042.83210998   3856.300465    0.00000    0.00000    0.00000    9    diag,B
   14      0.116D-01      0.285D-04     -5042.83213860   3856.062700    0.00000    0.00000    0.00000    9    diag,B
   15      0.254D-02      0.119D-04     -5042.83214011   3856.043048    0.00000    0.00000    0.00000    9    diag,B
   16      0.171D-03      0.397D-05     -5042.83214026   3856.041169    0.00000    0.00000    0.00000    9    diag,B
   17      0.694D-04      0.142D-05     -5042.83214028   3856.043741    0.00000    0.00000    0.00000    9    diag,B
   18      0.293D-04      0.773D-06     -5042.83214028   3856.044850    0.00000    0.00000    0.00000    9    diag,B
   19      0.187D-04      0.266D-06     -5042.83214028   3856.045441    0.00000    0.00000    0.00000    9    diag,B
   20      0.479D-05      0.143D-06     -5042.83214028   3856.045423    0.00000    0.00000    0.00000    0    orth

 Final alpha occupancy:   9   3   3   2   3   2   2   0
 Final beta  occupancy:   8   3   3   2   3   2   2   0

 !RHF STATE 1.1 Energy              -5042.832140283764
 Nuclear energy                         0.00000000
 One-electron energy                -6970.85485160
 Two-electron energy                 1928.02271131
 Virial quotient                       -0.88522426
 !RHF STATE 1.1 Dipole moment           0.00000000     0.00000000     0.00000000
 Dipole moment /Debye                   0.00000000     0.00000000     0.00000000

 ELECTRON ORBITALS
 =================


   Orb  Occ    Energy  Couls-En    Coefficients

                                   1 1s      1 1s      1 1s      1 1s      1 1s      1 1s      1 1s      1 1s      1 1s      1 1s   
                                   1 1s      1 1s      1 1s      1 1s      1 1s      1 1s      1 1s      1 1s      1 1s      1 1s   
                                   1 1s      1 1s      1 1s      1 1s      1 1s      1 1s      1 1s      1 1s      1 1s      1 3d0  
                                   1 3d2+    1 3d0     1 3d2+    1 3d0     1 3d2+    1 3d0     1 3d2+    1 3d0     1 3d2+    1 3d0  
                                   1 3d2+    1 3d0     1 3d2+    1 3d0     1 3d2+    1 3d0     1 3d2+    1 3d0     1 3d2+    1 3d0  
                                   1 3d2+    1 3d0     1 3d2+    1 3d0     1 3d2+    1 3d0     1 3d2+    1 3d0     1 3d2+    1 3d0  
                                   1 3d2+    1 3d0     1 3d2+    1 5g0     1 5g4+    1 5g2+    1 5g0     1 5g4+    1 5g2+    1 5g0  
                                   1 5g4+    1 5g2+    1 5g0     1 5g4+    1 5g2+    1 7i6+    1 7i4+    1 7i2+    1 7i0     1 7i6+ 
                                   1 7i4+    1 7i2+    1 7i0  

   1.1   2  -899.2618-1988.6702  0.000046  0.000124  0.000340  0.000773  0.001639  0.003295  0.006546  0.013057  0.026532  0.054579
                                 0.110501  0.205002  0.307349  0.298274  0.132330  0.014616  0.001276 -0.000744  0.000703 -0.001328
                                -0.001270  0.000633  0.000083 -0.000009  0.000006 -0.000003  0.001926 -0.000453  0.000001  0.000000
                                -0.000000  0.000000 -0.000000  0.000000 -0.000000 -0.000000  0.000000 -0.000000 -0.000000  0.000000
                                 0.000000 -0.000000 -0.000000  0.000000 -0.000000 -0.000000  0.000000 -0.000000  0.000000 -0.000000
                                 0.000000  0.000000 -0.000000 -0.000000  0.000000  0.000000 -0.000000  0.000000 -0.000000  0.000000
                                -0.000000 -0.000000  0.000000 -0.000000  0.000000 -0.000000 -0.000000 -0.000000  0.000000  0.000000
                                 0.000000 -0.000000 -0.000000 -0.000000  0.000000 -0.000000 -0.000000 -0.000000 -0.000000 -0.000000
                                 0.000000  0.000000 -0.000000

   2.1   2  -134.2203 -406.1285 -0.000016 -0.000042 -0.000115 -0.000262 -0.000556 -0.001121 -0.002240 -0.004506 -0.009296 -0.019598
                                -0.041574 -0.084086 -0.149194 -0.189652 -0.071668  0.299491  0.551630  0.287944  0.038644  0.001549
                                -0.000552  0.000283  0.000036 -0.000010  0.000007 -0.000003  0.000597 -0.000317  0.000001 -0.000000
                                 0.000000 -0.000000 -0.000000 -0.000000  0.000000 -0.000000  0.000000 -0.000000  0.000000 -0.000000
                                -0.000000 -0.000000  0.000000  0.000000  0.000000 -0.000000 -0.000000 -0.000000 -0.000000 -0.000000
                                -0.000000  0.000000  0.000000 -0.000000 -0.000000  0.000000 -0.000000  0.000000  0.000000  0.000000
                                 0.000000 -0.000000 -0.000000  0.000000 -0.000000  0.000000 -0.000000  0.000000  0.000000  0.000000
                                -0.000000 -0.000000 -0.000000  0.000000  0.000000  0.000000  0.000000 -0.000000  0.000000 -0.000000
                                -0.000000  0.000000  0.000000

   3.1   2   -25.3726 -138.0375  0.000007  0.000018  0.000050  0.000113  0.000241  0.000486  0.000972  0.001956  0.004047  0.008552
                                 0.018291  0.037403  0.068266  0.090461  0.036104 -0.198039 -0.491077 -0.313983  0.426380  0.791373
                                 0.249131 -0.042955 -0.006029  0.000933 -0.000626  0.000285 -0.070911  0.037669 -0.000079  0.000000
                                -0.000000  0.000000  0.000000  0.000000 -0.000000  0.000000  0.000000  0.000000 -0.000000  0.000000
                                 0.000000  0.000000 -0.000000 -0.000000  0.000000 -0.000000 -0.000000  0.000000 -0.000000  0.000000
                                -0.000000 -0.000000  0.000000  0.000000 -0.000000 -0.000000  0.000000 -0.000000  0.000000 -0.000000
                                 0.000000  0.000000 -0.000000  0.000000 -0.000000  0.000000 -0.000000  0.000000 -0.000000  0.000000
                                -0.000000  0.000000 -0.000000  0.000000 -0.000000  0.000000  0.000000 -0.000000 -0.000000 -0.000000
                                -0.000000  0.000000 -0.000000

   4.1   2    -3.6799  -54.4599 -0.000003 -0.000007 -0.000021 -0.000047 -0.000099 -0.000200 -0.000401 -0.000806 -0.001670 -0.003528
                                -0.007565 -0.015483 -0.028462 -0.037919 -0.015565  0.089201  0.232945  0.161845 -0.272209 -0.747694
                                -0.060591  0.831142  0.526268  0.037745 -0.016738  0.006976 -0.045210 -0.021506 -0.001825 -0.000000
                                -0.000000 -0.000000  0.000000 -0.000000  0.000000 -0.000000  0.000000 -0.000000  0.000000 -0.000000
                                 0.000000 -0.000000  0.000000 -0.000000  0.000000  0.000000  0.000000  0.000000  0.000000  0.000000
                                -0.000000  0.000000 -0.000000 -0.000000 -0.000000 -0.000000  0.000000 -0.000000 -0.000000  0.000000
                                -0.000000  0.000000 -0.000000 -0.000000  0.000000 -0.000000 -0.000000 -0.000000 -0.000000  0.000000
                                 0.000000  0.000000  0.000000 -0.000000 -0.000000 -0.000000  0.000000  0.000000  0.000000  0.000000
                                -0.000000 -0.000000 -0.000000

   5.1   2   -13.0345 -117.3561 -0.000000 -0.000000 -0.000000 -0.000000 -0.000000 -0.000000 -0.000000 -0.000000 -0.000000 -0.000000
                                -0.000000 -0.000000 -0.000000 -0.000000 -0.000000  0.000000  0.000000  0.000000 -0.000000 -0.000000
                                 0.000000 -0.000000 -0.000000 -0.000000  0.000000 -0.000000  0.000000  0.000000 -0.000000 -0.000000
                                 0.000149 -0.000000  0.001306 -0.000001  0.007849 -0.000002  0.032020 -0.000007  0.097065 -0.000015
                                 0.216171 -0.000023  0.332342 -0.000023  0.338163 -0.000013  0.182682 -0.000003  0.044648 -0.000000
                                 0.004841  0.000000 -0.000071 -0.000000  0.000061  0.000000 -0.000017  0.000000 -0.005862  0.000000
                                -0.004758 -0.000000  0.000005  0.000000 -0.000000 -0.000000 -0.000000  0.000000  0.000000  0.000000
                                -0.000000 -0.000000 -0.000000  0.000000  0.000000 -0.000000  0.000000  0.000000 -0.000000  0.000000
                                -0.000000 -0.000000  0.000000

   6.1   2   -13.0345 -117.3561  0.000000  0.000000  0.000000  0.000000  0.000000  0.000000  0.000000  0.000000  0.000000  0.000000
                                 0.000000  0.000000  0.000000  0.000000  0.000000 -0.000000 -0.000000 -0.000000  0.000000  0.000000
                                -0.000000 -0.000000 -0.000000  0.000000 -0.000000 -0.000000 -0.000000  0.000000  0.000000  0.000149
                                 0.000000  0.001306  0.000000  0.007849  0.000001  0.032020  0.000002  0.097065  0.000007  0.216171
                                 0.000015  0.332342  0.000023  0.338163  0.000023  0.182682  0.000013  0.044648  0.000003  0.004841
                                 0.000000 -0.000071 -0.000000  0.000061  0.000000 -0.000017 -0.000000 -0.005862 -0.000000 -0.004758
                                -0.000000  0.000005  0.000000 -0.000000  0.000000 -0.000000  0.000000 -0.000000  0.000000 -0.000000
                                 0.000000 -0.000000  0.000000  0.000000  0.000000  0.000000  0.000000  0.000000  0.000000 -0.000000
                                -0.000000 -0.000000 -0.000000

   7.1   2    -0.1648  -34.4475 -0.000000 -0.000000 -0.000000 -0.000000 -0.000000 -0.000000 -0.000000 -0.000000 -0.000000 -0.000000
                                -0.000000 -0.000000 -0.000000 -0.000000 -0.000000  0.000000  0.000000  0.000000 -0.000000 -0.000000
                                 0.000000  0.000000  0.000000 -0.000000 -0.000000 -0.000000 -0.000000  0.000000  0.000000 -0.000000
                                -0.000044 -0.000000 -0.000388 -0.000001 -0.002339 -0.000004 -0.009609 -0.000011 -0.029454 -0.000025
                                -0.066233 -0.000037 -0.098577 -0.000034 -0.088782  0.000014  0.038013  0.000093  0.244124  0.000137
                                 0.360181  0.000124  0.326181  0.000082  0.215595  0.000031  0.082854  0.000002  0.006529  0.000002
                                 0.004601  0.000004  0.009496  0.000000 -0.000000 -0.000000  0.000000 -0.000000  0.000000  0.000000
                                -0.000000  0.000000  0.000000  0.000000  0.000000 -0.000000  0.000000  0.000000  0.000000 -0.000000
                                -0.000000 -0.000000 -0.000000

   8.1   2    -0.1648  -34.4474 -0.000000 -0.000000 -0.000000 -0.000000 -0.000000 -0.000000 -0.000000 -0.000000 -0.000000 -0.000000
                                -0.000000 -0.000000 -0.000000 -0.000000 -0.000000  0.000001  0.000002  0.000001 -0.000002 -0.000008
                                -0.000002  0.000014  0.000012 -0.000008 -0.000019 -0.000026  0.000001 -0.000003  0.000011 -0.000044
                                 0.000000 -0.000388  0.000000 -0.002339  0.000001 -0.009609  0.000004 -0.029454  0.000011 -0.066233
                                 0.000025 -0.098577  0.000037 -0.088782  0.000034  0.038013 -0.000014  0.244127 -0.000093  0.360183
                                -0.000137  0.326180 -0.000124  0.215597 -0.000082  0.082852 -0.000031  0.006526 -0.000002  0.004597
                                -0.000002  0.009497 -0.000004 -0.000000  0.000000  0.000000  0.000000 -0.000000 -0.000000  0.000000
                                -0.000000 -0.000000  0.000000  0.000000 -0.000000  0.000000  0.000000 -0.000000  0.000000 -0.000000
                                -0.000000  0.000000 -0.000000

   9.1   +     0.0081   -8.2264  0.000000  0.000001  0.000002  0.000004  0.000009  0.000019  0.000038  0.000076  0.000160  0.000332
                                 0.000727  0.001449  0.002761  0.003471  0.001831 -0.009423 -0.020544 -0.020871  0.041092  0.018072
                                -0.180588  0.164004  0.027324 -0.133242  0.493631 -0.657886  0.176089 -0.314020  1.325644 -0.000000
                                -0.000000 -0.000000 -0.000000 -0.000000 -0.000000 -0.000000 -0.000000 -0.000001 -0.000000 -0.000001
                                -0.000000 -0.000002 -0.000000 -0.000002  0.000000  0.000000 -0.000000 -0.000001 -0.000000  0.000002
                                -0.000000  0.000009  0.000000  0.000003  0.000000  0.000010  0.000000  0.000005  0.000000  0.000007
                                 0.000000 -0.000010  0.000000 -0.000000  0.000000  0.000000  0.000000 -0.000000 -0.000000  0.000000
                                 0.000000  0.000000  0.000000 -0.000000 -0.000000  0.000000  0.000000  0.000000  0.000000 -0.000000
                                -0.000000 -0.000000 -0.000000

  10.1   0     0.1558   -8.0017 -0.000000 -0.000001 -0.000002 -0.000005 -0.000011 -0.000023 -0.000046 -0.000096 -0.000188 -0.000426
                                -0.000833 -0.001912 -0.003009 -0.005160  0.000058  0.005889  0.038659 -0.007549  0.040117 -0.450086
                                -1.011657  1.711832  0.872908 -0.842032  1.945450 -3.959287  0.934478 -1.787678  2.469019  0.000000
                                -0.000000  0.000000 -0.000000  0.000000 -0.000000  0.000000 -0.000000  0.000001 -0.000000  0.000002
                                -0.000000  0.000002 -0.000000  0.000002 -0.000000 -0.000001  0.000000 -0.000005  0.000000 -0.000007
                                 0.000000 -0.000008 -0.000000 -0.000005  0.000000 -0.000005 -0.000000 -0.000001 -0.000000 -0.000001
                                -0.000000 -0.000002  0.000000  0.000000  0.000000  0.000000 -0.000000 -0.000000 -0.000000 -0.000000
                                 0.000000  0.000000 -0.000000 -0.000000  0.000000  0.000000  0.000000  0.000000 -0.000000 -0.000000
                                -0.000000 -0.000000  0.000000

  11.1   0     0.2066   -5.8406  0.000000  0.000000  0.000000  0.000000  0.000000  0.000000  0.000000  0.000000  0.000000  0.000000
                                 0.000000  0.000000  0.000000  0.000000  0.000000 -0.000000 -0.000000 -0.000000  0.000001 -0.000002
                                -0.000005  0.000008  0.000003 -0.000004  0.000011 -0.000019  0.000005 -0.000009  0.000017  0.000005
                                -0.000000  0.000026 -0.000000  0.000244 -0.000000  0.000666 -0.000000  0.003118 -0.000001  0.004086
                                -0.000002  0.013305 -0.000005 -0.007260  0.000003  0.072717 -0.000029  0.667810 -0.000268  0.561153
                                -0.000225 -0.227466  0.000091  0.231358 -0.000093 -0.560596  0.000225 -0.494713  0.000198 -0.749204
                                 0.000300  1.293139 -0.000518 -0.000000  0.000000  0.000000  0.000000 -0.000000 -0.000000 -0.000000
                                 0.000000  0.000000  0.000000 -0.000000 -0.000000  0.000000  0.000000  0.000000 -0.000000  0.000000
                                -0.000000 -0.000000  0.000000

                                   1 2px     1 2px     1 2px     1 2px     1 2px     1 2px     1 2px     1 2px     1 2px     1 2px  
                                   1 2px     1 2px     1 2px     1 2px     1 2px     1 2px     1 2px     1 2px     1 2px     1 2px  
                                   1 2px     1 2px     1 2px     1 4f1+    1 4f3+    1 4f1+    1 4f3+    1 4f1+    1 4f3+    1 4f1+ 
                                   1 4f3+    1 4f1+    1 4f3+    1 6h1+    1 6h3+    1 6h5+    1 6h1+    1 6h3+    1 6h5+    1 6h1+ 
                                   1 6h3+    1 6h5+ 

   1.2   2  -120.1114 -385.8699  0.000016  0.000054  0.000200  0.000696  0.002412  0.008101  0.025348  0.070735  0.164495  0.293932
                                 0.350427  0.217597  0.052916  0.004357 -0.004346 -0.000351 -0.000044  0.000006 -0.000005  0.000002
                                 0.004596  0.000043 -0.000001 -0.000000 -0.000000 -0.000000 -0.000000 -0.000000  0.000000  0.000000
                                 0.000000 -0.000000 -0.000000  0.000000  0.000000 -0.000000 -0.000000 -0.000000 -0.000000  0.000000
                                -0.000000  0.000000

   2.2   2   -20.6072 -129.5428 -0.000007 -0.000024 -0.000090 -0.000314 -0.001093 -0.003696 -0.011697 -0.033438 -0.080738 -0.152271
                                -0.187120 -0.037727  0.293527  0.498941  0.346535  0.048590  0.000620  0.000030  0.000027 -0.000009
                                -0.060229  0.001998  0.000003 -0.000000  0.000000  0.000000 -0.000000 -0.000000 -0.000000  0.000000
                                 0.000000 -0.000000 -0.000000  0.000000  0.000000 -0.000000 -0.000000  0.000000 -0.000000  0.000000
                                -0.000000  0.000000

   3.2   2    -2.2404  -48.7223  0.000003  0.000009  0.000035  0.000122  0.000424  0.001434  0.004558  0.013054  0.031833  0.060444
                                 0.075305  0.005223 -0.154275 -0.303938 -0.095904  0.356741  0.294749  0.043200 -0.004241  0.002575
                                -0.043505  0.531896 -0.000707  0.000000 -0.000000  0.000000  0.000000  0.000000 -0.000000 -0.000000
                                -0.000000 -0.000000 -0.000000  0.000000 -0.000000 -0.000000 -0.000000  0.000000  0.000000  0.000000
                                -0.000000 -0.000000

   4.2   0     0.1058   -4.3947 -0.000000 -0.000000 -0.000001 -0.000002 -0.000006 -0.000027 -0.000060 -0.000261 -0.000384 -0.001366
                                -0.000282 -0.002452  0.008837 -0.015216  0.471948  0.060398  0.058057 -0.116570  0.316581 -0.755433
                                -0.494625 -0.066582  1.426386  0.000000 -0.000000 -0.000000  0.000000  0.000000 -0.000000 -0.000000
                                 0.000000  0.000000  0.000000 -0.000000  0.000000  0.000000  0.000000 -0.000000  0.000000  0.000000
                                -0.000000 -0.000000

   5.2   0     0.2064   -7.5047 -0.000000 -0.000001 -0.000003 -0.000008 -0.000032 -0.000093 -0.000358 -0.000816 -0.002591 -0.003417
                                -0.007626  0.005346 -0.003463  0.071072 -1.109242 -0.191706 -0.181371  0.322218 -0.746327  2.126215
                                 1.178070  0.086444 -1.084040 -0.000000  0.000000 -0.000000  0.000000 -0.000000 -0.000000 -0.000000
                                 0.000000  0.000001 -0.000000 -0.000000  0.000000  0.000000  0.000000 -0.000000 -0.000000 -0.000000
                                -0.000000 -0.000000

                                   1 2py     1 2py     1 2py     1 2py     1 2py     1 2py     1 2py     1 2py     1 2py     1 2py  
                                   1 2py     1 2py     1 2py     1 2py     1 2py     1 2py     1 2py     1 2py     1 2py     1 2py  
                                   1 2py     1 2py     1 2py     1 4f1-    1 4f3-    1 4f1-    1 4f3-    1 4f1-    1 4f3-    1 4f1- 
                                   1 4f3-    1 4f1-    1 4f3-    1 6h1-    1 6h3-    1 6h5-    1 6h1-    1 6h3-    1 6h5-    1 6h1- 
                                   1 6h3-    1 6h5- 

   1.3   2  -120.1114 -385.8699  0.000016  0.000054  0.000200  0.000696  0.002412  0.008101  0.025348  0.070735  0.164495  0.293932
                                 0.350427  0.217597  0.052916  0.004357 -0.004346 -0.000351 -0.000044  0.000006 -0.000005  0.000002
                                 0.004596  0.000043 -0.000001 -0.000000  0.000000 -0.000000  0.000000 -0.000000 -0.000000  0.000000
                                -0.000000 -0.000000  0.000000  0.000000  0.000000 -0.000000 -0.000000  0.000000  0.000000  0.000000
                                -0.000000 -0.000000

   2.3   2   -20.6072 -129.5428 -0.000007 -0.000024 -0.000090 -0.000314 -0.001093 -0.003696 -0.011697 -0.033438 -0.080738 -0.152271
                                -0.187120 -0.037727  0.293527  0.498941  0.346535  0.048590  0.000620  0.000030  0.000027 -0.000009
                                -0.060229  0.001998  0.000003 -0.000000 -0.000000  0.000000 -0.000000 -0.000000  0.000000  0.000000
                                -0.000000 -0.000000  0.000000  0.000000  0.000000 -0.000000 -0.000000  0.000000  0.000000  0.000000
                                -0.000000 -0.000000

   3.3   2    -2.2404  -48.7223  0.000003  0.000009  0.000035  0.000122  0.000424  0.001434  0.004558  0.013054  0.031833  0.060444
                                 0.075305  0.005223 -0.154275 -0.303938 -0.095904  0.356741  0.294749  0.043200 -0.004241  0.002575
                                -0.043505  0.531896 -0.000707  0.000000  0.000000  0.000000 -0.000000  0.000000  0.000000 -0.000000
                                 0.000000 -0.000000  0.000000  0.000000  0.000000  0.000000 -0.000000  0.000000 -0.000000  0.000000
                                 0.000000 -0.000000

   4.3   0     0.1058   -4.3947 -0.000000 -0.000000 -0.000001 -0.000002 -0.000006 -0.000027 -0.000060 -0.000261 -0.000384 -0.001366
                                -0.000282 -0.002452  0.008837 -0.015216  0.471948  0.060398  0.058057 -0.116570  0.316581 -0.755433
                                -0.494625 -0.066582  1.426386  0.000000  0.000000 -0.000000 -0.000000  0.000000  0.000000 -0.000000
                                -0.000000  0.000000 -0.000000 -0.000000  0.000000 -0.000000  0.000000  0.000000  0.000000  0.000000
                                -0.000000 -0.000000

   5.3   0     0.2064   -7.5047 -0.000000 -0.000001 -0.000003 -0.000008 -0.000032 -0.000093 -0.000358 -0.000816 -0.002591 -0.003417
                                -0.007626  0.005346 -0.003463  0.071072 -1.109242 -0.191706 -0.181371  0.322218 -0.746327  2.126215
                                 1.178070  0.086444 -1.084040 -0.000000  0.000000 -0.000000  0.000000 -0.000000  0.000000 -0.000000
                                -0.000000  0.000001  0.000000 -0.000000  0.000000 -0.000000  0.000000  0.000000  0.000000 -0.000000
                                -0.000000 -0.000000

                                   1 3d2-    1 3d2-    1 3d2-    1 3d2-    1 3d2-    1 3d2-    1 3d2-    1 3d2-    1 3d2-    1 3d2- 
                                   1 3d2-    1 3d2-    1 3d2-    1 3d2-    1 3d2-    1 3d2-    1 3d2-    1 5g2-    1 5g4-    1 5g2- 
                                   1 5g4-    1 5g2-    1 5g4-    1 5g2-    1 5g4-    1 7i2-    1 7i6-    1 7i4-    1 7i2-    1 7i6- 
                                   1 7i4- 

   1.4   2   -13.0345 -117.3561  0.000149  0.001306  0.007849  0.032020  0.097065  0.216171  0.332342  0.338163  0.182682  0.044648
                                 0.004841 -0.000071  0.000061 -0.000017 -0.005862 -0.004758  0.000005 -0.000000 -0.000000  0.000000
                                -0.000000 -0.000000  0.000000  0.000000 -0.000000  0.000000  0.000000  0.000000 -0.000000  0.000000
                                 0.000000

   2.4   2    -0.1648  -34.4475 -0.000044 -0.000388 -0.002339 -0.009609 -0.029454 -0.066233 -0.098577 -0.088782  0.038013  0.244124
                                 0.360181  0.326181  0.215595  0.082854  0.006529  0.004601  0.009496 -0.000000 -0.000000  0.000000
                                -0.000000  0.000000 -0.000000  0.000000  0.000000  0.000000  0.000000  0.000000 -0.000000  0.000000
                                -0.000000

   3.4   0     0.2066   -5.8406  0.000005  0.000026  0.000244  0.000666  0.003118  0.004086  0.013305 -0.007260  0.072718  0.667812
                                 0.561155 -0.227466  0.231359 -0.560597 -0.494715 -0.749206  1.293140 -0.000000  0.000000  0.000000
                                 0.000000 -0.000000  0.000000  0.000000 -0.000000 -0.000000  0.000000 -0.000000  0.000000  0.000000
                                 0.000000

   4.4   0     0.4787  -10.0046  0.000010  0.000131  0.000548  0.003178  0.006794  0.023316  0.014811  0.066191 -0.222367 -1.993191
                                -1.784365  0.489342 -0.864697  1.899945  1.372130  2.107170 -0.847578 -0.000000  0.000000  0.000000
                                -0.000000 -0.000000  0.000000  0.000001 -0.000000 -0.000000 -0.000000  0.000000  0.000000 -0.000000
                                -0.000000

                                   1 2pz     1 2pz     1 2pz     1 2pz     1 2pz     1 2pz     1 2pz     1 2pz     1 2pz     1 2pz  
                                   1 2pz     1 2pz     1 2pz     1 2pz     1 2pz     1 2pz     1 2pz     1 2pz     1 2pz     1 2pz  
                                   1 2pz     1 2pz     1 2pz     1 4f0     1 4f2+    1 4f0     1 4f2+    1 4f0     1 4f2+    1 4f0  
                                   1 4f2+    1 4f0     1 4f2+    1 6h2+    1 6h4+    1 6h0     1 6h2+    1 6h4+    1 6h0     1 6h2+ 
                                   1 6h4+    1 6h0  

   1.5   2  -120.1114 -385.8699  0.000016  0.000054  0.000200  0.000696  0.002412  0.008101  0.025348  0.070735  0.164495  0.293932
                                 0.350427  0.217597  0.052916  0.004357 -0.004346 -0.000351 -0.000044  0.000006 -0.000005  0.000002
                                 0.004596  0.000043 -0.000001 -0.000000  0.000000  0.000000 -0.000000 -0.000000  0.000000  0.000000
                                -0.000000 -0.000000  0.000000 -0.000000 -0.000000  0.000000  0.000000 -0.000000 -0.000000  0.000000
                                 0.000000  0.000000

   2.5   2   -20.6072 -129.5428 -0.000007 -0.000024 -0.000090 -0.000314 -0.001093 -0.003696 -0.011697 -0.033438 -0.080738 -0.152271
                                -0.187120 -0.037727  0.293527  0.498941  0.346534  0.048590  0.000620  0.000030  0.000027 -0.000009
                                -0.060229  0.001998  0.000003 -0.000000  0.000000  0.000000 -0.000000 -0.000000  0.000000  0.000000
                                -0.000000 -0.000000  0.000000  0.000000  0.000000  0.000000 -0.000000 -0.000000 -0.000000 -0.000000
                                 0.000000  0.000000

   3.5   2    -2.2404  -48.7223  0.000003  0.000009  0.000035  0.000122  0.000424  0.001434  0.004558  0.013054  0.031833  0.060444
                                 0.075305  0.005223 -0.154275 -0.303938 -0.095905  0.356741  0.294749  0.043200 -0.004242  0.002575
                                -0.043503  0.531897 -0.000707 -0.000000 -0.000000 -0.000000 -0.000000  0.000000 -0.000000  0.000000
                                 0.000000 -0.000000 -0.000000  0.000000  0.000000  0.000000  0.000000  0.000000 -0.000000 -0.000000
                                -0.000000  0.000000

   4.5   0     0.1058   -4.3947 -0.000000 -0.000000 -0.000001 -0.000002 -0.000006 -0.000027 -0.000060 -0.000261 -0.000384 -0.001366
                                -0.000282 -0.002452  0.008837 -0.015216  0.471951  0.060398  0.058057 -0.116571  0.316582 -0.755433
                                -0.494627 -0.066582  1.426386  0.000000  0.000000 -0.000000  0.000000  0.000000  0.000000 -0.000000
                                -0.000000  0.000000  0.000000 -0.000000  0.000000 -0.000000  0.000000  0.000000  0.000000 -0.000000
                                -0.000000  0.000000

   5.5   0     0.2064   -7.5047 -0.000000 -0.000001 -0.000003 -0.000008 -0.000032 -0.000093 -0.000358 -0.000816 -0.002591 -0.003417
                                -0.007626  0.005346 -0.003463  0.071072 -1.109238 -0.191705 -0.181370  0.322216 -0.746323  2.126212
                                 1.178066  0.086443 -1.084039 -0.000000  0.000000 -0.000000  0.000000 -0.000000  0.000000 -0.000000
                                -0.000000  0.000002  0.000000 -0.000000  0.000000 -0.000000  0.000000  0.000000  0.000000 -0.000000
                                -0.000000 -0.000000

                                   1 3d1+    1 3d1+    1 3d1+    1 3d1+    1 3d1+    1 3d1+    1 3d1+    1 3d1+    1 3d1+    1 3d1+ 
                                   1 3d1+    1 3d1+    1 3d1+    1 3d1+    1 3d1+    1 3d1+    1 3d1+    1 5g1+    1 5g3+    1 5g1+ 
                                   1 5g3+    1 5g1+    1 5g3+    1 5g1+    1 5g3+    1 7i5+    1 7i3+    1 7i1+    1 7i5+    1 7i3+ 
                                   1 7i1+ 

   1.6   2   -13.0345 -117.3561  0.000149  0.001306  0.007849  0.032020  0.097065  0.216171  0.332342  0.338163  0.182682  0.044648
                                 0.004841 -0.000071  0.000061 -0.000017 -0.005862 -0.004758  0.000005 -0.000000 -0.000000  0.000000
                                 0.000000 -0.000000 -0.000000  0.000000 -0.000000  0.000000 -0.000000  0.000000 -0.000000 -0.000000
                                -0.000000

   2.6   2    -0.1649  -34.4475 -0.000044 -0.000388 -0.002339 -0.009609 -0.029454 -0.066233 -0.098577 -0.088782  0.038013  0.244123
                                 0.360180  0.326182  0.215594  0.082853  0.006530  0.004602  0.009495 -0.000000 -0.000000  0.000000
                                -0.000000  0.000000 -0.000000  0.000000 -0.000000  0.000000 -0.000000  0.000000  0.000000 -0.000000
                                -0.000000

   3.6   0     0.2066   -5.8406  0.000005  0.000026  0.000244  0.000666  0.003118  0.004086  0.013305 -0.007261  0.072717  0.667811
                                 0.561154 -0.227465  0.231358 -0.560596 -0.494713 -0.749204  1.293139 -0.000000  0.000000  0.000000
                                -0.000000 -0.000000 -0.000000  0.000000 -0.000000 -0.000000  0.000000 -0.000000  0.000000 -0.000000
                                 0.000000

   4.6   0     0.4787  -10.0046  0.000010  0.000131  0.000548  0.003178  0.006794  0.023316  0.014811  0.066190 -0.222367 -1.993186
                                -1.784361  0.489341 -0.864696  1.899945  1.372127  2.107166 -0.847578 -0.000000 -0.000000  0.000000
                                 0.000000 -0.000000  0.000000  0.000001 -0.000000 -0.000000 -0.000000 -0.000000  0.000000  0.000000
                                 0.000000

                                   1 3d1-    1 3d1-    1 3d1-    1 3d1-    1 3d1-    1 3d1-    1 3d1-    1 3d1-    1 3d1-    1 3d1- 
                                   1 3d1-    1 3d1-    1 3d1-    1 3d1-    1 3d1-    1 3d1-    1 3d1-    1 5g1-    1 5g3-    1 5g1- 
                                   1 5g3-    1 5g1-    1 5g3-    1 5g1-    1 5g3-    1 7i5-    1 7i3-    1 7i1-    1 7i5-    1 7i3- 
                                   1 7i1- 

   1.7   2   -13.0345 -117.3561  0.000149  0.001306  0.007849  0.032020  0.097065  0.216171  0.332342  0.338163  0.182682  0.044648
                                 0.004841 -0.000071  0.000061 -0.000017 -0.005862 -0.004758  0.000005 -0.000000  0.000000  0.000000
                                -0.000000 -0.000000  0.000000  0.000000  0.000000 -0.000000  0.000000  0.000000  0.000000  0.000000
                                -0.000000

   2.7   2    -0.1649  -34.4475 -0.000044 -0.000388 -0.002339 -0.009609 -0.029454 -0.066233 -0.098577 -0.088782  0.038013  0.244123
                                 0.360180  0.326182  0.215594  0.082853  0.006530  0.004602  0.009495 -0.000000  0.000000  0.000000
                                 0.000000  0.000000 -0.000000  0.000000  0.000000  0.000000  0.000000  0.000000  0.000000  0.000000
                                -0.000000

   3.7   0     0.2066   -5.8406  0.000005  0.000026  0.000244  0.000666  0.003118  0.004086  0.013305 -0.007261  0.072717  0.667811
                                 0.561154 -0.227465  0.231358 -0.560596 -0.494713 -0.749204  1.293139 -0.000000 -0.000000  0.000000
                                 0.000000 -0.000000  0.000000  0.000000 -0.000000 -0.000000 -0.000000 -0.000000 -0.000000  0.000000
                                 0.000000

   4.7   0     0.4787  -10.0046  0.000010  0.000131  0.000548  0.003178  0.006794  0.023316  0.014811  0.066190 -0.222367 -1.993186
                                -1.784361  0.489341 -0.864696  1.899945  1.372127  2.107166 -0.847578 -0.000000  0.000000  0.000000
                                -0.000000 -0.000000  0.000000  0.000001  0.000000 -0.000000  0.000000 -0.000000  0.000000 -0.000000
                                 0.000000

                                   1 4f2-    1 4f2-    1 4f2-    1 4f2-    1 4f2-    1 6h4-    1 6h2-    1 6h4-    1 6h2-    1 6h4- 
                                   1 6h2- 

   1.8   0     0.6473   -9.9525  0.007031 -0.010158  0.085776 -0.223155  1.110967 -0.000000  0.000000  0.000000 -0.000000 -0.000000
                                 0.000000

   2.8   0     1.5208  -16.9944  0.017194  0.117881 -0.034119  1.233118 -0.615451 -0.000000  0.000000 -0.000000 -0.000000 -0.000000
                                 0.000001

 HOMO      9.1     0.008066 =       0.2195eV
 LUMO      4.5     0.105844 =       2.8802eV
 LUMO-HOMO         0.097778 =       2.6607eV


 **********************************************************************************************************************************
 DATASETS  * FILE   NREC   LENGTH (MB)   RECORD NAMES
              1      22       21.02       500      610      700      900      950      970     1000      129      960     1700   
                                          VAR    BASINP    GEOM    SYMINP    ZMAT    AOBASIS   BASIS     P2S    ABASIS    OPER   
                                         1101     1401     1411     1412     1650     1100     1400     1410     1200     1210   
                                          SR      EKINR    POTR     PVPR    MOLCAS      S      EKIN      POT      H0       H01  
                                         1080     1600   
                                         AOSYM     SMH  

              2       5        5.82       200      700     1000      520     4202   
                                        OPTIONS   GEOM     BASIS   MCVARS     RHF  

 PROGRAMS   *        TOTAL       RHF       INT
 CPU TIMES  *        38.31      2.43     35.07
 REAL TIME  *        47.59 SEC
 DISK USED  *         2.02 GB      
 SF USED    *         0.06 MB      
 GA USED    *         0.00 MB       (max)       0.00 MB       (current)
 **********************************************************************************************************************************


 PROGRAM * POP (Mulliken population analysis)

 
 Density matrix read from record         4202.2  Type=RHF/CHARGE (state 1.1)
 
 Population analysis by basis function type

 Unique atom        s        p        d        f        g    Total    Charge
   1  PD      9.00000 18.00000 20.00000  0.00000  0.00000 47.00000  - 1.00000


 **********************************************************************************************************************************
 DATASETS  * FILE   NREC   LENGTH (MB)   RECORD NAMES
              1      22       21.02       500      610      700      900      950      970     1000      129      960     1700   
                                          VAR    BASINP    GEOM    SYMINP    ZMAT    AOBASIS   BASIS     P2S    ABASIS    OPER   
                                         1101     1401     1411     1412     1650     1100     1400     1410     1200     1210   
                                          SR      EKINR    POTR     PVPR    MOLCAS      S      EKIN      POT      H0       H01  
                                         1080     1600   
                                         AOSYM     SMH  

              2       5        5.82       200      700     1000      520     4202   
                                        OPTIONS   GEOM     BASIS   MCVARS     RHF  

 PROGRAMS   *        TOTAL       POP       RHF       INT
 CPU TIMES  *        38.31      0.00      2.43     35.07
 REAL TIME  *        47.63 SEC
 DISK USED  *         2.02 GB      
 SF USED    *         0.06 MB      
 GA USED    *         0.00 MB       (max)       0.00 MB       (current)
 **********************************************************************************************************************************


 PROGRAM * MULTI (Direct Multiconfiguration SCF)       Authors: P.J. Knowles, H.-J. Werner (1984)     S.T. Elbert (1988)


 Number of closed-shell orbitals:  23 (   8   3   3   2   3   2   2   0 )
 Number of active  orbitals:        1 (   1   0   0   0   0   0   0   0 )
 Number of external orbitals:     289 (  74  39  39  29  39  29  29  11 )

 State symmetry 1

 Number of electrons:     1    Spin symmetry=Doublet   Space symmetry=1
 Number of states:        1
 Number of CSFs:          1   (1 determinants, 1 intermediate states)

 Molecular orbitals read from record     4202.2  Type=RHF/CANONICAL (state 1.1)
 *** IN SYMMETRY 1 ORBITAL  5 SYMMETRY CONTAMINATION OF 0.686D-04 HAS BEEN REMOVED
 *** IN SYMMETRY 1 ORBITAL  6 SYMMETRY CONTAMINATION OF 0.690D-04 HAS BEEN REMOVED
 *** IN SYMMETRY 1 ORBITAL  7 SYMMETRY CONTAMINATION OF 0.380D-03 HAS BEEN REMOVED
 *** IN SYMMETRY 1 ORBITAL  8 SYMMETRY CONTAMINATION OF 0.450D-03 HAS BEEN REMOVED
 *** IN SYMMETRY 1 ORBITAL  9 SYMMETRY CONTAMINATION OF 0.154D-04 HAS BEEN REMOVED

 EXTRA SYMMETRY OF MOS IN SYMMETRY 1:   1 1 1 1 3 2 3 2 1 1   2 3 1 2 3 1 2 3 4 6   5 1 2 3 4 6 5 2 3 1   4 6 510 9 8 7 2 3 1
                                        4 6 510 9 8 7 2 3 1   2 3 2 3 1 3 2 1 3 2   1 3 2 1 3 2 1 2 3 1   1 2 3 1 1 1 1 1 1 1
                                        1 1 1
 EXTRA SYMMETRY OF MOS IN SYMMETRY 2:   1 1 1 1 1 1 2 3 1 2   3 4 5 6 1 2 3 4 5 6   2 3 1 4 5 6 3 2 1 1   1 1 1 1 1 1 1 1 1 1
                                        1 1
 EXTRA SYMMETRY OF MOS IN SYMMETRY 3:   1 1 1 1 1 1 2 3 1 2   3 4 5 6 1 2 3 4 5 6   2 3 1 4 5 6 3 2 1 1   1 1 1 1 1 1 1 1 1 1
                                        1 1
 EXTRA SYMMETRY OF MOS IN SYMMETRY 4:   1 1 1 1 1 2 3 1 2 3   1 2 3 4 6 5 1 2 3 4   6 5 1 1 1 1 1 1 1 1   1
 EXTRA SYMMETRY OF MOS IN SYMMETRY 5:   1 1 1 1 1 1 2 3 1 2   3 6 4 5 1 2 3 6 4 5   2 3 1 6 4 5 3 2 1 1   1 1 1 1 1 1 1 1 1 1
                                        1 1
 EXTRA SYMMETRY OF MOS IN SYMMETRY 6:   1 1 1 1 1 2 3 1 2 3   1 2 3 6 5 4 1 2 3 6   5 4 1 1 1 1 1 1 1 1   1
 EXTRA SYMMETRY OF MOS IN SYMMETRY 7:   1 1 1 1 1 2 3 1 2 3   1 2 3 6 5 4 1 2 3 6   5 4 1 1 1 1 1 1 1 1   1
 EXTRA SYMMETRY OF MOS IN SYMMETRY 8:   1 1 3 2 1 3 2 1 3 2   1

 Wavefunction dump at record             5202.2

 Convergence thresholds  0.10E-01 (gradient)  0.10E-05 (energy)  0.10E-02 (step length)

 Number of orbital rotations:     1199   (     8 Core/Active   1117 Core/Virtual   0 Active/Active     74 Active/Virtual)
 Total number of variables:       1200


 ITER. MIC  NCI  NEG     ENERGY(VAR)     ENERGY(PROJ)   ENERGY CHANGE     GRAD(0)  GRAD(ORB)   GRAD(CI)     STEP       TIME

   1   30    4    0   -5042.83214028   -5042.83214028   -0.00000000    0.00000537 0.00000000 0.00000000  0.24D-04      3.29

 ** WVFN ****  CONVERGENCE REACHED, FINAL GRADIENT:  0.19D-09


 First order charge density matrix for state 1.1 saved on record  5202.2 (density set 1)

 Results for state 1.1
 =====================

 !MCSCF STATE 1.1 Energy            -5042.832140284038
 Nuclear energy                         0.00000000
 Kinetic energy                      5696.67186583
 One electron energy                -6970.85497834
 Two electron energy                 1928.02283805
 Virial ratio                           1.88522426

 !MCSCF STATE 1.1 Dipole moment         0.00000000     0.00000000     0.00000000
 Dipole moment /Debye                   0.00000000     0.00000000     0.00000000


 NATURAL ORBITALS
 ================

   Orb     Occ        Energy       Coefficients

                                   1 1s      1 1s      1 1s      1 1s      1 1s      1 1s      1 1s      1 1s      1 1s      1 1s   
                                   1 1s      1 1s      1 1s      1 1s      1 1s      1 1s      1 1s      1 1s      1 1s      1 1s   
                                   1 1s      1 1s      1 1s      1 1s      1 1s      1 1s      1 1s      1 1s      1 1s      1 3d0  
                                   1 3d2+    1 3d0     1 3d2+    1 3d0     1 3d2+    1 3d0     1 3d2+    1 3d0     1 3d2+    1 3d0  
                                   1 3d2+    1 3d0     1 3d2+    1 3d0     1 3d2+    1 3d0     1 3d2+    1 3d0     1 3d2+    1 3d0  
                                   1 3d2+    1 3d0     1 3d2+    1 3d0     1 3d2+    1 3d0     1 3d2+    1 3d0     1 3d2+    1 3d0  
                                   1 3d2+    1 3d0     1 3d2+    1 5g0     1 5g4+    1 5g2+    1 5g0     1 5g4+    1 5g2+    1 5g0  
                                   1 5g4+    1 5g2+    1 5g0     1 5g4+    1 5g2+    1 7i6+    1 7i4+    1 7i2+    1 7i0     1 7i6+ 
                                   1 7i4+    1 7i2+    1 7i0  

   1.1  2.00000  -899.261834     0.000046  0.000124  0.000340  0.000773  0.001639  0.003295  0.006546  0.013057  0.026532  0.054579
                                 0.110501  0.205002  0.307349  0.298274  0.132330  0.014616  0.001276 -0.000744  0.000703 -0.001328
                                -0.001270  0.000633  0.000083 -0.000009  0.000006 -0.000003  0.001926 -0.000453  0.000001  0.000000
                                 0.000000  0.000000  0.000000  0.000000  0.000000  0.000000  0.000000  0.000000  0.000000  0.000000
                                 0.000000  0.000000  0.000000  0.000000  0.000000  0.000000  0.000000  0.000000  0.000000  0.000000
                                 0.000000  0.000000  0.000000  0.000000  0.000000  0.000000  0.000000  0.000000  0.000000  0.000000
                                 0.000000  0.000000  0.000000  0.000000  0.000000  0.000000  0.000000  0.000000  0.000000  0.000000
                                 0.000000  0.000000  0.000000  0.000000  0.000000  0.000000  0.000000  0.000000  0.000000  0.000000
                                 0.000000  0.000000  0.000000

   2.1  2.00000  -134.220258    -0.000016 -0.000042 -0.000115 -0.000262 -0.000556 -0.001121 -0.002240 -0.004506 -0.009296 -0.019598
                                -0.041574 -0.084086 -0.149194 -0.189652 -0.071668  0.299491  0.551630  0.287944  0.038644  0.001549
                                -0.000552  0.000283  0.000036 -0.000010  0.000007 -0.000003  0.000597 -0.000317  0.000001  0.000000
                                 0.000000  0.000000  0.000000  0.000000  0.000000  0.000000  0.000000  0.000000  0.000000  0.000000
                                 0.000000  0.000000  0.000000  0.000000  0.000000  0.000000  0.000000  0.000000  0.000000  0.000000
                                 0.000000  0.000000  0.000000  0.000000  0.000000  0.000000  0.000000  0.000000  0.000000  0.000000
                                 0.000000  0.000000  0.000000  0.000000  0.000000  0.000000  0.000000  0.000000  0.000000  0.000000
                                 0.000000  0.000000  0.000000  0.000000  0.000000  0.000000  0.000000  0.000000  0.000000  0.000000
                                 0.000000  0.000000  0.000000

   3.1  2.00000   -25.372639     0.000007  0.000018  0.000050  0.000113  0.000241  0.000486  0.000972  0.001956  0.004047  0.008552
                                 0.018291  0.037403  0.068266  0.090461  0.036104 -0.198039 -0.491077 -0.313983  0.426380  0.791373
                                 0.249131 -0.042955 -0.006029  0.000933 -0.000626  0.000285 -0.070911  0.037669 -0.000079  0.000000
                                 0.000000  0.000000  0.000000  0.000000  0.000000  0.000000  0.000000  0.000000  0.000000  0.000000
                                 0.000000  0.000000  0.000000  0.000000  0.000000  0.000000  0.000000  0.000000  0.000000  0.000000
                                 0.000000  0.000000  0.000000  0.000000  0.000000  0.000000  0.000000  0.000000  0.000000  0.000000
                                 0.000000  0.000000  0.000000  0.000000  0.000000  0.000000  0.000000  0.000000  0.000000  0.000000
                                 0.000000  0.000000  0.000000  0.000000  0.000000  0.000000  0.000000  0.000000  0.000000  0.000000
                                 0.000000  0.000000  0.000000

   4.1  2.00000   -13.034543    -0.000000 -0.000000 -0.000000 -0.000000 -0.000000 -0.000000 -0.000000 -0.000000 -0.000000 -0.000000
                                -0.000000 -0.000000 -0.000000 -0.000000 -0.000000  0.000000  0.000000  0.000000  0.000000  0.000000
                                -0.000000 -0.000000 -0.000000 -0.000000  0.000000 -0.000000  0.000000  0.000000  0.000000  0.000000
                                 0.000149  0.000000  0.001306  0.000000  0.007849  0.000000  0.032020  0.000000  0.097065  0.000000
                                 0.216171  0.000000  0.332342  0.000000  0.338163  0.000000  0.182682  0.000000  0.044648  0.000000
                                 0.004841 -0.000000 -0.000071  0.000000  0.000061 -0.000000 -0.000017 -0.000000 -0.005862 -0.000000
                                -0.004758  0.000000  0.000005  0.000000  0.000000  0.000000  0.000000  0.000000  0.000000  0.000000
                                 0.000000  0.000000  0.000000  0.000000  0.000000  0.000000  0.000000  0.000000  0.000000  0.000000
                                 0.000000  0.000000  0.000000

   5.1  2.00000   -13.034543     0.000000  0.000000  0.000000  0.000000  0.000000  0.000000  0.000000  0.000000  0.000000  0.000000
                                 0.000000  0.000000  0.000000  0.000000  0.000000 -0.000000 -0.000000 -0.000000  0.000000  0.000000
                                 0.000000 -0.000000 -0.000000 -0.000000  0.000000 -0.000000 -0.000000  0.000000  0.000000  0.000149
                                 0.000000  0.001306  0.000000  0.007849  0.000000  0.032020  0.000000  0.097065  0.000000  0.216171
                                 0.000000  0.332342  0.000000  0.338163  0.000000  0.182682 -0.000000  0.044648 -0.000000  0.004841
                                -0.000000 -0.000071 -0.000000  0.000061 -0.000000 -0.000017 -0.000000 -0.005862 -0.000000 -0.004758
                                -0.000000  0.000005 -0.000000  0.000000  0.000000  0.000000  0.000000  0.000000  0.000000  0.000000
                                 0.000000  0.000000  0.000000  0.000000  0.000000  0.000000  0.000000  0.000000  0.000000  0.000000
                                 0.000000  0.000000  0.000000

   6.1  2.00000    -3.679850    -0.000003 -0.000007 -0.000021 -0.000047 -0.000099 -0.000200 -0.000401 -0.000806 -0.001670 -0.003528
                                -0.007565 -0.015483 -0.028462 -0.037919 -0.015565  0.089201  0.232945  0.161845 -0.272209 -0.747694
                                -0.060591  0.831141  0.526268  0.037745 -0.016737  0.006976 -0.045210 -0.021505 -0.001825  0.000000
                                 0.000000  0.000000  0.000000  0.000000  0.000000  0.000000  0.000000  0.000000  0.000000  0.000000
                                 0.000000  0.000000  0.000000  0.000000  0.000000  0.000000  0.000000  0.000000  0.000000  0.000000
                                 0.000000  0.000000  0.000000  0.000000  0.000000  0.000000  0.000000  0.000000  0.000000  0.000000
                                 0.000000  0.000000  0.000000  0.000000  0.000000  0.000000  0.000000  0.000000  0.000000  0.000000
                                 0.000000  0.000000  0.000000  0.000000  0.000000  0.000000  0.000000  0.000000  0.000000  0.000000
                                 0.000000  0.000000  0.000000

   7.1  2.00000    -0.164847    -0.000000 -0.000000 -0.000000 -0.000000 -0.000000 -0.000000 -0.000000 -0.000000 -0.000000 -0.000000
                                -0.000000 -0.000000 -0.000000 -0.000000 -0.000000  0.000000  0.000000  0.000000 -0.000000 -0.000000
                                -0.000000 -0.000000 -0.000000 -0.000000  0.000000 -0.000000  0.000000 -0.000000  0.000000 -0.000044
                                 0.000000 -0.000388  0.000000 -0.002339  0.000000 -0.009609  0.000000 -0.029454  0.000000 -0.066233
                                 0.000000 -0.098577  0.000000 -0.088782  0.000000  0.038013 -0.000000  0.244124 -0.000000  0.360181
                                -0.000000  0.326181 -0.000000  0.215595 -0.000000  0.082853 -0.000000  0.006528 -0.000000  0.004600
                                -0.000000  0.009497 -0.000000  0.000000  0.000000  0.000000  0.000000  0.000000  0.000000  0.000000
                                 0.000000  0.000000  0.000000  0.000000  0.000000  0.000000  0.000000  0.000000  0.000000  0.000000
                                 0.000000  0.000000  0.000000

   8.1  2.00000    -0.164847    -0.000000 -0.000000 -0.000000 -0.000000 -0.000000 -0.000000 -0.000000 -0.000000 -0.000000 -0.000000
                                -0.000000 -0.000000 -0.000000 -0.000000 -0.000000  0.000000  0.000000  0.000000 -0.000000 -0.000000
                                -0.000000  0.000000  0.000000  0.000000 -0.000000  0.000000  0.000000 -0.000000 -0.000000 -0.000000
                                -0.000044 -0.000000 -0.000388 -0.000000 -0.002339 -0.000000 -0.009609 -0.000000 -0.029454 -0.000000
                                -0.066233 -0.000000 -0.098577 -0.000000 -0.088782  0.000000  0.038013  0.000000  0.244124  0.000000
                                 0.360181  0.000000  0.326181  0.000000  0.215595  0.000000  0.082853  0.000000  0.006528  0.000000
                                 0.004600  0.000000  0.009497  0.000000  0.000000  0.000000  0.000000  0.000000  0.000000  0.000000
                                 0.000000  0.000000  0.000000  0.000000  0.000000  0.000000  0.000000  0.000000  0.000000  0.000000
                                 0.000000  0.000000  0.000000

   9.1  1.00000     0.071097     0.000000  0.000001  0.000002  0.000004  0.000009  0.000019  0.000038  0.000076  0.000160  0.000332
                                 0.000727  0.001450  0.002761  0.003471  0.001831 -0.009423 -0.020545 -0.020872  0.041094  0.018077
                                -0.180588  0.163997  0.027318 -0.133243  0.493649 -0.657859  0.176089 -0.314020  1.325611 -0.000000
                                -0.000000 -0.000000 -0.000000 -0.000000 -0.000000 -0.000000 -0.000000 -0.000000 -0.000000 -0.000000
                                -0.000000 -0.000000 -0.000000 -0.000000 -0.000000 -0.000000  0.000000 -0.000000  0.000000 -0.000000
                                 0.000000 -0.000000  0.000000 -0.000000  0.000000 -0.000000  0.000000 -0.000000  0.000000 -0.000000
                                 0.000000 -0.000000  0.000000  0.000000  0.000000  0.000000  0.000000  0.000000  0.000000  0.000000
                                 0.000000  0.000000  0.000000  0.000000  0.000000  0.000000  0.000000  0.000000  0.000000  0.000000
                                 0.000000  0.000000  0.000000

                                   1 2px     1 2px     1 2px     1 2px     1 2px     1 2px     1 2px     1 2px     1 2px     1 2px  
                                   1 2px     1 2px     1 2px     1 2px     1 2px     1 2px     1 2px     1 2px     1 2px     1 2px  
                                   1 2px     1 2px     1 2px     1 4f1+    1 4f3+    1 4f1+    1 4f3+    1 4f1+    1 4f3+    1 4f1+ 
                                   1 4f3+    1 4f1+    1 4f3+    1 6h1+    1 6h3+    1 6h5+    1 6h1+    1 6h3+    1 6h5+    1 6h1+ 
                                   1 6h3+    1 6h5+ 

   1.2  2.00000  -120.111443     0.000016  0.000054  0.000200  0.000696  0.002412  0.008101  0.025348  0.070735  0.164495  0.293932
                                 0.350427  0.217597  0.052916  0.004357 -0.004346 -0.000351 -0.000044  0.000006 -0.000005  0.000002
                                 0.004596  0.000043 -0.000001  0.000000  0.000000  0.000000  0.000000  0.000000  0.000000  0.000000
                                 0.000000  0.000000  0.000000  0.000000  0.000000  0.000000  0.000000  0.000000  0.000000  0.000000
                                 0.000000  0.000000

   2.2  2.00000   -20.607225    -0.000007 -0.000024 -0.000090 -0.000314 -0.001093 -0.003696 -0.011697 -0.033438 -0.080738 -0.152271
                                -0.187120 -0.037727  0.293527  0.498941  0.346534  0.048590  0.000620  0.000030  0.000027 -0.000009
                                -0.060229  0.001998  0.000003  0.000000  0.000000  0.000000  0.000000  0.000000  0.000000  0.000000
                                 0.000000  0.000000  0.000000  0.000000  0.000000  0.000000  0.000000  0.000000  0.000000  0.000000
                                 0.000000  0.000000

   3.2  2.00000    -2.240384     0.000003  0.000009  0.000035  0.000122  0.000424  0.001434  0.004558  0.013054  0.031833  0.060444
                                 0.075305  0.005223 -0.154275 -0.303938 -0.095904  0.356741  0.294748  0.043200 -0.004241  0.002575
                                -0.043504  0.531897 -0.000707  0.000000  0.000000  0.000000  0.000000  0.000000  0.000000  0.000000
                                 0.000000  0.000000  0.000000  0.000000  0.000000  0.000000  0.000000  0.000000  0.000000  0.000000
                                 0.000000  0.000000

                                   1 2py     1 2py     1 2py     1 2py     1 2py     1 2py     1 2py     1 2py     1 2py     1 2py  
                                   1 2py     1 2py     1 2py     1 2py     1 2py     1 2py     1 2py     1 2py     1 2py     1 2py  
                                   1 2py     1 2py     1 2py     1 4f1-    1 4f3-    1 4f1-    1 4f3-    1 4f1-    1 4f3-    1 4f1- 
                                   1 4f3-    1 4f1-    1 4f3-    1 6h1-    1 6h3-    1 6h5-    1 6h1-    1 6h3-    1 6h5-    1 6h1- 
                                   1 6h3-    1 6h5- 

   1.3  2.00000  -120.111443     0.000016  0.000054  0.000200  0.000696  0.002412  0.008101  0.025348  0.070735  0.164495  0.293932
                                 0.350427  0.217597  0.052916  0.004357 -0.004346 -0.000351 -0.000044  0.000006 -0.000005  0.000002
                                 0.004596  0.000043 -0.000001  0.000000  0.000000  0.000000  0.000000  0.000000  0.000000  0.000000
                                 0.000000  0.000000  0.000000  0.000000  0.000000  0.000000  0.000000  0.000000  0.000000  0.000000
                                 0.000000  0.000000

   2.3  2.00000   -20.607225    -0.000007 -0.000024 -0.000090 -0.000314 -0.001093 -0.003696 -0.011697 -0.033438 -0.080738 -0.152271
                                -0.187120 -0.037727  0.293527  0.498941  0.346534  0.048590  0.000620  0.000030  0.000027 -0.000009
                                -0.060229  0.001998  0.000003  0.000000  0.000000  0.000000  0.000000  0.000000  0.000000  0.000000
                                 0.000000  0.000000  0.000000  0.000000  0.000000  0.000000  0.000000  0.000000  0.000000  0.000000
                                 0.000000  0.000000

   3.3  2.00000    -2.240384     0.000003  0.000009  0.000035  0.000122  0.000424  0.001434  0.004558  0.013054  0.031833  0.060444
                                 0.075305  0.005223 -0.154275 -0.303938 -0.095904  0.356741  0.294748  0.043200 -0.004241  0.002575
                                -0.043504  0.531897 -0.000707  0.000000  0.000000  0.000000  0.000000  0.000000  0.000000  0.000000
                                 0.000000  0.000000  0.000000  0.000000  0.000000  0.000000  0.000000  0.000000  0.000000  0.000000
                                 0.000000  0.000000

                                   1 3d2-    1 3d2-    1 3d2-    1 3d2-    1 3d2-    1 3d2-    1 3d2-    1 3d2-    1 3d2-    1 3d2- 
                                   1 3d2-    1 3d2-    1 3d2-    1 3d2-    1 3d2-    1 3d2-    1 3d2-    1 5g2-    1 5g4-    1 5g2- 
                                   1 5g4-    1 5g2-    1 5g4-    1 5g2-    1 5g4-    1 7i2-    1 7i6-    1 7i4-    1 7i2-    1 7i6- 
                                   1 7i4- 

   1.4  2.00000   -13.034543     0.000149  0.001306  0.007849  0.032020  0.097065  0.216171  0.332342  0.338163  0.182682  0.044648
                                 0.004841 -0.000071  0.000061 -0.000017 -0.005862 -0.004758  0.000005  0.000000  0.000000  0.000000
                                 0.000000  0.000000  0.000000  0.000000  0.000000  0.000000  0.000000  0.000000  0.000000  0.000000
                                 0.000000

   2.4  2.00000    -0.164847    -0.000044 -0.000388 -0.002339 -0.009609 -0.029454 -0.066233 -0.098577 -0.088782  0.038013  0.244124
                                 0.360181  0.326181  0.215595  0.082853  0.006528  0.004600  0.009497  0.000000  0.000000  0.000000
                                 0.000000  0.000000  0.000000  0.000000  0.000000  0.000000  0.000000  0.000000  0.000000  0.000000
                                 0.000000

                                   1 2pz     1 2pz     1 2pz     1 2pz     1 2pz     1 2pz     1 2pz     1 2pz     1 2pz     1 2pz  
                                   1 2pz     1 2pz     1 2pz     1 2pz     1 2pz     1 2pz     1 2pz     1 2pz     1 2pz     1 2pz  
                                   1 2pz     1 2pz     1 2pz     1 4f0     1 4f2+    1 4f0     1 4f2+    1 4f0     1 4f2+    1 4f0  
                                   1 4f2+    1 4f0     1 4f2+    1 6h2+    1 6h4+    1 6h0     1 6h2+    1 6h4+    1 6h0     1 6h2+ 
                                   1 6h4+    1 6h0  

   1.5  2.00000  -120.111443     0.000016  0.000054  0.000200  0.000696  0.002412  0.008101  0.025348  0.070735  0.164495  0.293932
                                 0.350427  0.217597  0.052916  0.004357 -0.004346 -0.000351 -0.000044  0.000006 -0.000005  0.000002
                                 0.004596  0.000043 -0.000001  0.000000  0.000000  0.000000  0.000000  0.000000  0.000000  0.000000
                                 0.000000  0.000000  0.000000  0.000000  0.000000  0.000000  0.000000  0.000000  0.000000  0.000000
                                 0.000000  0.000000

   2.5  2.00000   -20.607225    -0.000007 -0.000024 -0.000090 -0.000314 -0.001093 -0.003696 -0.011697 -0.033438 -0.080738 -0.152271
                                -0.187120 -0.037727  0.293527  0.498941  0.346535  0.048590  0.000620  0.000030  0.000027 -0.000009
                                -0.060229  0.001998  0.000003  0.000000  0.000000  0.000000  0.000000  0.000000  0.000000  0.000000
                                 0.000000  0.000000  0.000000  0.000000  0.000000  0.000000  0.000000  0.000000  0.000000  0.000000
                                 0.000000  0.000000

   3.5  2.00000    -2.240384     0.000003  0.000009  0.000035  0.000122  0.000424  0.001434  0.004558  0.013054  0.031833  0.060444
                                 0.075305  0.005223 -0.154275 -0.303938 -0.095905  0.356741  0.294748  0.043200 -0.004241  0.002575
                                -0.043504  0.531897 -0.000707  0.000000  0.000000  0.000000  0.000000  0.000000  0.000000  0.000000
                                 0.000000  0.000000  0.000000  0.000000  0.000000  0.000000  0.000000  0.000000  0.000000  0.000000
                                 0.000000  0.000000

                                   1 3d1+    1 3d1+    1 3d1+    1 3d1+    1 3d1+    1 3d1+    1 3d1+    1 3d1+    1 3d1+    1 3d1+ 
                                   1 3d1+    1 3d1+    1 3d1+    1 3d1+    1 3d1+    1 3d1+    1 3d1+    1 5g1+    1 5g3+    1 5g1+ 
                                   1 5g3+    1 5g1+    1 5g3+    1 5g1+    1 5g3+    1 7i5+    1 7i3+    1 7i1+    1 7i5+    1 7i3+ 
                                   1 7i1+ 

   1.6  2.00000   -13.034543     0.000149  0.001306  0.007849  0.032020  0.097065  0.216171  0.332342  0.338163  0.182682  0.044648
                                 0.004841 -0.000071  0.000061 -0.000017 -0.005862 -0.004758  0.000005  0.000000  0.000000  0.000000
                                 0.000000  0.000000  0.000000  0.000000  0.000000  0.000000  0.000000  0.000000  0.000000  0.000000
                                 0.000000

   2.6  2.00000    -0.164847    -0.000044 -0.000388 -0.002339 -0.009609 -0.029454 -0.066233 -0.098577 -0.088782  0.038013  0.244124
                                 0.360181  0.326181  0.215595  0.082853  0.006528  0.004600  0.009497  0.000000  0.000000  0.000000
                                 0.000000  0.000000  0.000000  0.000000  0.000000  0.000000  0.000000  0.000000  0.000000  0.000000
                                 0.000000

                                   1 3d1-    1 3d1-    1 3d1-    1 3d1-    1 3d1-    1 3d1-    1 3d1-    1 3d1-    1 3d1-    1 3d1- 
                                   1 3d1-    1 3d1-    1 3d1-    1 3d1-    1 3d1-    1 3d1-    1 3d1-    1 5g1-    1 5g3-    1 5g1- 
                                   1 5g3-    1 5g1-    1 5g3-    1 5g1-    1 5g3-    1 7i5-    1 7i3-    1 7i1-    1 7i5-    1 7i3- 
                                   1 7i1- 

   1.7  2.00000   -13.034543     0.000149  0.001306  0.007849  0.032020  0.097065  0.216171  0.332342  0.338163  0.182682  0.044648
                                 0.004841 -0.000071  0.000061 -0.000017 -0.005862 -0.004758  0.000005  0.000000  0.000000  0.000000
                                 0.000000  0.000000  0.000000  0.000000  0.000000  0.000000  0.000000  0.000000  0.000000  0.000000
                                 0.000000

   2.7  2.00000    -0.164847    -0.000044 -0.000388 -0.002339 -0.009609 -0.029454 -0.066233 -0.098577 -0.088782  0.038013  0.244124
                                 0.360181  0.326181  0.215595  0.082853  0.006528  0.004600  0.009497  0.000000  0.000000  0.000000
                                 0.000000  0.000000  0.000000  0.000000  0.000000  0.000000  0.000000  0.000000  0.000000  0.000000
                                 0.000000

 Total charge:  -1.000000000000
 

 EXTRA SYMMETRY OF MOS IN SYMMETRY 1:   1 1 1 3 2 1 2 3 1 1   3 2 1 2 3 1 2 3 6 4   5 1 2 3 6 4 5 2 3 1   6 4 510 8 7 9 2 3 1
                                        6 4 5 810 9 7 2 3 1   2 3 2 3 1 2 3 1 2 3   1 2 3 1 2 3 1 2 3 1   1 2 3 1 1 1 1 1 1 1
                                        1 1 1
 EXTRA SYMMETRY OF MOS IN SYMMETRY 2:   1 1 1 1 1 1 3 2 1 3   2 4 6 5 1 2 3 6 5 4   3 2 1 5 4 6 2 3 1 1   1 1 1 1 1 1 1 1 1 1
                                        1 1
 EXTRA SYMMETRY OF MOS IN SYMMETRY 3:   1 1 1 1 1 1 3 2 1 3   2 4 6 5 1 2 3 6 5 4   3 2 1 5 4 6 2 3 1 1   1 1 1 1 1 1 1 1 1 1
                                        1 1
 EXTRA SYMMETRY OF MOS IN SYMMETRY 4:   1 1 1 1 1 2 3 1 2 3   1 2 3 5 6 4 1 2 3 6   4 5 1 1 1 1 1 1 1 1   1
 EXTRA SYMMETRY OF MOS IN SYMMETRY 5:   1 1 1 1 1 1 2 3 1 2   3 4 6 5 1 3 2 6 5 4   3 2 1 6 5 4 3 2 1 1   1 1 1 1 1 1 1 1 1 1
                                        1 1
 EXTRA SYMMETRY OF MOS IN SYMMETRY 6:   1 1 1 1 1 3 2 1 3 2   1 3 2 5 6 4 1 2 3 5   6 4 1 1 1 1 1 1 1 1   1
 EXTRA SYMMETRY OF MOS IN SYMMETRY 7:   1 1 1 1 1 3 2 1 3 2   1 3 2 5 6 4 1 2 3 5   6 4 1 1 1 1 1 1 1 1   1
 EXTRA SYMMETRY OF MOS IN SYMMETRY 8:   1 1 3 2 1 2 3 1 2 3   1

 Natural orbital dump at molpro section  5202.2    (Orbital set 2)


 CI vector
 =========

 a             1.0000000

 TOTAL ENERGIES                     -5042.83214028



 **********************************************************************************************************************************
 DATASETS  * FILE   NREC   LENGTH (MB)   RECORD NAMES
              1      23       67.48       500      610      700      900      950      970     1000      129      960     1700   
                                          VAR    BASINP    GEOM    SYMINP    ZMAT    AOBASIS   BASIS     P2S    ABASIS    OPER   
                                         1101     1401     1411     1412     1650     1100     1400     1410     1200     1210   
                                          SR      EKINR    POTR     PVPR    MOLCAS      S      EKIN      POT      H0       H01  
                                         1080     1600     1380   
                                         AOSYM     SMH     JKOP   

              2       6        8.87       200      700     1000      520     4202     5202   
                                        OPTIONS   GEOM     BASIS   MCVARS     RHF     MCSCF   

 PROGRAMS   *        TOTAL     MULTI       POP       RHF       INT
 CPU TIMES  *        49.87     11.55      0.00      2.43     35.07
 REAL TIME  *        66.41 SEC
 DISK USED  *         2.02 GB      
 SF USED    *       182.85 MB      
 GA USED    *         0.00 MB       (max)       0.00 MB       (current)
 **********************************************************************************************************************************


 PROGRAM * RHF-SCF (OPEN SHELL)       Authors: W. Meyer, H.-J. Werner


 NUMBER OF ELECTRONS:      24+   23-    SPACE SYMMETRY=1    SPIN SYMMETRY: Doublet 
 CONVERGENCE THRESHOLDS:    1.00E-05 (Density)    1.00E-07 (Energy)
 MAX. NUMBER OF ITERATIONS:        0
 INTERPOLATION TYPE:            DIIS
 INTERPOLATION STEPS:              2 (START)      1 (STEP)
 LEVEL SHIFTS:                 -0.60 (CLOSED) -0.30 (OPEN) 

 Number of closed-shell orbitals:   23 (   8   3   3   2   3   2   2   0 )
 Number of open-shell orbitals:      1 (   1   0   0   0   0   0   0   0 )


 
 Extra symmetries of mos in symmetry 1:   1   1   1   1   3   2   3   2   1
 Molecular orbitals read from record     5202.2  Type=MCSCF/NATURAL (state 1.1)

 Molecular orbital dump at record        2102.2

 ITERATION    DDIFF          GRAD             ENERGY        2-EL.EN.            DIPOLE MOMENTS         DIIS   ORB.
    1      0.000D+00      0.000D+00     -5042.83214028   3856.045676    0.00000    0.00000    0.00000    0    start

 Final alpha occupancy:   9   3   3   2   3   2   2   0
 Final beta  occupancy:   8   3   3   2   3   2   2   0

 !RHF STATE 1.1 Energy              -5042.832140284039
 Nuclear energy                         0.00000000
 One-electron energy                -6970.85497834
 Two-electron energy                 1928.02283805
 Virial quotient                       -0.88522426
 !RHF STATE 1.1 Dipole moment           0.00000000     0.00000000     0.00000000
 Dipole moment /Debye                   0.00000000     0.00000000     0.00000000

 ELECTRON ORBITALS
 =================


   Orb  Occ    Energy  Couls-En    Coefficients

                                   1 1s      1 1s      1 1s      1 1s      1 1s      1 1s      1 1s      1 1s      1 1s      1 1s   
                                   1 1s      1 1s      1 1s      1 1s      1 1s      1 1s      1 1s      1 1s      1 1s      1 1s   
                                   1 1s      1 1s      1 1s      1 1s      1 1s      1 1s      1 1s      1 1s      1 1s      1 3d0  
                                   1 3d2+    1 3d0     1 3d2+    1 3d0     1 3d2+    1 3d0     1 3d2+    1 3d0     1 3d2+    1 3d0  
                                   1 3d2+    1 3d0     1 3d2+    1 3d0     1 3d2+    1 3d0     1 3d2+    1 3d0     1 3d2+    1 3d0  
                                   1 3d2+    1 3d0     1 3d2+    1 3d0     1 3d2+    1 3d0     1 3d2+    1 3d0     1 3d2+    1 3d0  
                                   1 3d2+    1 3d0     1 3d2+    1 5g0     1 5g4+    1 5g2+    1 5g0     1 5g4+    1 5g2+    1 5g0  
                                   1 5g4+    1 5g2+    1 5g0     1 5g4+    1 5g2+    1 7i6+    1 7i4+    1 7i2+    1 7i0     1 7i6+ 
                                   1 7i4+    1 7i2+    1 7i0  

   1.1   2  -899.2618-1988.6702  0.000046  0.000124  0.000340  0.000773  0.001639  0.003295  0.006546  0.013057  0.026532  0.054579
                                 0.110501  0.205002  0.307349  0.298274  0.132330  0.014616  0.001276 -0.000744  0.000703 -0.001328
                                -0.001270  0.000633  0.000083 -0.000009  0.000006 -0.000003  0.001926 -0.000453  0.000001  0.000000
                                 0.000000  0.000000  0.000000  0.000000  0.000000  0.000000  0.000000  0.000000  0.000000  0.000000
                                 0.000000  0.000000  0.000000  0.000000  0.000000  0.000000  0.000000  0.000000  0.000000  0.000000
                                 0.000000  0.000000  0.000000  0.000000  0.000000  0.000000  0.000000  0.000000  0.000000  0.000000
                                 0.000000  0.000000  0.000000  0.000000  0.000000  0.000000  0.000000  0.000000  0.000000  0.000000
                                 0.000000  0.000000  0.000000  0.000000  0.000000  0.000000  0.000000  0.000000  0.000000  0.000000
                                 0.000000  0.000000  0.000000

   2.1   2  -134.2203 -406.1285 -0.000016 -0.000042 -0.000115 -0.000262 -0.000556 -0.001121 -0.002240 -0.004506 -0.009296 -0.019598
                                -0.041574 -0.084086 -0.149194 -0.189652 -0.071668  0.299491  0.551630  0.287944  0.038644  0.001549
                                -0.000552  0.000283  0.000036 -0.000010  0.000007 -0.000003  0.000597 -0.000317  0.000001  0.000000
                                 0.000000  0.000000  0.000000  0.000000  0.000000  0.000000  0.000000  0.000000  0.000000  0.000000
[...]
                                 0.000000  0.000000  0.000000  0.000000  0.000000  0.000000  0.000000  0.000000  0.000000  0.000000
                                 0.000000

   4.4   0     0.4823  -10.0089  0.000010  0.000131  0.000548  0.003178  0.006787  0.023317  0.014775  0.066258 -0.222769 -1.997037
                                -1.787992  0.490896 -0.866665  1.898833  1.374872  2.111634 -0.841556  0.000000  0.000000  0.000000
                                 0.000000  0.000000  0.000000  0.000000  0.000000  0.000000  0.000000  0.000000  0.000000  0.000000
                                 0.000000

                                   1 2pz     1 2pz     1 2pz     1 2pz     1 2pz     1 2pz     1 2pz     1 2pz     1 2pz     1 2pz  
                                   1 2pz     1 2pz     1 2pz     1 2pz     1 2pz     1 2pz     1 2pz     1 2pz     1 2pz     1 2pz  
                                   1 2pz     1 2pz     1 2pz     1 4f0     1 4f2+    1 4f0     1 4f2+    1 4f0     1 4f2+    1 4f0  
                                   1 4f2+    1 4f0     1 4f2+    1 6h2+    1 6h4+    1 6h0     1 6h2+    1 6h4+    1 6h0     1 6h2+ 
                                   1 6h4+    1 6h0  

   1.5   2  -120.1114 -385.8699  0.000016  0.000054  0.000200  0.000696  0.002412  0.008101  0.025348  0.070735  0.164495  0.293932
                                 0.350427  0.217597  0.052916  0.004357 -0.004346 -0.000351 -0.000044  0.000006 -0.000005  0.000002
                                 0.004596  0.000043 -0.000001  0.000000  0.000000  0.000000  0.000000  0.000000  0.000000  0.000000
                                 0.000000  0.000000  0.000000  0.000000  0.000000  0.000000  0.000000  0.000000  0.000000  0.000000
                                 0.000000  0.000000

   2.5   2   -20.6072 -129.5428 -0.000007 -0.000024 -0.000090 -0.000314 -0.001093 -0.003696 -0.011697 -0.033438 -0.080738 -0.152271
                                -0.187120 -0.037727  0.293527  0.498941  0.346535  0.048590  0.000620  0.000030  0.000027 -0.000009
                                -0.060229  0.001998  0.000003  0.000000  0.000000  0.000000  0.000000  0.000000  0.000000  0.000000
                                 0.000000  0.000000  0.000000  0.000000  0.000000  0.000000  0.000000  0.000000  0.000000  0.000000
                                 0.000000  0.000000

   3.5   2    -2.2404  -48.7223  0.000003  0.000009  0.000035  0.000122  0.000424  0.001434  0.004558  0.013054  0.031833  0.060444
                                 0.075305  0.005223 -0.154275 -0.303938 -0.095905  0.356741  0.294748  0.043200 -0.004241  0.002575
                                -0.043504  0.531897 -0.000707  0.000000  0.000000  0.000000  0.000000  0.000000  0.000000  0.000000
                                 0.000000  0.000000  0.000000  0.000000  0.000000  0.000000  0.000000  0.000000  0.000000  0.000000
                                 0.000000  0.000000

   4.5   0     0.1129   -4.2395 -0.000000 -0.000000 -0.000000 -0.000002 -0.000004 -0.000022 -0.000040 -0.000214 -0.000235 -0.001173
                                 0.000159 -0.002770  0.009066 -0.019381  0.537636  0.071664  0.068649 -0.134724  0.356112 -0.869337
                                -0.564364 -0.071748  1.483051  0.000000  0.000000  0.000000  0.000000  0.000000  0.000000  0.000000
                                 0.000000  0.000000  0.000000  0.000000  0.000000  0.000000  0.000000  0.000000  0.000000  0.000000
                                 0.000000  0.000000

   5.5   0     0.2155   -7.5476 -0.000000 -0.000001 -0.000002 -0.000008 -0.000032 -0.000090 -0.000349 -0.000790 -0.002532 -0.003290
                                -0.007501  0.005412 -0.003924  0.070948 -1.121127 -0.192568 -0.182416  0.326905 -0.766936  2.113561
                                 1.190326  0.089279 -1.015266  0.000000  0.000000  0.000000  0.000000  0.000000  0.000000  0.000000
                                 0.000000  0.000000  0.000000  0.000000  0.000000  0.000000  0.000000  0.000000  0.000000  0.000000
                                 0.000000  0.000000

                                   1 3d1+    1 3d1+    1 3d1+    1 3d1+    1 3d1+    1 3d1+    1 3d1+    1 3d1+    1 3d1+    1 3d1+ 
                                   1 3d1+    1 3d1+    1 3d1+    1 3d1+    1 3d1+    1 3d1+    1 3d1+    1 5g1+    1 5g3+    1 5g1+ 
                                   1 5g3+    1 5g1+    1 5g3+    1 5g1+    1 5g3+    1 7i5+    1 7i3+    1 7i1+    1 7i5+    1 7i3+ 
                                   1 7i1+ 

   1.6   2   -13.0345 -117.3561  0.000149  0.001306  0.007849  0.032020  0.097065  0.216171  0.332342  0.338163  0.182682  0.044648
                                 0.004841 -0.000071  0.000061 -0.000017 -0.005862 -0.004758  0.000005  0.000000  0.000000  0.000000
                                 0.000000  0.000000  0.000000  0.000000  0.000000  0.000000  0.000000  0.000000  0.000000  0.000000
                                 0.000000

   2.6   2    -0.1648  -34.4475 -0.000044 -0.000388 -0.002339 -0.009609 -0.029454 -0.066233 -0.098577 -0.088782  0.038013  0.244124
                                 0.360181  0.326181  0.215595  0.082853  0.006528  0.004600  0.009497  0.000000  0.000000  0.000000
                                 0.000000  0.000000  0.000000  0.000000  0.000000  0.000000  0.000000  0.000000  0.000000  0.000000
                                 0.000000

   3.6   0     0.2117   -5.8180  0.000005  0.000025  0.000241  0.000650  0.003081  0.003968  0.013217 -0.007572  0.073707  0.676678
                                 0.569154 -0.229573  0.235396 -0.570053 -0.500772 -0.758545  1.297369  0.000000  0.000000  0.000000
                                 0.000000  0.000000  0.000000  0.000000  0.000000  0.000000  0.000000  0.000000  0.000000  0.000000
                                 0.000000

   4.6   0     0.4823  -10.0089  0.000010  0.000131  0.000548  0.003178  0.006787  0.023317  0.014775  0.066258 -0.222769 -1.997037
                                -1.787992  0.490896 -0.866665  1.898833  1.374872  2.111633 -0.841556  0.000000  0.000000  0.000000
                                 0.000000  0.000000  0.000000  0.000000  0.000000  0.000000  0.000000  0.000000  0.000000  0.000000
                                 0.000000

                                   1 3d1-    1 3d1-    1 3d1-    1 3d1-    1 3d1-    1 3d1-    1 3d1-    1 3d1-    1 3d1-    1 3d1- 
                                   1 3d1-    1 3d1-    1 3d1-    1 3d1-    1 3d1-    1 3d1-    1 3d1-    1 5g1-    1 5g3-    1 5g1- 
                                   1 5g3-    1 5g1-    1 5g3-    1 5g1-    1 5g3-    1 7i5-    1 7i3-    1 7i1-    1 7i5-    1 7i3- 
                                   1 7i1- 

   1.7   2   -13.0345 -117.3561  0.000149  0.001306  0.007849  0.032020  0.097065  0.216171  0.332342  0.338163  0.182682  0.044648
                                 0.004841 -0.000071  0.000061 -0.000017 -0.005862 -0.004758  0.000005  0.000000  0.000000  0.000000
                                 0.000000  0.000000  0.000000  0.000000  0.000000  0.000000  0.000000  0.000000  0.000000  0.000000
                                 0.000000

   2.7   2    -0.1648  -34.4475 -0.000044 -0.000388 -0.002339 -0.009609 -0.029454 -0.066233 -0.098577 -0.088782  0.038013  0.244124
                                 0.360181  0.326181  0.215595  0.082853  0.006528  0.004600  0.009497  0.000000  0.000000  0.000000
                                 0.000000  0.000000  0.000000  0.000000  0.000000  0.000000  0.000000  0.000000  0.000000  0.000000
                                 0.000000

   3.7   0     0.2117   -5.8180  0.000005  0.000025  0.000241  0.000650  0.003081  0.003968  0.013217 -0.007572  0.073707  0.676678
                                 0.569154 -0.229573  0.235396 -0.570053 -0.500772 -0.758545  1.297369  0.000000  0.000000  0.000000
                                 0.000000  0.000000  0.000000  0.000000  0.000000  0.000000  0.000000  0.000000  0.000000  0.000000
                                 0.000000

   4.7   0     0.4823  -10.0089  0.000010  0.000131  0.000548  0.003178  0.006787  0.023317  0.014775  0.066258 -0.222769 -1.997037
                                -1.787992  0.490896 -0.866665  1.898833  1.374872  2.111633 -0.841556  0.000000  0.000000  0.000000
                                 0.000000  0.000000  0.000000  0.000000  0.000000  0.000000  0.000000  0.000000  0.000000  0.000000
                                 0.000000

                                   1 4f2-    1 4f2-    1 4f2-    1 4f2-    1 4f2-    1 6h4-    1 6h2-    1 6h4-    1 6h2-    1 6h4- 
                                   1 6h2- 

   1.8   0     0.6505   -9.9489  0.007037 -0.010154  0.085851 -0.223334  1.111046  0.000000  0.000000  0.000000  0.000000  0.000000
                                 0.000000

   2.8   0     1.5221  -16.9978  0.017236  0.117925 -0.033749  1.232775 -0.615236  0.000000  0.000000  0.000000  0.000000  0.000000
                                 0.000000

 HOMO      9.1     0.071097 =       1.9347eV
 LUMO      4.2     0.112872 =       3.0714eV
 LUMO-HOMO         0.041775 =       1.1368eV


 **********************************************************************************************************************************
 DATASETS  * FILE   NREC   LENGTH (MB)   RECORD NAMES
              1      23       67.48       500      610      700      900      950      970     1000      129      960     1700   
                                          VAR    BASINP    GEOM    SYMINP    ZMAT    AOBASIS   BASIS     P2S    ABASIS    OPER   
                                         1101     1401     1411     1412     1650     1100     1400     1410     1200     1210   
                                          SR      EKINR    POTR     PVPR    MOLCAS      S      EKIN      POT      H0       H01  
                                         1080     1600     1380   
                                         AOSYM     SMH     JKOP   

              2       7       11.87       200      700     1000      520     4202     5202     2102   
                                        OPTIONS   GEOM     BASIS   MCVARS     RHF     MCSCF     RHF  

 PROGRAMS   *        TOTAL       RHF     MULTI       POP       RHF       INT
 CPU TIMES  *        50.21      0.33     11.55      0.00      2.43     35.07
 REAL TIME  *        66.94 SEC
 DISK USED  *         2.02 GB      
 SF USED    *       182.85 MB      
 GA USED    *         0.00 MB       (max)       0.00 MB       (current)
 **********************************************************************************************************************************
 SETTING SCF(14)        =     -5042.83214028  AU                              
 SETTING _CC_NORM_MAX   =         2.00000000                                  


 PROGRAM * CCSD (Restricted open-shell coupled cluster)     Authors: C. Hampel, H.-J. Werner, 1991, M. Deegan, P.J. Knowles, 1992


 Convergence thresholds:  THRVAR = 1.00D-08  THRDEN = 1.00D-06

 CCSD(T)     terms to be evaluated (factor= 1.000)


 Number of closed-shell orbitals:  23 (   8   3   3   2   3   2   2   0 )
 Number of active  orbitals:        1 (   1   0   0   0   0   0   0   0 )
 Number of external orbitals:     289 (  74  39  39  29  39  29  29  11 )

 Memory could be reduced to 128.25 Mwords without degradation in triples

 Number of N-1 electron functions:              47
 Number of N-2 electron functions:            1081
 Number of singly external CSFs:              2325
 Number of doubly external CSFs:           8829934
 Total number of CSFs:                     8832259

 Molecular orbitals read from record     2102.2  Type=RHF/CANONICAL (state 1.1)

 Integral transformation finished. Total CPU:   3.44 sec, npass=  1  Memory used:  27.58 MW

 Starting RMP2 calculation

 Wavefunction is spin-projected

 ITER.      SQ.NORM     CORR.ENERGY   TOTAL ENERGY   ENERGY CHANGE        DEN1      VAR(S)    VAR(P)  DIIS     TIME
   1      1.17224541    -1.79034445 -5044.62248473    -1.79034445    -0.00173143  0.23D-05  0.81D-03  1  1     8.91
   2      1.17419638    -1.79217496 -5044.62431524    -0.00183051    -0.00000965  0.75D-07  0.90D-05  2  2    13.67
   3      1.17438421    -1.79226174 -5044.62440202    -0.00008678    -0.00000009  0.12D-08  0.11D-06  3  3    19.16
   4      1.17439460    -1.79226303 -5044.62440331    -0.00000129    -0.00000000  0.52D-11  0.12D-08  4  4    24.18
   5      1.17439489    -1.79226305 -5044.62440333    -0.00000002    -0.00000000  0.97D-14  0.10D-10  5  5    29.82

 Norm of t1 vector:      0.00807181      S-energy:    -0.00004734      T1 diagnostic:  0.00000854
 Norm of t2 vector:      0.41752812      P-energy:    -1.79221570
                                         Alpha-Beta:  -1.20277763
                                         Alpha-Alpha: -0.29811840
                                         Beta-Beta:   -0.29131967

 Spin contamination <S**2-Sz**2-Sz>     0.00000000
  Reference energy                  -5042.832140284038
  RHF-RMP2 correlation energy          -1.792263045745
 !RHF-RMP2 energy                   -5044.624403329783
 (NB above energy spin projected)

 Starting RCCSD calculation

 ITER.      SQ.NORM     CORR.ENERGY   TOTAL ENERGY   ENERGY CHANGE        DEN1      VAR(S)    VAR(P)  DIIS     TIME
   1      1.13172807    -1.65514002 -5044.48728031    -1.65514002    -0.03579083  0.70D-02  0.56D-02  0  0    42.62
   2      1.15331478    -1.68850089 -5044.52064118    -0.03336087    -0.00373884  0.20D-02  0.12D-02  1  1    58.81
   3      1.16193620    -1.68409048 -5044.51623076     0.00441042    -0.00093281  0.19D-02  0.12D-03  2  2    75.10
   4      1.17431353    -1.68527233 -5044.51741261    -0.00118185    -0.00062084  0.14D-02  0.71D-04  3  3    89.96
   5      1.22773000    -1.68850974 -5044.52065003    -0.00323742    -0.00023383  0.59D-03  0.21D-04  4  4   103.16
   6      1.29651269    -1.69070080 -5044.52284108    -0.00219106    -0.00003244  0.57D-04  0.11D-04  5  5   116.08
   7      1.31636485    -1.69117286 -5044.52331314    -0.00047206    -0.00000453  0.39D-05  0.28D-05  6  6   132.62
   8      1.31773853    -1.69118104 -5044.52332132    -0.00000818    -0.00000065  0.71D-06  0.32D-06  6  1   148.48
   9      1.31834845    -1.69118739 -5044.52332768    -0.00000636    -0.00000016  0.42D-06  0.23D-07  6  2   164.71
  10      1.31994154    -1.69123153 -5044.52337182    -0.00004414    -0.00000002  0.33D-07  0.45D-08  6  4   181.27
  11      1.32011510    -1.69123436 -5044.52337465    -0.00000283    -0.00000000  0.36D-08  0.90D-09  6  3   197.99
  12      1.32020570    -1.69123677 -5044.52337705    -0.00000240    -0.00000000  0.66D-09  0.23D-09  6  6   212.07
  13      1.32023420    -1.69123716 -5044.52337744    -0.00000039    -0.00000000  0.12D-09  0.55D-10  6  5   222.45

 Norm of t1 vector:      0.40156458      S-energy:    -0.00007021      T1 diagnostic:  0.04140278
                                                                       D1 diagnostic:  0.27531681
 Norm of t2 vector:      0.39872308      P-energy:    -1.69116695
                                         Alpha-Beta:  -1.16145562
                                         Alpha-Alpha: -0.26974328
                                         Beta-Beta:   -0.25996805

 Singles amplitudes (print threshold =  0.500E-01):

         I         SYM. A    A   T(IA) [Alpha-Alpha]

         9         1         2     -0.35208424
         9         1         5     -0.16086905

 Spin contamination <S**2-Sz**2-Sz>     0.00000000

 Memory could be reduced to 141.07 Mwords without degradation in triples
 

  Correlated core orbitals:             1.1       2.1       3.1       4.1       5.1       6.1       1.2       2.2       3.2       1.3
                                        2.3       3.3       1.4       1.5       2.5       3.5       1.6       1.7
  Orbital energies:                  -899.2620 -134.2204  -25.3729   -3.6807  -13.0346  -13.0346 -120.1115  -20.6073   -2.2408 -120.1115
                                      -20.6073   -2.2408  -13.0346 -120.1115  -20.6073   -2.2408  -13.0346  -13.0346
 
  RCCSD core-core energy               -0.949424328752
  RCCSD core-valence energy            -0.360875355489
  RCCSD valence correlation energy     -0.380937475757
 

 RESULTS
 =======

  Reference energy                  -5042.832140284038
  RCCSD singles energy                 -0.000070209987
  RCCSD pair energy                    -1.691166950011
  RCCSD correlation energy             -1.691237159998
  Triples (T) contribution             -0.043166394748
  Total correlation energy             -1.734403554746
 
  RHF-RCCSD energy                  -5044.523377444037
  RHF-RCCSD[T] energy               -5044.569214616185
  RHF-RCCSD-T energy                -5044.566299054623
 !RHF-RCCSD(T) energy               -5044.566543838785

 Program statistics:

 Available memory in ccsd:               511995052
 Min. memory needed in ccsd:              24371507
 Max. memory used in ccsd:                35741235
 Max. memory used in cckext:              28431723 (13 integral passes)
 Max. memory used in cckint:              27581534 ( 1 integral passes)



 **********************************************************************************************************************************
 DATASETS  * FILE   NREC   LENGTH (MB)   RECORD NAMES
              1      23       67.48       500      610      700      900      950      970     1000      129      960     1700   
                                          VAR    BASINP    GEOM    SYMINP    ZMAT    AOBASIS   BASIS     P2S    ABASIS    OPER   
                                         1101     1401     1411     1412     1650     1100     1400     1410     1200     1210   
                                          SR      EKINR    POTR     PVPR    MOLCAS      S      EKIN      POT      H0       H01  
                                         1080     1600     1380   
                                         AOSYM     SMH     JKOP   

              2       7       11.87       200      700     1000      520     4202     5202     2102   
                                        OPTIONS   GEOM     BASIS   MCVARS     RHF     MCSCF     RHF  

 PROGRAMS   *        TOTAL  RCCSD(T)       RHF     MULTI       POP       RHF       INT
 CPU TIMES  *       444.83    394.57      0.33     11.55      0.00      2.43     35.07
 REAL TIME  *       697.13 SEC
 DISK USED  *        28.99 GB      
 SF USED    *         2.74 GB      
 GA USED    *         0.00 MB       (max)       0.00 MB       (current)
 **********************************************************************************************************************************
 SETTING CCSD(14)       =     -5044.56654384  AU                              
 Output type csv         
                                                                                                                                                                                                                                                                

         SCF,CCSD
       0.000000,       0.000000
       0.000000,       0.000000
       0.000000,       0.000000
       0.000000,       0.000000
       0.000000,       0.000000
       0.000000,       0.000000
       0.000000,       0.000000
       0.000000,       0.000000
       0.000000,       0.000000
       0.000000,       0.000000
       0.000000,       0.000000
       0.000000,       0.000000
       0.000000,       0.000000
   -5042.832140,   -5044.566544
                                                  

 RCCSD(T)/USERDEF energy=  -5044.566543838785

        RCCSD(T)        RHF-SCF         MULTI           RHF-SCF 
  -5044.56654384  -5042.83214028  -5042.83214028  -5042.83214028
 **********************************************************************************************************************************
 Molpro calculation terminated
 Variable memory released
