/global/cscratch1/sd/bkincaid/cutoffs/Pd/250-610/runs/scf_490

     Program PWSCF v.6.4.1 starts on 17Jan2022 at 17:15:49 

     This program is part of the open-source Quantum ESPRESSO suite
     for quantum simulation of materials; please cite
         "P. Giannozzi et al., J. Phys.:Condens. Matter 21 395502 (2009);
         "P. Giannozzi et al., J. Phys.:Condens. Matter 29 465901 (2017);
          URL http://www.quantum-espresso.org", 
     in publications or presentations arising from this work. More details at
     http://www.quantum-espresso.org/quote

     Parallel version (MPI & OpenMP), running on      32 processor cores
     Number of MPI processes:                32
     Threads/MPI process:                     1

     MPI processes distributed on     1 nodes
     R & G space division:  proc/nbgrp/npool/nimage =      32
     Reading input from scf_490.in

     Current dimensions of program PWSCF are:
     Max number of different atomic species (ntypx) = 10
     Max number of k-points (npk) =  40000
     Max angular momentum in pseudopotentials (lmaxx) =  3

     IMPORTANT: XC functional enforced from input :
     Exchange-correlation      = PBE ( 1  4  3  4 0 0)
     Any further DFT definition will be discarded
     Please, verify this is what you really want


     gamma-point specific algorithms are used

     Subspace diagonalization in iterative solution of the eigenvalue problem:
     one sub-group per band group will be used
     scalapack distributed-memory algorithm (size of sub-group:  4*  4 procs)

     Message from routine setup:
     DEPRECATED: symmetry with ibrav=0, use correct ibrav instead
 
     Parallelization info
     --------------------
     sticks:   dense  smooth     PW     G-vecs:    dense   smooth      PW
     Min        2504    2504    624               533996   533996   66732
     Max        2507    2507    626               534010   534010   66750
     Sum       80189   80189  20029             17088155 17088155 2135811
 


     bravais-lattice index     =            0
     lattice parameter (alat)  =      22.6767  a.u.
     unit-cell volume          =   11661.1222 (a.u.)^3
     number of atoms/cell      =            1
     number of atomic types    =            1
     number of electrons       =        18.00 (up:   9.00, down:   9.00)
     number of Kohn-Sham states=           12
     kinetic-energy cutoff     =     490.0000  Ry
     charge density cutoff     =    1960.0000  Ry
     convergence threshold     =      1.0E-06
     mixing beta               =       0.7000
     number of iterations used =            8  plain     mixing
     Exchange-correlation      = PBE ( 1  4  3  4 0 0)

     celldm(1)=  22.676714  celldm(2)=   0.000000  celldm(3)=   0.000000
     celldm(4)=   0.000000  celldm(5)=   0.000000  celldm(6)=   0.000000

     crystal axes: (cart. coord. in units of alat)
               a(1) = (   1.000000   0.000000   0.000000 )  
               a(2) = (   0.000000   1.000000   0.000000 )  
               a(3) = (   0.000000   0.000000   1.000000 )  

     reciprocal axes: (cart. coord. in units 2 pi/alat)
               b(1) = (  1.000000  0.000000  0.000000 )  
               b(2) = (  0.000000  1.000000  0.000000 )  
               b(3) = (  0.000000  0.000000  1.000000 )  


     PseudoPot. # 1 for Pd read from file:
     ./Pd.upf
     MD5 check sum: 2db6b29890942ac22920366b342684d2
     Pseudo is Norm-conserving, Zval = 18.0
     Generated by new atomic code, or converted to UPF format
     Using radial grid of 1174 points,  2 beta functions with: 
                l(1) =   0
                l(2) =   2

     atomic species   valence    mass     pseudopotential
        Pd            18.00   106.42000     Pd( 1.00)

     Starting magnetic structure 
     atomic species   magnetization
        Pd           0.500

     48 Sym. Ops., with inversion, found


                                    s                        frac. trans.

      isym =  1     identity                                     

 cryst.   s( 1) = (     1          0          0      )
                  (     0          1          0      )
                  (     0          0          1      )

 cart.    s( 1) = (  1.0000000  0.0000000  0.0000000 )
                  (  0.0000000  1.0000000  0.0000000 )
                  (  0.0000000  0.0000000  1.0000000 )


      isym =  2     180 deg rotation - cart. axis [0,0,1]        

 cryst.   s( 2) = (    -1          0          0      )
                  (     0         -1          0      )
                  (     0          0          1      )

 cart.    s( 2) = ( -1.0000000  0.0000000  0.0000000 )
                  (  0.0000000 -1.0000000  0.0000000 )
                  (  0.0000000  0.0000000  1.0000000 )


      isym =  3     180 deg rotation - cart. axis [0,1,0]        

 cryst.   s( 3) = (    -1          0          0      )
                  (     0          1          0      )
                  (     0          0         -1      )

 cart.    s( 3) = ( -1.0000000  0.0000000  0.0000000 )
                  (  0.0000000  1.0000000  0.0000000 )
                  (  0.0000000  0.0000000 -1.0000000 )


      isym =  4     180 deg rotation - cart. axis [1,0,0]        

 cryst.   s( 4) = (     1          0          0      )
                  (     0         -1          0      )
                  (     0          0         -1      )

 cart.    s( 4) = (  1.0000000  0.0000000  0.0000000 )
                  (  0.0000000 -1.0000000  0.0000000 )
                  (  0.0000000  0.0000000 -1.0000000 )


      isym =  5     180 deg rotation - cart. axis [1,1,0]        

 cryst.   s( 5) = (     0          1          0      )
                  (     1          0          0      )
                  (     0          0         -1      )

 cart.    s( 5) = (  0.0000000  1.0000000  0.0000000 )
                  (  1.0000000  0.0000000  0.0000000 )
                  (  0.0000000  0.0000000 -1.0000000 )


      isym =  6     180 deg rotation - cart. axis [1,-1,0]       

 cryst.   s( 6) = (     0         -1          0      )
                  (    -1          0          0      )
                  (     0          0         -1      )

 cart.    s( 6) = (  0.0000000 -1.0000000  0.0000000 )
                  ( -1.0000000  0.0000000  0.0000000 )
                  (  0.0000000  0.0000000 -1.0000000 )


      isym =  7      90 deg rotation - cart. axis [0,0,-1]       

 cryst.   s( 7) = (     0         -1          0      )
                  (     1          0          0      )
                  (     0          0          1      )

 cart.    s( 7) = (  0.0000000  1.0000000  0.0000000 )
                  ( -1.0000000  0.0000000  0.0000000 )
                  (  0.0000000  0.0000000  1.0000000 )


      isym =  8      90 deg rotation - cart. axis [0,0,1]        

 cryst.   s( 8) = (     0          1          0      )
                  (    -1          0          0      )
                  (     0          0          1      )

 cart.    s( 8) = (  0.0000000 -1.0000000  0.0000000 )
                  (  1.0000000  0.0000000  0.0000000 )
                  (  0.0000000  0.0000000  1.0000000 )


      isym =  9     180 deg rotation - cart. axis [1,0,1]        

 cryst.   s( 9) = (     0          0          1      )
                  (     0         -1          0      )
                  (     1          0          0      )

 cart.    s( 9) = (  0.0000000  0.0000000  1.0000000 )
                  (  0.0000000 -1.0000000  0.0000000 )
                  (  1.0000000  0.0000000  0.0000000 )


      isym = 10     180 deg rotation - cart. axis [-1,0,1]       

 cryst.   s(10) = (     0          0         -1      )
                  (     0         -1          0      )
                  (    -1          0          0      )

 cart.    s(10) = (  0.0000000  0.0000000 -1.0000000 )
                  (  0.0000000 -1.0000000  0.0000000 )
                  ( -1.0000000  0.0000000  0.0000000 )


      isym = 11      90 deg rotation - cart. axis [0,1,0]        

 cryst.   s(11) = (     0          0         -1      )
                  (     0          1          0      )
                  (     1          0          0      )

 cart.    s(11) = (  0.0000000  0.0000000  1.0000000 )
                  (  0.0000000  1.0000000  0.0000000 )
                  ( -1.0000000  0.0000000  0.0000000 )


      isym = 12      90 deg rotation - cart. axis [0,-1,0]       

 cryst.   s(12) = (     0          0          1      )
                  (     0          1          0      )
                  (    -1          0          0      )

 cart.    s(12) = (  0.0000000  0.0000000 -1.0000000 )
                  (  0.0000000  1.0000000  0.0000000 )
                  (  1.0000000  0.0000000  0.0000000 )


      isym = 13     180 deg rotation - cart. axis [0,1,1]        

 cryst.   s(13) = (    -1          0          0      )
                  (     0          0          1      )
                  (     0          1          0      )

 cart.    s(13) = ( -1.0000000  0.0000000  0.0000000 )
                  (  0.0000000  0.0000000  1.0000000 )
                  (  0.0000000  1.0000000  0.0000000 )


      isym = 14     180 deg rotation - cart. axis [0,1,-1]       

 cryst.   s(14) = (    -1          0          0      )
                  (     0          0         -1      )
                  (     0         -1          0      )

 cart.    s(14) = ( -1.0000000  0.0000000  0.0000000 )
                  (  0.0000000  0.0000000 -1.0000000 )
                  (  0.0000000 -1.0000000  0.0000000 )


      isym = 15      90 deg rotation - cart. axis [-1,0,0]       

 cryst.   s(15) = (     1          0          0      )
                  (     0          0         -1      )
                  (     0          1          0      )

 cart.    s(15) = (  1.0000000  0.0000000  0.0000000 )
                  (  0.0000000  0.0000000  1.0000000 )
                  (  0.0000000 -1.0000000  0.0000000 )


      isym = 16      90 deg rotation - cart. axis [1,0,0]        

 cryst.   s(16) = (     1          0          0      )
                  (     0          0          1      )
                  (     0         -1          0      )

 cart.    s(16) = (  1.0000000  0.0000000  0.0000000 )
                  (  0.0000000  0.0000000 -1.0000000 )
                  (  0.0000000  1.0000000  0.0000000 )


      isym = 17     120 deg rotation - cart. axis [-1,-1,-1]     

 cryst.   s(17) = (     0          0          1      )
                  (     1          0          0      )
                  (     0          1          0      )

 cart.    s(17) = (  0.0000000  1.0000000  0.0000000 )
                  (  0.0000000  0.0000000  1.0000000 )
                  (  1.0000000  0.0000000  0.0000000 )


      isym = 18     120 deg rotation - cart. axis [-1,1,1]       

 cryst.   s(18) = (     0          0         -1      )
                  (    -1          0          0      )
                  (     0          1          0      )

 cart.    s(18) = (  0.0000000 -1.0000000  0.0000000 )
                  (  0.0000000  0.0000000  1.0000000 )
                  ( -1.0000000  0.0000000  0.0000000 )


      isym = 19     120 deg rotation - cart. axis [1,1,-1]       

 cryst.   s(19) = (     0          0         -1      )
                  (     1          0          0      )
                  (     0         -1          0      )

 cart.    s(19) = (  0.0000000  1.0000000  0.0000000 )
                  (  0.0000000  0.0000000 -1.0000000 )
                  ( -1.0000000  0.0000000  0.0000000 )


      isym = 20     120 deg rotation - cart. axis [1,-1,1]       

 cryst.   s(20) = (     0          0          1      )
                  (    -1          0          0      )
                  (     0         -1          0      )

 cart.    s(20) = (  0.0000000 -1.0000000  0.0000000 )
                  (  0.0000000  0.0000000 -1.0000000 )
                  (  1.0000000  0.0000000  0.0000000 )


      isym = 21     120 deg rotation - cart. axis [1,1,1]        

 cryst.   s(21) = (     0          1          0      )
                  (     0          0          1      )
                  (     1          0          0      )

 cart.    s(21) = (  0.0000000  0.0000000  1.0000000 )
                  (  1.0000000  0.0000000  0.0000000 )
                  (  0.0000000  1.0000000  0.0000000 )


      isym = 22     120 deg rotation - cart. axis [-1,1,-1]      

 cryst.   s(22) = (     0         -1          0      )
                  (     0          0         -1      )
                  (     1          0          0      )

 cart.    s(22) = (  0.0000000  0.0000000  1.0000000 )
                  ( -1.0000000  0.0000000  0.0000000 )
                  (  0.0000000 -1.0000000  0.0000000 )


      isym = 23     120 deg rotation - cart. axis [1,-1,-1]      

 cryst.   s(23) = (     0         -1          0      )
                  (     0          0          1      )
                  (    -1          0          0      )

 cart.    s(23) = (  0.0000000  0.0000000 -1.0000000 )
                  ( -1.0000000  0.0000000  0.0000000 )
                  (  0.0000000  1.0000000  0.0000000 )


      isym = 24     120 deg rotation - cart. axis [-1,-1,1]      

 cryst.   s(24) = (     0          1          0      )
                  (     0          0         -1      )
                  (    -1          0          0      )

 cart.    s(24) = (  0.0000000  0.0000000 -1.0000000 )
                  (  1.0000000  0.0000000  0.0000000 )
                  (  0.0000000 -1.0000000  0.0000000 )


      isym = 25     inversion                                    

 cryst.   s(25) = (    -1          0          0      )
                  (     0         -1          0      )
                  (     0          0         -1      )

 cart.    s(25) = ( -1.0000000  0.0000000  0.0000000 )
                  (  0.0000000 -1.0000000  0.0000000 )
                  (  0.0000000  0.0000000 -1.0000000 )


      isym = 26     inv. 180 deg rotation - cart. axis [0,0,1]   

 cryst.   s(26) = (     1          0          0      )
                  (     0          1          0      )
                  (     0          0         -1      )

 cart.    s(26) = (  1.0000000  0.0000000  0.0000000 )
                  (  0.0000000  1.0000000  0.0000000 )
                  (  0.0000000  0.0000000 -1.0000000 )


      isym = 27     inv. 180 deg rotation - cart. axis [0,1,0]   

 cryst.   s(27) = (     1          0          0      )
                  (     0         -1          0      )
                  (     0          0          1      )

 cart.    s(27) = (  1.0000000  0.0000000  0.0000000 )
                  (  0.0000000 -1.0000000  0.0000000 )
                  (  0.0000000  0.0000000  1.0000000 )


      isym = 28     inv. 180 deg rotation - cart. axis [1,0,0]   

 cryst.   s(28) = (    -1          0          0      )
                  (     0          1          0      )
                  (     0          0          1      )

 cart.    s(28) = ( -1.0000000  0.0000000  0.0000000 )
                  (  0.0000000  1.0000000  0.0000000 )
                  (  0.0000000  0.0000000  1.0000000 )


      isym = 29     inv. 180 deg rotation - cart. axis [1,1,0]   

 cryst.   s(29) = (     0         -1          0      )
                  (    -1          0          0      )
                  (     0          0          1      )

 cart.    s(29) = (  0.0000000 -1.0000000  0.0000000 )
                  ( -1.0000000  0.0000000  0.0000000 )
                  (  0.0000000  0.0000000  1.0000000 )


      isym = 30     inv. 180 deg rotation - cart. axis [1,-1,0]  

 cryst.   s(30) = (     0          1          0      )
                  (     1          0          0      )
                  (     0          0          1      )

 cart.    s(30) = (  0.0000000  1.0000000  0.0000000 )
                  (  1.0000000  0.0000000  0.0000000 )
                  (  0.0000000  0.0000000  1.0000000 )


      isym = 31     inv.  90 deg rotation - cart. axis [0,0,-1]  

 cryst.   s(31) = (     0          1          0      )
                  (    -1          0          0      )
                  (     0          0         -1      )

 cart.    s(31) = (  0.0000000 -1.0000000  0.0000000 )
                  (  1.0000000  0.0000000  0.0000000 )
                  (  0.0000000  0.0000000 -1.0000000 )


      isym = 32     inv.  90 deg rotation - cart. axis [0,0,1]   

 cryst.   s(32) = (     0         -1          0      )
                  (     1          0          0      )
                  (     0          0         -1      )

 cart.    s(32) = (  0.0000000  1.0000000  0.0000000 )
                  ( -1.0000000  0.0000000  0.0000000 )
                  (  0.0000000  0.0000000 -1.0000000 )


      isym = 33     inv. 180 deg rotation - cart. axis [1,0,1]   

 cryst.   s(33) = (     0          0         -1      )
                  (     0          1          0      )
                  (    -1          0          0      )

 cart.    s(33) = (  0.0000000  0.0000000 -1.0000000 )
                  (  0.0000000  1.0000000  0.0000000 )
                  ( -1.0000000  0.0000000  0.0000000 )


      isym = 34     inv. 180 deg rotation - cart. axis [-1,0,1]  

 cryst.   s(34) = (     0          0          1      )
                  (     0          1          0      )
                  (     1          0          0      )

 cart.    s(34) = (  0.0000000  0.0000000  1.0000000 )
                  (  0.0000000  1.0000000  0.0000000 )
                  (  1.0000000  0.0000000  0.0000000 )


      isym = 35     inv.  90 deg rotation - cart. axis [0,1,0]   

 cryst.   s(35) = (     0          0          1      )
                  (     0         -1          0      )
                  (    -1          0          0      )

 cart.    s(35) = (  0.0000000  0.0000000 -1.0000000 )
                  (  0.0000000 -1.0000000  0.0000000 )
                  (  1.0000000  0.0000000  0.0000000 )


      isym = 36     inv.  90 deg rotation - cart. axis [0,-1,0]  

 cryst.   s(36) = (     0          0         -1      )
                  (     0         -1          0      )
                  (     1          0          0      )

 cart.    s(36) = (  0.0000000  0.0000000  1.0000000 )
                  (  0.0000000 -1.0000000  0.0000000 )
                  ( -1.0000000  0.0000000  0.0000000 )


      isym = 37     inv. 180 deg rotation - cart. axis [0,1,1]   

 cryst.   s(37) = (     1          0          0      )
                  (     0          0         -1      )
                  (     0         -1          0      )

 cart.    s(37) = (  1.0000000  0.0000000  0.0000000 )
                  (  0.0000000  0.0000000 -1.0000000 )
                  (  0.0000000 -1.0000000  0.0000000 )


      isym = 38     inv. 180 deg rotation - cart. axis [0,1,-1]  

 cryst.   s(38) = (     1          0          0      )
                  (     0          0          1      )
                  (     0          1          0      )

 cart.    s(38) = (  1.0000000  0.0000000  0.0000000 )
                  (  0.0000000  0.0000000  1.0000000 )
                  (  0.0000000  1.0000000  0.0000000 )


      isym = 39     inv.  90 deg rotation - cart. axis [-1,0,0]  

 cryst.   s(39) = (    -1          0          0      )
                  (     0          0          1      )
                  (     0         -1          0      )

 cart.    s(39) = ( -1.0000000  0.0000000  0.0000000 )
                  (  0.0000000  0.0000000 -1.0000000 )
                  (  0.0000000  1.0000000  0.0000000 )


      isym = 40     inv.  90 deg rotation - cart. axis [1,0,0]   

 cryst.   s(40) = (    -1          0          0      )
                  (     0          0         -1      )
                  (     0          1          0      )

 cart.    s(40) = ( -1.0000000  0.0000000  0.0000000 )
                  (  0.0000000  0.0000000  1.0000000 )
                  (  0.0000000 -1.0000000  0.0000000 )


      isym = 41     inv. 120 deg rotation - cart. axis [-1,-1,-1]

 cryst.   s(41) = (     0          0         -1      )
                  (    -1          0          0      )
                  (     0         -1          0      )

 cart.    s(41) = (  0.0000000 -1.0000000  0.0000000 )
                  (  0.0000000  0.0000000 -1.0000000 )
                  ( -1.0000000  0.0000000  0.0000000 )


      isym = 42     inv. 120 deg rotation - cart. axis [-1,1,1]  

 cryst.   s(42) = (     0          0          1      )
                  (     1          0          0      )
                  (     0         -1          0      )

 cart.    s(42) = (  0.0000000  1.0000000  0.0000000 )
                  (  0.0000000  0.0000000 -1.0000000 )
                  (  1.0000000  0.0000000  0.0000000 )


      isym = 43     inv. 120 deg rotation - cart. axis [1,1,-1]  

 cryst.   s(43) = (     0          0          1      )
                  (    -1          0          0      )
                  (     0          1          0      )

 cart.    s(43) = (  0.0000000 -1.0000000  0.0000000 )
                  (  0.0000000  0.0000000  1.0000000 )
                  (  1.0000000  0.0000000  0.0000000 )


      isym = 44     inv. 120 deg rotation - cart. axis [1,-1,1]  

 cryst.   s(44) = (     0          0         -1      )
                  (     1          0          0      )
                  (     0          1          0      )

 cart.    s(44) = (  0.0000000  1.0000000  0.0000000 )
                  (  0.0000000  0.0000000  1.0000000 )
                  ( -1.0000000  0.0000000  0.0000000 )


      isym = 45     inv. 120 deg rotation - cart. axis [1,1,1]   

 cryst.   s(45) = (     0         -1          0      )
                  (     0          0         -1      )
                  (    -1          0          0      )

 cart.    s(45) = (  0.0000000  0.0000000 -1.0000000 )
                  ( -1.0000000  0.0000000  0.0000000 )
                  (  0.0000000 -1.0000000  0.0000000 )


      isym = 46     inv. 120 deg rotation - cart. axis [-1,1,-1] 

 cryst.   s(46) = (     0          1          0      )
                  (     0          0          1      )
                  (    -1          0          0      )

 cart.    s(46) = (  0.0000000  0.0000000 -1.0000000 )
                  (  1.0000000  0.0000000  0.0000000 )
                  (  0.0000000  1.0000000  0.0000000 )


      isym = 47     inv. 120 deg rotation - cart. axis [1,-1,-1] 

 cryst.   s(47) = (     0          1          0      )
                  (     0          0         -1      )
                  (     1          0          0      )

 cart.    s(47) = (  0.0000000  0.0000000  1.0000000 )
                  (  1.0000000  0.0000000  0.0000000 )
                  (  0.0000000 -1.0000000  0.0000000 )


      isym = 48     inv. 120 deg rotation - cart. axis [-1,-1,1] 

 cryst.   s(48) = (     0         -1          0      )
                  (     0          0          1      )
                  (     1          0          0      )

 cart.    s(48) = (  0.0000000  0.0000000  1.0000000 )
                  ( -1.0000000  0.0000000  0.0000000 )
                  (  0.0000000  1.0000000  0.0000000 )


   Cartesian axes

     site n.     atom                  positions (alat units)
         1           Pd  tau(   1) = (   0.5000000   0.5000000   0.5000000  )

   Crystallographic axes

     site n.     atom                  positions (cryst. coord.)
         1           Pd  tau(   1) = (  0.5000000  0.5000000  0.5000000  )

     number of k points=     1
                       cart. coord. in units 2pi/alat
        k(    1) = (   0.0000000   0.0000000   0.0000000), wk =   1.0000000

                       cryst. coord.
        k(    1) = (   0.0000000   0.0000000   0.0000000), wk =   1.0000000

     Dense  grid:  8544078 G-vectors     FFT dimensions: ( 320, 320, 320)

     Dynamical RAM for                 wfc:       6.11 MB

     Dynamical RAM for     wfc (w. buffer):      18.33 MB

     Dynamical RAM for           str. fact:       4.07 MB

     Dynamical RAM for           local pot:       0.00 MB

     Dynamical RAM for          nlocal pot:       3.06 MB

     Dynamical RAM for                qrad:       1.83 MB

     Dynamical RAM for          rho,v,vnew:      71.32 MB

     Dynamical RAM for               rhoin:      23.77 MB

     Dynamical RAM for            rho*nmix:     130.37 MB

     Dynamical RAM for           G-vectors:      17.32 MB

     Dynamical RAM for          h,s,v(r/c):       0.00 MB

     Dynamical RAM for          <psi|beta>:       0.00 MB

     Dynamical RAM for                 psi:      24.44 MB

     Dynamical RAM for                hpsi:      24.44 MB

     Dynamical RAM for      wfcinit/wfcrot:      12.22 MB

     Estimated static dynamical RAM per process >     325.09 MB

     Estimated max dynamical RAM per process >     373.99 MB

     Estimated total dynamical RAM >      11.69 GB
     Generating pointlists ...
     new r_m :   0.4125 (alat units)  9.3541 (a.u.) for type    1

     Initial potential from superposition of free atoms

     starting charge   16.00000, renormalised to   18.00000

     negative rho (up, down):  9.330E-05 0.000E+00
     Starting wfcs are    9 randomized atomic wfcs +    3 random wfcs

     total cpu time spent up to now is       11.0 secs

     Self-consistent Calculation

     iteration #  1     ecut=   490.00 Ry     beta= 0.70
     Davidson diagonalization with overlap
     ethr =  1.00E-02,  avg # of iterations =  8.5

     total cpu time spent up to now is       27.9 secs

     total energy              =    -215.50334995 Ry
     Harris-Foulkes estimate   =    -260.30912288 Ry
     estimated scf accuracy    <      54.92163234 Ry

     total magnetization       =     0.00 Bohr mag/cell
     absolute magnetization    =     2.00 Bohr mag/cell

     iteration #  2     ecut=   490.00 Ry     beta= 0.70
     Davidson diagonalization with overlap
     ethr =  1.00E-02,  avg # of iterations =  7.0

     total cpu time spent up to now is       42.2 secs

     total energy              =    -257.44915431 Ry
     Harris-Foulkes estimate   =    -277.34167808 Ry
     estimated scf accuracy    <      33.50992256 Ry

     total magnetization       =    -0.00 Bohr mag/cell
     absolute magnetization    =     0.57 Bohr mag/cell

     iteration #  3     ecut=   490.00 Ry     beta= 0.70
     Davidson diagonalization with overlap
     ethr =  1.00E-02,  avg # of iterations =  4.5

     total cpu time spent up to now is       53.0 secs

     total energy              =    -256.22190144 Ry
     Harris-Foulkes estimate   =    -260.52381315 Ry
     estimated scf accuracy    <       8.88279682 Ry

     total magnetization       =    -0.00 Bohr mag/cell
     absolute magnetization    =     1.50 Bohr mag/cell

     iteration #  4     ecut=   490.00 Ry     beta= 0.70
     Davidson diagonalization with overlap
     ethr =  1.00E-02,  avg # of iterations =  2.0

     total cpu time spent up to now is       62.4 secs

     total energy              =    -255.36520491 Ry
     Harris-Foulkes estimate   =    -256.48885206 Ry
     estimated scf accuracy    <       2.92852454 Ry

     total magnetization       =     0.00 Bohr mag/cell
     absolute magnetization    =     1.56 Bohr mag/cell

     iteration #  5     ecut=   490.00 Ry     beta= 0.70
     Davidson diagonalization with overlap
     ethr =  1.00E-02,  avg # of iterations =  1.5

     total cpu time spent up to now is       70.9 secs

     total energy              =    -254.27908645 Ry
     Harris-Foulkes estimate   =    -255.39934736 Ry
     estimated scf accuracy    <       1.37069736 Ry

     total magnetization       =     0.00 Bohr mag/cell
     absolute magnetization    =     1.59 Bohr mag/cell

     iteration #  6     ecut=   490.00 Ry     beta= 0.70
     Davidson diagonalization with overlap
     ethr =  7.61E-03,  avg # of iterations =  2.0

     negative rho (up, down):  6.354E-03 8.244E-02

     total cpu time spent up to now is       80.5 secs

     total energy              =    -254.79855739 Ry
     Harris-Foulkes estimate   =    -254.64887580 Ry
     estimated scf accuracy    <       0.20595878 Ry

     total magnetization       =     0.00 Bohr mag/cell
     absolute magnetization    =     1.73 Bohr mag/cell

     iteration #  7     ecut=   490.00 Ry     beta= 0.70
     Davidson diagonalization with overlap
     ethr =  1.14E-03,  avg # of iterations =  4.5

     negative rho (up, down):  1.199E-04 1.236E-01

     total cpu time spent up to now is       91.5 secs

     total energy              =    -254.60407927 Ry
     Harris-Foulkes estimate   =    -254.91889017 Ry
     estimated scf accuracy    <       2.10389465 Ry

     total magnetization       =     0.00 Bohr mag/cell
     absolute magnetization    =     1.52 Bohr mag/cell

     iteration #  8     ecut=   490.00 Ry     beta= 0.70
     Davidson diagonalization with overlap
     ethr =  1.14E-03,  avg # of iterations =  2.0

     negative rho (up, down):  1.473E-04 1.823E-01

     total cpu time spent up to now is      100.7 secs

     total energy              =    -254.74322974 Ry
     Harris-Foulkes estimate   =    -254.68197774 Ry
     estimated scf accuracy    <       0.36455271 Ry

     total magnetization       =    -0.00 Bohr mag/cell
     absolute magnetization    =     1.79 Bohr mag/cell

     iteration #  9     ecut=   490.00 Ry     beta= 0.70
     Davidson diagonalization with overlap
     ethr =  1.14E-03,  avg # of iterations =  1.0

     negative rho (up, down):  1.493E-04 1.824E-01

     total cpu time spent up to now is      109.4 secs

     total energy              =    -254.75429142 Ry
     Harris-Foulkes estimate   =    -254.75418877 Ry
     estimated scf accuracy    <       0.86850825 Ry

     total magnetization       =    -0.00 Bohr mag/cell
     absolute magnetization    =     1.74 Bohr mag/cell

     iteration # 10     ecut=   490.00 Ry     beta= 0.70
     Davidson diagonalization with overlap
     ethr =  1.14E-03,  avg # of iterations =  1.0

     negative rho (up, down):  1.544E-03 2.922E-01

     total cpu time spent up to now is      118.0 secs

     total energy              =    -254.83980113 Ry
     Harris-Foulkes estimate   =    -254.75523208 Ry
     estimated scf accuracy    <       0.89833439 Ry

     total magnetization       =     0.00 Bohr mag/cell
     absolute magnetization    =     1.74 Bohr mag/cell

     iteration # 11     ecut=   490.00 Ry     beta= 0.70
     Davidson diagonalization with overlap
     ethr =  1.14E-03,  avg # of iterations =  1.5

     negative rho (up, down):  2.406E-06 2.491E-01

     total cpu time spent up to now is      126.8 secs

     total energy              =    -254.53537707 Ry
     Harris-Foulkes estimate   =    -254.85846876 Ry
     estimated scf accuracy    <       1.75235582 Ry

     total magnetization       =     0.00 Bohr mag/cell
     absolute magnetization    =     1.58 Bohr mag/cell

     iteration # 12     ecut=   490.00 Ry     beta= 0.70
     Davidson diagonalization with overlap
     ethr =  1.14E-03,  avg # of iterations =  2.0

     negative rho (up, down):  7.967E-04 7.885E-01

     total cpu time spent up to now is      135.8 secs

     total energy              =    -254.60952377 Ry
     Harris-Foulkes estimate   =    -254.64512043 Ry
     estimated scf accuracy    <       0.18020247 Ry

     total magnetization       =     0.00 Bohr mag/cell
     absolute magnetization    =     1.81 Bohr mag/cell

     iteration # 13     ecut=   490.00 Ry     beta= 0.70
     Davidson diagonalization with overlap
     ethr =  1.00E-03,  avg # of iterations =  1.0

     negative rho (up, down):  3.467E-03 6.631E-01

     total cpu time spent up to now is      144.0 secs

     total energy              =    -254.60829847 Ry
     Harris-Foulkes estimate   =    -254.61515358 Ry
     estimated scf accuracy    <       0.08017518 Ry

     total magnetization       =    -0.00 Bohr mag/cell
     absolute magnetization    =     1.81 Bohr mag/cell

     iteration # 14     ecut=   490.00 Ry     beta= 0.70
     Davidson diagonalization with overlap
     ethr =  4.45E-04,  avg # of iterations =  1.0

     negative rho (up, down):  2.072E-04 3.585E-01

     total cpu time spent up to now is      152.3 secs

     total energy              =    -254.59691069 Ry
     Harris-Foulkes estimate   =    -254.61015733 Ry
     estimated scf accuracy    <       0.05473431 Ry

     total magnetization       =     0.00 Bohr mag/cell
     absolute magnetization    =     1.79 Bohr mag/cell

     iteration # 15     ecut=   490.00 Ry     beta= 0.70
     Davidson diagonalization with overlap
     ethr =  3.04E-04,  avg # of iterations =  3.0

     negative rho (up, down):  2.313E-08 3.269E-01

     total cpu time spent up to now is      161.5 secs

     total energy              =    -254.60418006 Ry
     Harris-Foulkes estimate   =    -254.60137159 Ry
     estimated scf accuracy    <       0.01252792 Ry

     total magnetization       =     0.00 Bohr mag/cell
     absolute magnetization    =     1.73 Bohr mag/cell

     iteration # 16     ecut=   490.00 Ry     beta= 0.70
     Davidson diagonalization with overlap
     ethr =  6.96E-05,  avg # of iterations =  6.0

     negative rho (up, down):  1.416E-07 1.670E-01

     total cpu time spent up to now is      171.9 secs

     total energy              =    -254.69763621 Ry
     Harris-Foulkes estimate   =    -254.67579544 Ry
     estimated scf accuracy    <       0.16266104 Ry

     total magnetization       =     0.00 Bohr mag/cell
     absolute magnetization    =     0.34 Bohr mag/cell

     iteration # 17     ecut=   490.00 Ry     beta= 0.70
     Davidson diagonalization with overlap
     ethr =  6.96E-05,  avg # of iterations =  2.5

     negative rho (up, down):  0.000E+00 2.257E-01

     total cpu time spent up to now is      181.5 secs

     total energy              =    -254.70105915 Ry
     Harris-Foulkes estimate   =    -254.69986610 Ry
     estimated scf accuracy    <       0.22213486 Ry

     total magnetization       =    -0.00 Bohr mag/cell
     absolute magnetization    =     0.28 Bohr mag/cell

     iteration # 18     ecut=   490.00 Ry     beta= 0.70
     Davidson diagonalization with overlap
     ethr =  6.96E-05,  avg # of iterations =  1.0

     negative rho (up, down):  0.000E+00 2.923E-01

     total cpu time spent up to now is      189.9 secs

     total energy              =    -254.70851282 Ry
     Harris-Foulkes estimate   =    -254.70109515 Ry
     estimated scf accuracy    <       0.22529554 Ry

     total magnetization       =     0.00 Bohr mag/cell
     absolute magnetization    =     0.29 Bohr mag/cell

     iteration # 19     ecut=   490.00 Ry     beta= 0.70
     Davidson diagonalization with overlap
     ethr =  6.96E-05,  avg # of iterations =  1.0

     negative rho (up, down):  0.000E+00 9.512E-02

     total cpu time spent up to now is      198.4 secs

     total energy              =    -254.70305402 Ry
     Harris-Foulkes estimate   =    -254.70875343 Ry
     estimated scf accuracy    <       0.24831967 Ry

     total magnetization       =     0.00 Bohr mag/cell
     absolute magnetization    =     0.29 Bohr mag/cell

     iteration # 20     ecut=   490.00 Ry     beta= 0.70
     Davidson diagonalization with overlap
     ethr =  6.96E-05,  avg # of iterations =  1.0

     total cpu time spent up to now is      206.9 secs

     total energy              =    -254.71114680 Ry
     Harris-Foulkes estimate   =    -254.70357050 Ry
     estimated scf accuracy    <       0.23153697 Ry

     total magnetization       =    -0.00 Bohr mag/cell
     absolute magnetization    =     0.25 Bohr mag/cell

     iteration # 21     ecut=   490.00 Ry     beta= 0.70
     Davidson diagonalization with overlap
     ethr =  6.96E-05,  avg # of iterations =  1.0

     negative rho (up, down):  4.605E-08 4.107E-01

     total cpu time spent up to now is      215.4 secs

     total energy              =    -254.71445334 Ry
     Harris-Foulkes estimate   =    -254.71125957 Ry
     estimated scf accuracy    <       0.24613501 Ry

     total magnetization       =     0.00 Bohr mag/cell
     absolute magnetization    =     0.24 Bohr mag/cell

     iteration # 22     ecut=   490.00 Ry     beta= 0.70
     Davidson diagonalization with overlap
     ethr =  6.96E-05,  avg # of iterations =  2.5

     total cpu time spent up to now is      224.2 secs

     total energy              =    -254.71234409 Ry
     Harris-Foulkes estimate   =    -254.71451922 Ry
     estimated scf accuracy    <       0.25703508 Ry

     total magnetization       =     0.00 Bohr mag/cell
     absolute magnetization    =     0.24 Bohr mag/cell

     iteration # 23     ecut=   490.00 Ry     beta= 0.70
     Davidson diagonalization with overlap
     ethr =  6.96E-05,  avg # of iterations =  1.0

     negative rho (up, down):  4.094E-06 4.754E-01

     total cpu time spent up to now is      232.6 secs

     total energy              =    -254.71623004 Ry
     Harris-Foulkes estimate   =    -254.71235760 Ry
     estimated scf accuracy    <       0.25378523 Ry

     total magnetization       =     0.00 Bohr mag/cell
     absolute magnetization    =     0.24 Bohr mag/cell

     iteration # 24     ecut=   490.00 Ry     beta= 0.70
     Davidson diagonalization with overlap
     ethr =  6.96E-05,  avg # of iterations =  1.0

     negative rho (up, down):  4.810E-03 2.698E-01

     total cpu time spent up to now is      240.9 secs

     total energy              =    -254.60334636 Ry
     Harris-Foulkes estimate   =    -254.71628411 Ry
     estimated scf accuracy    <       0.26719326 Ry

     total magnetization       =     0.00 Bohr mag/cell
     absolute magnetization    =     0.24 Bohr mag/cell

     iteration # 25     ecut=   490.00 Ry     beta= 0.70
     Davidson diagonalization with overlap
     ethr =  6.96E-05,  avg # of iterations =  4.5

     negative rho (up, down):  2.622E-03 1.279E-01

     total cpu time spent up to now is      252.6 secs

     total energy              =    -254.61808088 Ry
     Harris-Foulkes estimate   =    -254.68876112 Ry
     estimated scf accuracy    <       0.18961409 Ry

     total magnetization       =     0.00 Bohr mag/cell
     absolute magnetization    =     1.11 Bohr mag/cell

     iteration # 26     ecut=   490.00 Ry     beta= 0.70
     Davidson diagonalization with overlap
     ethr =  6.96E-05,  avg # of iterations =  6.5

     negative rho (up, down):  2.344E-03 9.794E-02

     total cpu time spent up to now is      264.9 secs

     total energy              =    -254.68061511 Ry
     Harris-Foulkes estimate   =    -254.68710402 Ry
     estimated scf accuracy    <       0.05244161 Ry

     total magnetization       =     0.00 Bohr mag/cell
     absolute magnetization    =     0.38 Bohr mag/cell

     iteration # 27     ecut=   490.00 Ry     beta= 0.70
     Davidson diagonalization with overlap
     ethr =  6.96E-05,  avg # of iterations =  2.0

     negative rho (up, down):  8.673E-04 9.777E-02

     total cpu time spent up to now is      273.7 secs

     total energy              =    -254.67648187 Ry
     Harris-Foulkes estimate   =    -254.68157562 Ry
     estimated scf accuracy    <       0.02287290 Ry

     total magnetization       =    -0.00 Bohr mag/cell
     absolute magnetization    =     0.38 Bohr mag/cell

     iteration # 28     ecut=   490.00 Ry     beta= 0.70
     Davidson diagonalization with overlap
     ethr =  6.96E-05,  avg # of iterations =  2.0

     negative rho (up, down):  2.968E-04 9.740E-02

     total cpu time spent up to now is      282.9 secs

     total energy              =    -254.67749279 Ry
     Harris-Foulkes estimate   =    -254.67806786 Ry
     estimated scf accuracy    <       0.00310985 Ry

     total magnetization       =    -0.00 Bohr mag/cell
     absolute magnetization    =     0.37 Bohr mag/cell

     iteration # 29     ecut=   490.00 Ry     beta= 0.70
     Davidson diagonalization with overlap
     ethr =  1.73E-05,  avg # of iterations =  3.5

     negative rho (up, down):  2.990E-05 8.167E-02

     total cpu time spent up to now is      292.3 secs

     total energy              =    -254.67767117 Ry
     Harris-Foulkes estimate   =    -254.67775894 Ry
     estimated scf accuracy    <       0.00048424 Ry

     total magnetization       =     0.00 Bohr mag/cell
     absolute magnetization    =     0.34 Bohr mag/cell

     iteration # 30     ecut=   490.00 Ry     beta= 0.70
     Davidson diagonalization with overlap
     ethr =  2.69E-06,  avg # of iterations =  4.0

     total cpu time spent up to now is      302.6 secs

     total energy              =    -254.67775660 Ry
     Harris-Foulkes estimate   =    -254.67775005 Ry
     estimated scf accuracy    <       0.00004819 Ry

     total magnetization       =     0.00 Bohr mag/cell
     absolute magnetization    =     0.34 Bohr mag/cell

     iteration # 31     ecut=   490.00 Ry     beta= 0.70
     Davidson diagonalization with overlap
     ethr =  2.68E-07,  avg # of iterations =  5.5

     total cpu time spent up to now is      313.4 secs

     total energy              =    -254.67778908 Ry
     Harris-Foulkes estimate   =    -254.67778379 Ry
     estimated scf accuracy    <       0.00001054 Ry

     total magnetization       =     0.00 Bohr mag/cell
     absolute magnetization    =     0.31 Bohr mag/cell

     iteration # 32     ecut=   490.00 Ry     beta= 0.70
     Davidson diagonalization with overlap
     ethr =  5.86E-08,  avg # of iterations =  2.5

     total cpu time spent up to now is      323.0 secs

     total energy              =    -254.67778227 Ry
     Harris-Foulkes estimate   =    -254.67779618 Ry
     estimated scf accuracy    <       0.00000288 Ry

     total magnetization       =     0.00 Bohr mag/cell
     absolute magnetization    =     0.29 Bohr mag/cell

     iteration # 33     ecut=   490.00 Ry     beta= 0.70
     Davidson diagonalization with overlap
     ethr =  1.60E-08,  avg # of iterations =  4.0
 
     Magnetic moment per site:
     atom:    1    charge:   17.9998    magn:    0.0000    constr:    0.0000

     total cpu time spent up to now is      332.7 secs

     End of self-consistent calculation

 ------ SPIN UP ------------


          k = 0.0000 0.0000 0.0000 (****** PWs)   bands (ev):

   -85.5172 -51.1166 -51.0866 -51.0804  -3.9322  -3.9147  -3.9012  -3.8645
    -3.8622  -3.1723  -0.1240  -0.0711

     occupation numbers 
     1.0000   1.0000   1.0000   1.0000   1.0000   1.0000   1.0000   1.0000
     1.0000   0.0000   0.0000   0.0000

 ------ SPIN DOWN ----------


          k = 0.0000 0.0000 0.0000 (****** PWs)   bands (ev):

   -85.5171 -51.1185 -51.0857 -51.0791  -3.9307  -3.9150  -3.9001  -3.8659
    -3.8637  -3.1723  -0.1222  -0.0726

     occupation numbers 
     1.0000   1.0000   1.0000   1.0000   1.0000   1.0000   1.0000   1.0000
     1.0000   0.0000   0.0000   0.0000

     highest occupied, lowest unoccupied level (ev):    -3.8622   -3.1723

!    total energy              =    -254.67781534 Ry
     Harris-Foulkes estimate   =    -254.67781442 Ry
     estimated scf accuracy    <       0.00000060 Ry

     The total energy is the sum of the following terms:

     one-electron contribution =    -372.45322930 Ry
     hartree contribution      =     183.88819329 Ry
     xc contribution           =     -25.57408399 Ry
     ewald contribution        =     -40.53869533 Ry

     total magnetization       =    -0.00 Bohr mag/cell
     absolute magnetization    =     0.26 Bohr mag/cell

     convergence has been achieved in  33 iterations

     Writing output data file pwscf.save/
 
     init_run     :     10.26s CPU     10.79s WALL (       1 calls)
     electrons    :    313.65s CPU    322.53s WALL (       1 calls)

     Called by init_run:
     wfcinit      :      1.62s CPU      1.78s WALL (       1 calls)
     wfcinit:atom :      0.02s CPU      0.03s WALL (       2 calls)
     wfcinit:wfcr :      1.57s CPU      1.71s WALL (       2 calls)
     potinit      :      2.39s CPU      2.57s WALL (       1 calls)
     hinit0       :      0.27s CPU      0.38s WALL (       1 calls)

     Called by electrons:
     c_bands      :    153.99s CPU    155.69s WALL (      33 calls)
     sum_band     :     50.22s CPU     50.35s WALL (      33 calls)
     v_of_rho     :     80.40s CPU     84.32s WALL (      34 calls)
     v_h          :      6.10s CPU      6.68s WALL (      34 calls)
     v_xc         :     74.30s CPU     77.63s WALL (      34 calls)
     mix_rho      :     28.25s CPU     31.02s WALL (      33 calls)

     Called by c_bands:
     init_us_2    :      0.99s CPU      0.99s WALL (     134 calls)
     regterg      :    152.50s CPU    154.16s WALL (      66 calls)

     Called by sum_band:

     Called by *egterg:
     h_psi        :    138.68s CPU    139.08s WALL (     256 calls)
     g_psi        :      0.50s CPU      0.50s WALL (     188 calls)
     rdiaghg      :      0.27s CPU      0.31s WALL (     254 calls)
     regterg:over :      3.30s CPU      3.31s WALL (     188 calls)
     regterg:upda :      6.57s CPU      6.65s WALL (     188 calls)
     regterg:last :      1.97s CPU      1.97s WALL (      73 calls)
     rdiaghg:chol :      0.05s CPU      0.06s WALL (     254 calls)
     rdiaghg:inve :      0.01s CPU      0.01s WALL (     254 calls)
     rdiaghg:para :      0.03s CPU      0.03s WALL (     508 calls)

     Called by h_psi:
     h_psi:pot    :    137.69s CPU    138.08s WALL (     256 calls)
     h_psi:calbec :      0.52s CPU      0.59s WALL (     256 calls)
     vloc_psi     :    136.24s CPU    136.57s WALL (     256 calls)
     add_vuspsi   :      0.91s CPU      0.91s WALL (     256 calls)

     General routines
     calbec       :      0.52s CPU      0.59s WALL (     256 calls)
     fft          :     66.61s CPU     67.29s WALL (     506 calls)
     ffts         :      7.39s CPU      7.41s WALL (      66 calls)
     fftw         :    132.64s CPU    132.98s WALL (    2628 calls)
 
     Parallel routines
     fft_scatt_xy :     37.71s CPU     37.77s WALL (    3200 calls)
     fft_scatt_yz :     72.64s CPU     73.21s WALL (    3200 calls)
 
     PWSCF        :   5m24.66s CPU   5m35.46s WALL

 
   This run was terminated on:  17:21:24  17Jan2022            

=------------------------------------------------------------------------------=
   JOB DONE.
=------------------------------------------------------------------------------=
