/global/cscratch1/sd/bkincaid/cutoffs/Pd/250-610/runs/scf_580

     Program PWSCF v.6.4.1 starts on 17Jan2022 at 17:56:44 

     This program is part of the open-source Quantum ESPRESSO suite
     for quantum simulation of materials; please cite
         "P. Giannozzi et al., J. Phys.:Condens. Matter 21 395502 (2009);
         "P. Giannozzi et al., J. Phys.:Condens. Matter 29 465901 (2017);
          URL http://www.quantum-espresso.org", 
     in publications or presentations arising from this work. More details at
     http://www.quantum-espresso.org/quote

     Parallel version (MPI & OpenMP), running on      32 processor cores
     Number of MPI processes:                32
     Threads/MPI process:                     1

     MPI processes distributed on     1 nodes
     R & G space division:  proc/nbgrp/npool/nimage =      32
     Reading input from scf_580.in

     Current dimensions of program PWSCF are:
     Max number of different atomic species (ntypx) = 10
     Max number of k-points (npk) =  40000
     Max angular momentum in pseudopotentials (lmaxx) =  3

     IMPORTANT: XC functional enforced from input :
     Exchange-correlation      = PBE ( 1  4  3  4 0 0)
     Any further DFT definition will be discarded
     Please, verify this is what you really want


     gamma-point specific algorithms are used

     Subspace diagonalization in iterative solution of the eigenvalue problem:
     one sub-group per band group will be used
     scalapack distributed-memory algorithm (size of sub-group:  4*  4 procs)

     Message from routine setup:
     DEPRECATED: symmetry with ibrav=0, use correct ibrav instead
 
     Parallelization info
     --------------------
     sticks:   dense  smooth     PW     G-vecs:    dense   smooth      PW
     Min        2966    2966    739               687670   687670   85944
     Max        2969    2969    742               687678   687678   85958
     Sum       94917   94917  23709             22005543 22005543 2750393
 


     bravais-lattice index     =            0
     lattice parameter (alat)  =      22.6767  a.u.
     unit-cell volume          =   11661.1222 (a.u.)^3
     number of atoms/cell      =            1
     number of atomic types    =            1
     number of electrons       =        18.00 (up:   9.00, down:   9.00)
     number of Kohn-Sham states=           12
     kinetic-energy cutoff     =     580.0000  Ry
     charge density cutoff     =    2320.0000  Ry
     convergence threshold     =      1.0E-06
     mixing beta               =       0.7000
     number of iterations used =            8  plain     mixing
     Exchange-correlation      = PBE ( 1  4  3  4 0 0)

     celldm(1)=  22.676714  celldm(2)=   0.000000  celldm(3)=   0.000000
     celldm(4)=   0.000000  celldm(5)=   0.000000  celldm(6)=   0.000000

     crystal axes: (cart. coord. in units of alat)
               a(1) = (   1.000000   0.000000   0.000000 )  
               a(2) = (   0.000000   1.000000   0.000000 )  
               a(3) = (   0.000000   0.000000   1.000000 )  

     reciprocal axes: (cart. coord. in units 2 pi/alat)
               b(1) = (  1.000000  0.000000  0.000000 )  
               b(2) = (  0.000000  1.000000  0.000000 )  
               b(3) = (  0.000000  0.000000  1.000000 )  


     PseudoPot. # 1 for Pd read from file:
     ./Pd.upf
     MD5 check sum: 2db6b29890942ac22920366b342684d2
     Pseudo is Norm-conserving, Zval = 18.0
     Generated by new atomic code, or converted to UPF format
     Using radial grid of 1174 points,  2 beta functions with: 
                l(1) =   0
                l(2) =   2

     atomic species   valence    mass     pseudopotential
        Pd            18.00   106.42000     Pd( 1.00)

     Starting magnetic structure 
     atomic species   magnetization
        Pd           0.500

     48 Sym. Ops., with inversion, found


                                    s                        frac. trans.

      isym =  1     identity                                     

 cryst.   s( 1) = (     1          0          0      )
                  (     0          1          0      )
                  (     0          0          1      )

 cart.    s( 1) = (  1.0000000  0.0000000  0.0000000 )
                  (  0.0000000  1.0000000  0.0000000 )
                  (  0.0000000  0.0000000  1.0000000 )


      isym =  2     180 deg rotation - cart. axis [0,0,1]        

 cryst.   s( 2) = (    -1          0          0      )
                  (     0         -1          0      )
                  (     0          0          1      )

 cart.    s( 2) = ( -1.0000000  0.0000000  0.0000000 )
                  (  0.0000000 -1.0000000  0.0000000 )
                  (  0.0000000  0.0000000  1.0000000 )


      isym =  3     180 deg rotation - cart. axis [0,1,0]        

 cryst.   s( 3) = (    -1          0          0      )
                  (     0          1          0      )
                  (     0          0         -1      )

 cart.    s( 3) = ( -1.0000000  0.0000000  0.0000000 )
                  (  0.0000000  1.0000000  0.0000000 )
                  (  0.0000000  0.0000000 -1.0000000 )


      isym =  4     180 deg rotation - cart. axis [1,0,0]        

 cryst.   s( 4) = (     1          0          0      )
                  (     0         -1          0      )
                  (     0          0         -1      )

 cart.    s( 4) = (  1.0000000  0.0000000  0.0000000 )
                  (  0.0000000 -1.0000000  0.0000000 )
                  (  0.0000000  0.0000000 -1.0000000 )


      isym =  5     180 deg rotation - cart. axis [1,1,0]        

 cryst.   s( 5) = (     0          1          0      )
                  (     1          0          0      )
                  (     0          0         -1      )

 cart.    s( 5) = (  0.0000000  1.0000000  0.0000000 )
                  (  1.0000000  0.0000000  0.0000000 )
                  (  0.0000000  0.0000000 -1.0000000 )


      isym =  6     180 deg rotation - cart. axis [1,-1,0]       

 cryst.   s( 6) = (     0         -1          0      )
                  (    -1          0          0      )
                  (     0          0         -1      )

 cart.    s( 6) = (  0.0000000 -1.0000000  0.0000000 )
                  ( -1.0000000  0.0000000  0.0000000 )
                  (  0.0000000  0.0000000 -1.0000000 )


      isym =  7      90 deg rotation - cart. axis [0,0,-1]       

 cryst.   s( 7) = (     0         -1          0      )
                  (     1          0          0      )
                  (     0          0          1      )

 cart.    s( 7) = (  0.0000000  1.0000000  0.0000000 )
                  ( -1.0000000  0.0000000  0.0000000 )
                  (  0.0000000  0.0000000  1.0000000 )


      isym =  8      90 deg rotation - cart. axis [0,0,1]        

 cryst.   s( 8) = (     0          1          0      )
                  (    -1          0          0      )
                  (     0          0          1      )

 cart.    s( 8) = (  0.0000000 -1.0000000  0.0000000 )
                  (  1.0000000  0.0000000  0.0000000 )
                  (  0.0000000  0.0000000  1.0000000 )


      isym =  9     180 deg rotation - cart. axis [1,0,1]        

 cryst.   s( 9) = (     0          0          1      )
                  (     0         -1          0      )
                  (     1          0          0      )

 cart.    s( 9) = (  0.0000000  0.0000000  1.0000000 )
                  (  0.0000000 -1.0000000  0.0000000 )
                  (  1.0000000  0.0000000  0.0000000 )


      isym = 10     180 deg rotation - cart. axis [-1,0,1]       

 cryst.   s(10) = (     0          0         -1      )
                  (     0         -1          0      )
                  (    -1          0          0      )

 cart.    s(10) = (  0.0000000  0.0000000 -1.0000000 )
                  (  0.0000000 -1.0000000  0.0000000 )
                  ( -1.0000000  0.0000000  0.0000000 )


      isym = 11      90 deg rotation - cart. axis [0,1,0]        

 cryst.   s(11) = (     0          0         -1      )
                  (     0          1          0      )
                  (     1          0          0      )

 cart.    s(11) = (  0.0000000  0.0000000  1.0000000 )
                  (  0.0000000  1.0000000  0.0000000 )
                  ( -1.0000000  0.0000000  0.0000000 )


      isym = 12      90 deg rotation - cart. axis [0,-1,0]       

 cryst.   s(12) = (     0          0          1      )
                  (     0          1          0      )
                  (    -1          0          0      )

 cart.    s(12) = (  0.0000000  0.0000000 -1.0000000 )
                  (  0.0000000  1.0000000  0.0000000 )
                  (  1.0000000  0.0000000  0.0000000 )


      isym = 13     180 deg rotation - cart. axis [0,1,1]        

 cryst.   s(13) = (    -1          0          0      )
                  (     0          0          1      )
                  (     0          1          0      )

 cart.    s(13) = ( -1.0000000  0.0000000  0.0000000 )
                  (  0.0000000  0.0000000  1.0000000 )
                  (  0.0000000  1.0000000  0.0000000 )


      isym = 14     180 deg rotation - cart. axis [0,1,-1]       

 cryst.   s(14) = (    -1          0          0      )
                  (     0          0         -1      )
                  (     0         -1          0      )

 cart.    s(14) = ( -1.0000000  0.0000000  0.0000000 )
                  (  0.0000000  0.0000000 -1.0000000 )
                  (  0.0000000 -1.0000000  0.0000000 )


      isym = 15      90 deg rotation - cart. axis [-1,0,0]       

 cryst.   s(15) = (     1          0          0      )
                  (     0          0         -1      )
                  (     0          1          0      )

 cart.    s(15) = (  1.0000000  0.0000000  0.0000000 )
                  (  0.0000000  0.0000000  1.0000000 )
                  (  0.0000000 -1.0000000  0.0000000 )


      isym = 16      90 deg rotation - cart. axis [1,0,0]        

 cryst.   s(16) = (     1          0          0      )
                  (     0          0          1      )
                  (     0         -1          0      )

 cart.    s(16) = (  1.0000000  0.0000000  0.0000000 )
                  (  0.0000000  0.0000000 -1.0000000 )
                  (  0.0000000  1.0000000  0.0000000 )


      isym = 17     120 deg rotation - cart. axis [-1,-1,-1]     

 cryst.   s(17) = (     0          0          1      )
                  (     1          0          0      )
                  (     0          1          0      )

 cart.    s(17) = (  0.0000000  1.0000000  0.0000000 )
                  (  0.0000000  0.0000000  1.0000000 )
                  (  1.0000000  0.0000000  0.0000000 )


      isym = 18     120 deg rotation - cart. axis [-1,1,1]       

 cryst.   s(18) = (     0          0         -1      )
                  (    -1          0          0      )
                  (     0          1          0      )

 cart.    s(18) = (  0.0000000 -1.0000000  0.0000000 )
                  (  0.0000000  0.0000000  1.0000000 )
                  ( -1.0000000  0.0000000  0.0000000 )


      isym = 19     120 deg rotation - cart. axis [1,1,-1]       

 cryst.   s(19) = (     0          0         -1      )
                  (     1          0          0      )
                  (     0         -1          0      )

 cart.    s(19) = (  0.0000000  1.0000000  0.0000000 )
                  (  0.0000000  0.0000000 -1.0000000 )
                  ( -1.0000000  0.0000000  0.0000000 )


      isym = 20     120 deg rotation - cart. axis [1,-1,1]       

 cryst.   s(20) = (     0          0          1      )
                  (    -1          0          0      )
                  (     0         -1          0      )

 cart.    s(20) = (  0.0000000 -1.0000000  0.0000000 )
                  (  0.0000000  0.0000000 -1.0000000 )
                  (  1.0000000  0.0000000  0.0000000 )


      isym = 21     120 deg rotation - cart. axis [1,1,1]        

 cryst.   s(21) = (     0          1          0      )
                  (     0          0          1      )
                  (     1          0          0      )

 cart.    s(21) = (  0.0000000  0.0000000  1.0000000 )
                  (  1.0000000  0.0000000  0.0000000 )
                  (  0.0000000  1.0000000  0.0000000 )


      isym = 22     120 deg rotation - cart. axis [-1,1,-1]      

 cryst.   s(22) = (     0         -1          0      )
                  (     0          0         -1      )
                  (     1          0          0      )

 cart.    s(22) = (  0.0000000  0.0000000  1.0000000 )
                  ( -1.0000000  0.0000000  0.0000000 )
                  (  0.0000000 -1.0000000  0.0000000 )


      isym = 23     120 deg rotation - cart. axis [1,-1,-1]      

 cryst.   s(23) = (     0         -1          0      )
                  (     0          0          1      )
                  (    -1          0          0      )

 cart.    s(23) = (  0.0000000  0.0000000 -1.0000000 )
                  ( -1.0000000  0.0000000  0.0000000 )
                  (  0.0000000  1.0000000  0.0000000 )


      isym = 24     120 deg rotation - cart. axis [-1,-1,1]      

 cryst.   s(24) = (     0          1          0      )
                  (     0          0         -1      )
                  (    -1          0          0      )

 cart.    s(24) = (  0.0000000  0.0000000 -1.0000000 )
                  (  1.0000000  0.0000000  0.0000000 )
                  (  0.0000000 -1.0000000  0.0000000 )


      isym = 25     inversion                                    

 cryst.   s(25) = (    -1          0          0      )
                  (     0         -1          0      )
                  (     0          0         -1      )

 cart.    s(25) = ( -1.0000000  0.0000000  0.0000000 )
                  (  0.0000000 -1.0000000  0.0000000 )
                  (  0.0000000  0.0000000 -1.0000000 )


      isym = 26     inv. 180 deg rotation - cart. axis [0,0,1]   

 cryst.   s(26) = (     1          0          0      )
                  (     0          1          0      )
                  (     0          0         -1      )

 cart.    s(26) = (  1.0000000  0.0000000  0.0000000 )
                  (  0.0000000  1.0000000  0.0000000 )
                  (  0.0000000  0.0000000 -1.0000000 )


      isym = 27     inv. 180 deg rotation - cart. axis [0,1,0]   

 cryst.   s(27) = (     1          0          0      )
                  (     0         -1          0      )
                  (     0          0          1      )

 cart.    s(27) = (  1.0000000  0.0000000  0.0000000 )
                  (  0.0000000 -1.0000000  0.0000000 )
                  (  0.0000000  0.0000000  1.0000000 )


      isym = 28     inv. 180 deg rotation - cart. axis [1,0,0]   

 cryst.   s(28) = (    -1          0          0      )
                  (     0          1          0      )
                  (     0          0          1      )

 cart.    s(28) = ( -1.0000000  0.0000000  0.0000000 )
                  (  0.0000000  1.0000000  0.0000000 )
                  (  0.0000000  0.0000000  1.0000000 )


      isym = 29     inv. 180 deg rotation - cart. axis [1,1,0]   

 cryst.   s(29) = (     0         -1          0      )
                  (    -1          0          0      )
                  (     0          0          1      )

 cart.    s(29) = (  0.0000000 -1.0000000  0.0000000 )
                  ( -1.0000000  0.0000000  0.0000000 )
                  (  0.0000000  0.0000000  1.0000000 )


      isym = 30     inv. 180 deg rotation - cart. axis [1,-1,0]  

 cryst.   s(30) = (     0          1          0      )
                  (     1          0          0      )
                  (     0          0          1      )

 cart.    s(30) = (  0.0000000  1.0000000  0.0000000 )
                  (  1.0000000  0.0000000  0.0000000 )
                  (  0.0000000  0.0000000  1.0000000 )


      isym = 31     inv.  90 deg rotation - cart. axis [0,0,-1]  

 cryst.   s(31) = (     0          1          0      )
                  (    -1          0          0      )
                  (     0          0         -1      )

 cart.    s(31) = (  0.0000000 -1.0000000  0.0000000 )
                  (  1.0000000  0.0000000  0.0000000 )
                  (  0.0000000  0.0000000 -1.0000000 )


      isym = 32     inv.  90 deg rotation - cart. axis [0,0,1]   

 cryst.   s(32) = (     0         -1          0      )
                  (     1          0          0      )
                  (     0          0         -1      )

 cart.    s(32) = (  0.0000000  1.0000000  0.0000000 )
                  ( -1.0000000  0.0000000  0.0000000 )
                  (  0.0000000  0.0000000 -1.0000000 )


      isym = 33     inv. 180 deg rotation - cart. axis [1,0,1]   

 cryst.   s(33) = (     0          0         -1      )
                  (     0          1          0      )
                  (    -1          0          0      )

 cart.    s(33) = (  0.0000000  0.0000000 -1.0000000 )
                  (  0.0000000  1.0000000  0.0000000 )
                  ( -1.0000000  0.0000000  0.0000000 )


      isym = 34     inv. 180 deg rotation - cart. axis [-1,0,1]  

 cryst.   s(34) = (     0          0          1      )
                  (     0          1          0      )
                  (     1          0          0      )

 cart.    s(34) = (  0.0000000  0.0000000  1.0000000 )
                  (  0.0000000  1.0000000  0.0000000 )
                  (  1.0000000  0.0000000  0.0000000 )


      isym = 35     inv.  90 deg rotation - cart. axis [0,1,0]   

 cryst.   s(35) = (     0          0          1      )
                  (     0         -1          0      )
                  (    -1          0          0      )

 cart.    s(35) = (  0.0000000  0.0000000 -1.0000000 )
                  (  0.0000000 -1.0000000  0.0000000 )
                  (  1.0000000  0.0000000  0.0000000 )


      isym = 36     inv.  90 deg rotation - cart. axis [0,-1,0]  

 cryst.   s(36) = (     0          0         -1      )
                  (     0         -1          0      )
                  (     1          0          0      )

 cart.    s(36) = (  0.0000000  0.0000000  1.0000000 )
                  (  0.0000000 -1.0000000  0.0000000 )
                  ( -1.0000000  0.0000000  0.0000000 )


      isym = 37     inv. 180 deg rotation - cart. axis [0,1,1]   

 cryst.   s(37) = (     1          0          0      )
                  (     0          0         -1      )
                  (     0         -1          0      )

 cart.    s(37) = (  1.0000000  0.0000000  0.0000000 )
                  (  0.0000000  0.0000000 -1.0000000 )
                  (  0.0000000 -1.0000000  0.0000000 )


      isym = 38     inv. 180 deg rotation - cart. axis [0,1,-1]  

 cryst.   s(38) = (     1          0          0      )
                  (     0          0          1      )
                  (     0          1          0      )

 cart.    s(38) = (  1.0000000  0.0000000  0.0000000 )
                  (  0.0000000  0.0000000  1.0000000 )
                  (  0.0000000  1.0000000  0.0000000 )


      isym = 39     inv.  90 deg rotation - cart. axis [-1,0,0]  

 cryst.   s(39) = (    -1          0          0      )
                  (     0          0          1      )
                  (     0         -1          0      )

 cart.    s(39) = ( -1.0000000  0.0000000  0.0000000 )
                  (  0.0000000  0.0000000 -1.0000000 )
                  (  0.0000000  1.0000000  0.0000000 )


      isym = 40     inv.  90 deg rotation - cart. axis [1,0,0]   

 cryst.   s(40) = (    -1          0          0      )
                  (     0          0         -1      )
                  (     0          1          0      )

 cart.    s(40) = ( -1.0000000  0.0000000  0.0000000 )
                  (  0.0000000  0.0000000  1.0000000 )
                  (  0.0000000 -1.0000000  0.0000000 )


      isym = 41     inv. 120 deg rotation - cart. axis [-1,-1,-1]

 cryst.   s(41) = (     0          0         -1      )
                  (    -1          0          0      )
                  (     0         -1          0      )

 cart.    s(41) = (  0.0000000 -1.0000000  0.0000000 )
                  (  0.0000000  0.0000000 -1.0000000 )
                  ( -1.0000000  0.0000000  0.0000000 )


      isym = 42     inv. 120 deg rotation - cart. axis [-1,1,1]  

 cryst.   s(42) = (     0          0          1      )
                  (     1          0          0      )
                  (     0         -1          0      )

 cart.    s(42) = (  0.0000000  1.0000000  0.0000000 )
                  (  0.0000000  0.0000000 -1.0000000 )
                  (  1.0000000  0.0000000  0.0000000 )


      isym = 43     inv. 120 deg rotation - cart. axis [1,1,-1]  

 cryst.   s(43) = (     0          0          1      )
                  (    -1          0          0      )
                  (     0          1          0      )

 cart.    s(43) = (  0.0000000 -1.0000000  0.0000000 )
                  (  0.0000000  0.0000000  1.0000000 )
                  (  1.0000000  0.0000000  0.0000000 )


      isym = 44     inv. 120 deg rotation - cart. axis [1,-1,1]  

 cryst.   s(44) = (     0          0         -1      )
                  (     1          0          0      )
                  (     0          1          0      )

 cart.    s(44) = (  0.0000000  1.0000000  0.0000000 )
                  (  0.0000000  0.0000000  1.0000000 )
                  ( -1.0000000  0.0000000  0.0000000 )


      isym = 45     inv. 120 deg rotation - cart. axis [1,1,1]   

 cryst.   s(45) = (     0         -1          0      )
                  (     0          0         -1      )
                  (    -1          0          0      )

 cart.    s(45) = (  0.0000000  0.0000000 -1.0000000 )
                  ( -1.0000000  0.0000000  0.0000000 )
                  (  0.0000000 -1.0000000  0.0000000 )


      isym = 46     inv. 120 deg rotation - cart. axis [-1,1,-1] 

 cryst.   s(46) = (     0          1          0      )
                  (     0          0          1      )
                  (    -1          0          0      )

 cart.    s(46) = (  0.0000000  0.0000000 -1.0000000 )
                  (  1.0000000  0.0000000  0.0000000 )
                  (  0.0000000  1.0000000  0.0000000 )


      isym = 47     inv. 120 deg rotation - cart. axis [1,-1,-1] 

 cryst.   s(47) = (     0          1          0      )
                  (     0          0         -1      )
                  (     1          0          0      )

 cart.    s(47) = (  0.0000000  0.0000000  1.0000000 )
                  (  1.0000000  0.0000000  0.0000000 )
                  (  0.0000000 -1.0000000  0.0000000 )


      isym = 48     inv. 120 deg rotation - cart. axis [-1,-1,1] 

 cryst.   s(48) = (     0         -1          0      )
                  (     0          0          1      )
                  (     1          0          0      )

 cart.    s(48) = (  0.0000000  0.0000000  1.0000000 )
                  ( -1.0000000  0.0000000  0.0000000 )
                  (  0.0000000  1.0000000  0.0000000 )


   Cartesian axes

     site n.     atom                  positions (alat units)
         1           Pd  tau(   1) = (   0.5000000   0.5000000   0.5000000  )

   Crystallographic axes

     site n.     atom                  positions (cryst. coord.)
         1           Pd  tau(   1) = (  0.5000000  0.5000000  0.5000000  )

     number of k points=     1
                       cart. coord. in units 2pi/alat
        k(    1) = (   0.0000000   0.0000000   0.0000000), wk =   1.0000000

                       cryst. coord.
        k(    1) = (   0.0000000   0.0000000   0.0000000), wk =   1.0000000

     Dense  grid: 11002772 G-vectors     FFT dimensions: ( 360, 360, 360)

     Dynamical RAM for                 wfc:       7.87 MB

     Dynamical RAM for     wfc (w. buffer):      23.61 MB

     Dynamical RAM for           str. fact:       5.25 MB

     Dynamical RAM for           local pot:       0.00 MB

     Dynamical RAM for          nlocal pot:       3.93 MB

     Dynamical RAM for                qrad:       1.99 MB

     Dynamical RAM for          rho,v,vnew:     102.67 MB

     Dynamical RAM for               rhoin:      34.22 MB

     Dynamical RAM for            rho*nmix:     167.89 MB

     Dynamical RAM for           G-vectors:      22.30 MB

     Dynamical RAM for          h,s,v(r/c):       0.00 MB

     Dynamical RAM for          <psi|beta>:       0.00 MB

     Dynamical RAM for                 psi:      31.48 MB

     Dynamical RAM for                hpsi:      31.48 MB

     Dynamical RAM for      wfcinit/wfcrot:      15.74 MB

     Estimated static dynamical RAM per process >     443.54 MB

     Estimated max dynamical RAM per process >     506.50 MB

     Estimated total dynamical RAM >      15.83 GB
     Generating pointlists ...
     new r_m :   0.4125 (alat units)  9.3541 (a.u.) for type    1

     Initial potential from superposition of free atoms

     starting charge   16.00000, renormalised to   18.00000

     negative rho (up, down):  5.459E-04 0.000E+00
     Starting wfcs are    9 randomized atomic wfcs +    3 random wfcs

     total cpu time spent up to now is       15.0 secs

     Self-consistent Calculation

     iteration #  1     ecut=   580.00 Ry     beta= 0.70
     Davidson diagonalization with overlap
     ethr =  1.00E-02,  avg # of iterations =  9.5

     total cpu time spent up to now is       39.7 secs

     total energy              =    -215.57785443 Ry
     Harris-Foulkes estimate   =    -260.36245980 Ry
     estimated scf accuracy    <      54.84812755 Ry

     total magnetization       =    -0.00 Bohr mag/cell
     absolute magnetization    =     2.25 Bohr mag/cell

     iteration #  2     ecut=   580.00 Ry     beta= 0.70
     Davidson diagonalization with overlap
     ethr =  1.00E-02,  avg # of iterations =  7.0

     total cpu time spent up to now is       59.8 secs

     total energy              =    -257.48796138 Ry
     Harris-Foulkes estimate   =    -277.29537668 Ry
     estimated scf accuracy    <      33.44399487 Ry

     total magnetization       =    -0.00 Bohr mag/cell
     absolute magnetization    =     1.23 Bohr mag/cell

     iteration #  3     ecut=   580.00 Ry     beta= 0.70
     Davidson diagonalization with overlap
     ethr =  1.00E-02,  avg # of iterations =  3.0

     total cpu time spent up to now is       74.3 secs

     total energy              =    -256.15500052 Ry
     Harris-Foulkes estimate   =    -259.26026977 Ry
     estimated scf accuracy    <       7.25759683 Ry

     total magnetization       =     0.00 Bohr mag/cell
     absolute magnetization    =     1.27 Bohr mag/cell

     iteration #  4     ecut=   580.00 Ry     beta= 0.70
     Davidson diagonalization with overlap
     ethr =  1.00E-02,  avg # of iterations =  2.0

     total cpu time spent up to now is       86.5 secs

     total energy              =    -253.83068765 Ry
     Harris-Foulkes estimate   =    -256.28410534 Ry
     estimated scf accuracy    <       3.01602281 Ry

     total magnetization       =    -0.00 Bohr mag/cell
     absolute magnetization    =     1.30 Bohr mag/cell

     iteration #  5     ecut=   580.00 Ry     beta= 0.70
     Davidson diagonalization with overlap
     ethr =  1.00E-02,  avg # of iterations =  2.0

     total cpu time spent up to now is      100.0 secs

     total energy              =    -254.32810391 Ry
     Harris-Foulkes estimate   =    -254.37412266 Ry
     estimated scf accuracy    <       0.07511541 Ry

     total magnetization       =     0.00 Bohr mag/cell
     absolute magnetization    =     1.34 Bohr mag/cell

     iteration #  6     ecut=   580.00 Ry     beta= 0.70
     Davidson diagonalization with overlap
     ethr =  4.17E-04,  avg # of iterations =  6.0

     total cpu time spent up to now is      118.1 secs

     total energy              =    -254.60379691 Ry
     Harris-Foulkes estimate   =    -254.90900150 Ry
     estimated scf accuracy    <       0.93014710 Ry

     total magnetization       =    -0.00 Bohr mag/cell
     absolute magnetization    =     1.53 Bohr mag/cell

     iteration #  7     ecut=   580.00 Ry     beta= 0.70
     Davidson diagonalization with overlap
     ethr =  4.17E-04,  avg # of iterations =  2.0

     negative rho (up, down):  1.050E-07 4.277E-02

     total cpu time spent up to now is      132.4 secs

     total energy              =    -254.55425879 Ry
     Harris-Foulkes estimate   =    -254.65477649 Ry
     estimated scf accuracy    <       0.23883257 Ry

     total magnetization       =     0.00 Bohr mag/cell
     absolute magnetization    =     1.53 Bohr mag/cell

     iteration #  8     ecut=   580.00 Ry     beta= 0.70
     Davidson diagonalization with overlap
     ethr =  4.17E-04,  avg # of iterations =  4.5

     negative rho (up, down):  1.036E-07 4.269E-02

     total cpu time spent up to now is      147.5 secs

     total energy              =    -254.78119922 Ry
     Harris-Foulkes estimate   =    -254.78118498 Ry
     estimated scf accuracy    <       0.60642417 Ry

     total magnetization       =     0.00 Bohr mag/cell
     absolute magnetization    =     0.19 Bohr mag/cell

     iteration #  9     ecut=   580.00 Ry     beta= 0.70
     Davidson diagonalization with overlap
     ethr =  4.17E-04,  avg # of iterations =  1.0

     negative rho (up, down):  1.629E-06 6.272E-02

     total cpu time spent up to now is      159.6 secs

     total energy              =    -254.78050584 Ry
     Harris-Foulkes estimate   =    -254.78127770 Ry
     estimated scf accuracy    <       0.60636408 Ry

     total magnetization       =     0.00 Bohr mag/cell
     absolute magnetization    =     0.19 Bohr mag/cell

     iteration # 10     ecut=   580.00 Ry     beta= 0.70
     Davidson diagonalization with overlap
     ethr =  4.17E-04,  avg # of iterations =  1.0

     negative rho (up, down):  2.063E-07 3.623E-02

     total cpu time spent up to now is      171.4 secs

     total energy              =    -254.72691947 Ry
     Harris-Foulkes estimate   =    -254.78052587 Ry
     estimated scf accuracy    <       0.60756213 Ry

     total magnetization       =    -0.00 Bohr mag/cell
     absolute magnetization    =     0.19 Bohr mag/cell

     iteration # 11     ecut=   580.00 Ry     beta= 0.70
     Davidson diagonalization with overlap
     ethr =  4.17E-04,  avg # of iterations =  1.5

     negative rho (up, down):  1.262E-05 1.130E-03

     total cpu time spent up to now is      184.2 secs

     total energy              =    -254.77913751 Ry
     Harris-Foulkes estimate   =    -254.73123660 Ry
     estimated scf accuracy    <       0.41178583 Ry

     total magnetization       =     0.00 Bohr mag/cell
     absolute magnetization    =     0.17 Bohr mag/cell

     iteration # 12     ecut=   580.00 Ry     beta= 0.70
     Davidson diagonalization with overlap
     ethr =  4.17E-04,  avg # of iterations =  2.0

     negative rho (up, down):  3.494E-06 3.565E-02

     total cpu time spent up to now is      197.8 secs

     total energy              =    -254.72518522 Ry
     Harris-Foulkes estimate   =    -254.80248254 Ry
     estimated scf accuracy    <       0.61380152 Ry

     total magnetization       =    -0.00 Bohr mag/cell
     absolute magnetization    =     0.21 Bohr mag/cell

     iteration # 13     ecut=   580.00 Ry     beta= 0.70
     Davidson diagonalization with overlap
     ethr =  4.17E-04,  avg # of iterations =  2.0

     negative rho (up, down):  4.557E-05 1.567E-01

     total cpu time spent up to now is      210.8 secs

     total energy              =    -254.80648144 Ry
     Harris-Foulkes estimate   =    -254.73309584 Ry
     estimated scf accuracy    <       0.36228312 Ry

     total magnetization       =    -0.00 Bohr mag/cell
     absolute magnetization    =     0.22 Bohr mag/cell

     iteration # 14     ecut=   580.00 Ry     beta= 0.70
     Davidson diagonalization with overlap
     ethr =  4.17E-04,  avg # of iterations =  1.5

     negative rho (up, down):  4.349E-05 7.460E-02

     total cpu time spent up to now is      223.3 secs

     total energy              =    -254.68992985 Ry
     Harris-Foulkes estimate   =    -254.81552439 Ry
     estimated scf accuracy    <       0.54652056 Ry

     total magnetization       =     0.00 Bohr mag/cell
     absolute magnetization    =     0.14 Bohr mag/cell

     iteration # 15     ecut=   580.00 Ry     beta= 0.70
     Davidson diagonalization with overlap
     ethr =  4.17E-04,  avg # of iterations =  2.5

     negative rho (up, down):  1.306E-05 1.460E-02

     total cpu time spent up to now is      237.7 secs

     total energy              =    -254.70109608 Ry
     Harris-Foulkes estimate   =    -254.71769275 Ry
     estimated scf accuracy    <       0.53886801 Ry

     total magnetization       =     0.00 Bohr mag/cell
     absolute magnetization    =     0.35 Bohr mag/cell

     iteration # 16     ecut=   580.00 Ry     beta= 0.70
     Davidson diagonalization with overlap
     ethr =  4.17E-04,  avg # of iterations =  1.0

     negative rho (up, down):  1.110E-01 4.087E-01

     total cpu time spent up to now is      249.3 secs

     total energy              =    -254.50254748 Ry
     Harris-Foulkes estimate   =    -254.70502117 Ry
     estimated scf accuracy    <       0.37932396 Ry

     total magnetization       =     0.00 Bohr mag/cell
     absolute magnetization    =     0.30 Bohr mag/cell

     iteration # 17     ecut=   580.00 Ry     beta= 0.70
     Davidson diagonalization with overlap
     ethr =  4.17E-04,  avg # of iterations =  3.0

     negative rho (up, down):  0.000E+00 1.567E-04

     total cpu time spent up to now is      265.7 secs

     total energy              =    -254.51023926 Ry
     Harris-Foulkes estimate   =    -255.01735362 Ry
     estimated scf accuracy    <       2.39962003 Ry

     total magnetization       =     0.00 Bohr mag/cell
     absolute magnetization    =     1.10 Bohr mag/cell

     iteration # 18     ecut=   580.00 Ry     beta= 0.70
     Davidson diagonalization with overlap
     ethr =  4.17E-04,  avg # of iterations =  3.0

     negative rho (up, down):  4.981E-03 2.930E-01

     total cpu time spent up to now is      281.4 secs

     total energy              =    -254.68592069 Ry
     Harris-Foulkes estimate   =    -254.68452827 Ry
     estimated scf accuracy    <       0.19024021 Ry

     total magnetization       =     0.00 Bohr mag/cell
     absolute magnetization    =     1.04 Bohr mag/cell

     iteration # 19     ecut=   580.00 Ry     beta= 0.70
     Davidson diagonalization with overlap
     ethr =  4.17E-04,  avg # of iterations =  1.0

     negative rho (up, down):  0.000E+00 5.891E-01

     total cpu time spent up to now is      293.0 secs

     total energy              =    -254.67165794 Ry
     Harris-Foulkes estimate   =    -254.69501277 Ry
     estimated scf accuracy    <       0.30771882 Ry

     total magnetization       =     0.00 Bohr mag/cell
     absolute magnetization    =     1.55 Bohr mag/cell

     iteration # 20     ecut=   580.00 Ry     beta= 0.70
     Davidson diagonalization with overlap
     ethr =  4.17E-04,  avg # of iterations =  1.0

     negative rho (up, down):  0.000E+00 2.226E-01

     total cpu time spent up to now is      304.8 secs

     total energy              =    -254.69548490 Ry
     Harris-Foulkes estimate   =    -254.67465285 Ry
     estimated scf accuracy    <       0.16778131 Ry

     total magnetization       =    -0.00 Bohr mag/cell
     absolute magnetization    =     1.46 Bohr mag/cell

     iteration # 21     ecut=   580.00 Ry     beta= 0.70
     Davidson diagonalization with overlap
     ethr =  4.17E-04,  avg # of iterations =  1.0

     negative rho (up, down):  0.000E+00 1.813E-01

     total cpu time spent up to now is      316.8 secs

     total energy              =    -254.65346298 Ry
     Harris-Foulkes estimate   =    -254.70104834 Ry
     estimated scf accuracy    <       0.29748423 Ry

     total magnetization       =    -0.00 Bohr mag/cell
     absolute magnetization    =     1.69 Bohr mag/cell

     iteration # 22     ecut=   580.00 Ry     beta= 0.70
     Davidson diagonalization with overlap
     ethr =  4.17E-04,  avg # of iterations =  1.5

     negative rho (up, down):  0.000E+00 1.799E-01

     total cpu time spent up to now is      328.8 secs

     total energy              =    -254.65601759 Ry
     Harris-Foulkes estimate   =    -254.66248390 Ry
     estimated scf accuracy    <       0.07677159 Ry

     total magnetization       =    -0.00 Bohr mag/cell
     absolute magnetization    =     1.43 Bohr mag/cell

     iteration # 23     ecut=   580.00 Ry     beta= 0.70
     Davidson diagonalization with overlap
     ethr =  4.17E-04,  avg # of iterations =  1.0

     negative rho (up, down):  0.000E+00 1.954E-01

     total cpu time spent up to now is      340.6 secs

     total energy              =    -254.67194945 Ry
     Harris-Foulkes estimate   =    -254.65872279 Ry
     estimated scf accuracy    <       0.02099295 Ry

     total magnetization       =    -0.00 Bohr mag/cell
     absolute magnetization    =     1.13 Bohr mag/cell

     iteration # 24     ecut=   580.00 Ry     beta= 0.70
     Davidson diagonalization with overlap
     ethr =  1.17E-04,  avg # of iterations =  2.0

     negative rho (up, down):  8.500E-03 4.017E-02

     total cpu time spent up to now is      353.3 secs

     total energy              =    -254.64097697 Ry
     Harris-Foulkes estimate   =    -254.67974223 Ry
     estimated scf accuracy    <       0.16642284 Ry

     total magnetization       =    -0.00 Bohr mag/cell
     absolute magnetization    =     1.54 Bohr mag/cell

     iteration # 25     ecut=   580.00 Ry     beta= 0.70
     Davidson diagonalization with overlap
     ethr =  1.17E-04,  avg # of iterations =  2.5

     negative rho (up, down):  3.579E-03 5.073E-02

     total cpu time spent up to now is      366.0 secs

     total energy              =    -254.67661876 Ry
     Harris-Foulkes estimate   =    -254.67605180 Ry
     estimated scf accuracy    <       0.00609266 Ry

     total magnetization       =     0.00 Bohr mag/cell
     absolute magnetization    =     0.59 Bohr mag/cell

     iteration # 26     ecut=   580.00 Ry     beta= 0.70
     Davidson diagonalization with overlap
     ethr =  3.38E-05,  avg # of iterations =  7.5

     total cpu time spent up to now is      380.7 secs

     total energy              =    -254.67765682 Ry
     Harris-Foulkes estimate   =    -254.67721190 Ry
     estimated scf accuracy    <       0.00447478 Ry

     total magnetization       =     0.00 Bohr mag/cell
     absolute magnetization    =     0.50 Bohr mag/cell

     iteration # 27     ecut=   580.00 Ry     beta= 0.70
     Davidson diagonalization with overlap
     ethr =  2.49E-05,  avg # of iterations =  2.0

     total cpu time spent up to now is      393.0 secs

     total energy              =    -254.67783479 Ry
     Harris-Foulkes estimate   =    -254.67790336 Ry
     estimated scf accuracy    <       0.00436971 Ry

     total magnetization       =    -0.00 Bohr mag/cell
     absolute magnetization    =     0.44 Bohr mag/cell

     iteration # 28     ecut=   580.00 Ry     beta= 0.70
     Davidson diagonalization with overlap
     ethr =  2.43E-05,  avg # of iterations =  1.5

     negative rho (up, down):  5.945E-06 1.590E-01

     total cpu time spent up to now is      405.0 secs

     total energy              =    -254.67779959 Ry
     Harris-Foulkes estimate   =    -254.67801557 Ry
     estimated scf accuracy    <       0.00258770 Ry

     total magnetization       =     0.00 Bohr mag/cell
     absolute magnetization    =     0.38 Bohr mag/cell

     iteration # 29     ecut=   580.00 Ry     beta= 0.70
     Davidson diagonalization with overlap
     ethr =  1.44E-05,  avg # of iterations =  2.0

     negative rho (up, down):  4.836E-05 6.807E-02

     total cpu time spent up to now is      417.6 secs

     total energy              =    -254.67789181 Ry
     Harris-Foulkes estimate   =    -254.67800493 Ry
     estimated scf accuracy    <       0.00084756 Ry

     total magnetization       =    -0.00 Bohr mag/cell
     absolute magnetization    =     0.33 Bohr mag/cell

     iteration # 30     ecut=   580.00 Ry     beta= 0.70
     Davidson diagonalization with overlap
     ethr =  4.71E-06,  avg # of iterations =  3.0

     negative rho (up, down):  1.623E-05 5.134E-02

     total cpu time spent up to now is      431.0 secs

     total energy              =    -254.67802298 Ry
     Harris-Foulkes estimate   =    -254.67803769 Ry
     estimated scf accuracy    <       0.00007582 Ry

     total magnetization       =     0.00 Bohr mag/cell
     absolute magnetization    =     0.29 Bohr mag/cell

     iteration # 31     ecut=   580.00 Ry     beta= 0.70
     Davidson diagonalization with overlap
     ethr =  4.21E-07,  avg # of iterations =  7.5

     total cpu time spent up to now is      447.3 secs

     total energy              =    -254.67805090 Ry
     Harris-Foulkes estimate   =    -254.67804998 Ry
     estimated scf accuracy    <       0.00000326 Ry

     total magnetization       =    -0.00 Bohr mag/cell
     absolute magnetization    =     0.27 Bohr mag/cell

     iteration # 32     ecut=   580.00 Ry     beta= 0.70
     Davidson diagonalization with overlap
     ethr =  1.81E-08,  avg # of iterations =  3.0

     total cpu time spent up to now is      461.2 secs

     total energy              =    -254.67805193 Ry
     Harris-Foulkes estimate   =    -254.67805220 Ry
     estimated scf accuracy    <       0.00000283 Ry

     total magnetization       =    -0.00 Bohr mag/cell
     absolute magnetization    =     0.26 Bohr mag/cell

     iteration # 33     ecut=   580.00 Ry     beta= 0.70
     Davidson diagonalization with overlap
     ethr =  1.57E-08,  avg # of iterations =  2.5
 
     Magnetic moment per site:
     atom:    1    charge:   17.9998    magn:    0.0000    constr:    0.0000

     total cpu time spent up to now is      472.9 secs

     End of self-consistent calculation

 ------ SPIN UP ------------


          k = 0.0000 0.0000 0.0000 (****** PWs)   bands (ev):

   -85.5087 -51.0924 -51.0849 -51.0822  -3.9317  -3.9055  -3.9030  -3.8522
    -3.8521  -3.1706  -0.1268  -0.0461

     occupation numbers 
     1.0000   1.0000   1.0000   1.0000   1.0000   1.0000   1.0000   1.0000
     1.0000   0.0000   0.0000   0.0000

 ------ SPIN DOWN ----------


          k = 0.0000 0.0000 0.0000 (****** PWs)   bands (ev):

   -85.5084 -51.1159 -51.0720 -51.0704  -3.9090  -3.9080  -3.8796  -3.8736
    -3.8723  -3.1710  -0.1042  -0.0941

     occupation numbers 
     1.0000   1.0000   1.0000   1.0000   1.0000   1.0000   1.0000   1.0000
     1.0000   0.0000   0.0000   0.0000

     highest occupied, lowest unoccupied level (ev):    -3.8521   -3.1710

!    total energy              =    -254.67805444 Ry
     Harris-Foulkes estimate   =    -254.67805403 Ry
     estimated scf accuracy    <       0.00000023 Ry

     The total energy is the sum of the following terms:

     one-electron contribution =    -372.45803115 Ry
     hartree contribution      =     183.89300111 Ry
     xc contribution           =     -25.57432906 Ry
     ewald contribution        =     -40.53869533 Ry

     total magnetization       =    -0.00 Bohr mag/cell
     absolute magnetization    =     0.25 Bohr mag/cell

     convergence has been achieved in  33 iterations

     Writing output data file pwscf.save/
 
     init_run     :     14.23s CPU     14.87s WALL (       1 calls)
     electrons    :    447.05s CPU    459.03s WALL (       1 calls)

     Called by init_run:
     wfcinit      :      2.30s CPU      2.46s WALL (       1 calls)
     wfcinit:atom :      0.02s CPU      0.04s WALL (       2 calls)
     wfcinit:wfcr :      2.23s CPU      2.37s WALL (       2 calls)
     potinit      :      3.38s CPU      3.61s WALL (       1 calls)
     hinit0       :      0.30s CPU      0.42s WALL (       1 calls)

     Called by electrons:
     c_bands      :    223.52s CPU    225.67s WALL (      33 calls)
     sum_band     :     71.71s CPU     71.90s WALL (      33 calls)
     v_of_rho     :    113.05s CPU    118.73s WALL (      34 calls)
     v_h          :      8.81s CPU      9.69s WALL (      34 calls)
     v_xc         :    104.24s CPU    109.04s WALL (      34 calls)
     mix_rho      :     37.81s CPU     41.27s WALL (      33 calls)

     Called by c_bands:
     init_us_2    :      1.28s CPU      1.28s WALL (     134 calls)
     regterg      :    221.59s CPU    223.70s WALL (      66 calls)

     Called by sum_band:

     Called by *egterg:
     h_psi        :    203.56s CPU    203.95s WALL (     255 calls)
     g_psi        :      0.66s CPU      0.66s WALL (     187 calls)
     rdiaghg      :      0.27s CPU      0.31s WALL (     253 calls)
     regterg:over :      4.33s CPU      4.34s WALL (     187 calls)
     regterg:upda :      8.76s CPU      8.84s WALL (     187 calls)
     regterg:last :      2.61s CPU      2.61s WALL (      73 calls)
     rdiaghg:chol :      0.06s CPU      0.07s WALL (     253 calls)
     rdiaghg:inve :      0.01s CPU      0.01s WALL (     253 calls)
     rdiaghg:para :      0.03s CPU      0.03s WALL (     506 calls)

     Called by h_psi:
     h_psi:pot    :    202.23s CPU    202.62s WALL (     255 calls)
     h_psi:calbec :      0.71s CPU      0.74s WALL (     255 calls)
     vloc_psi     :    200.31s CPU    200.68s WALL (     255 calls)
     add_vuspsi   :      1.20s CPU      1.20s WALL (     255 calls)

     General routines
     calbec       :      0.71s CPU      0.74s WALL (     255 calls)
     fft          :     95.56s CPU     96.19s WALL (     506 calls)
     ffts         :     10.17s CPU     10.22s WALL (      66 calls)
     fftw         :    197.06s CPU    197.49s WALL (    2676 calls)
 
     Parallel routines
     fft_scatt_xy :     54.36s CPU     54.43s WALL (    3248 calls)
     fft_scatt_yz :    104.94s CPU    105.60s WALL (    3248 calls)
 
     PWSCF        :   7m42.25s CPU   7m56.48s WALL

 
   This run was terminated on:  18: 4:40  17Jan2022            

=------------------------------------------------------------------------------=
   JOB DONE.
=------------------------------------------------------------------------------=
