/global/cscratch1/sd/bkincaid/cutoffs/W/250-610/runs/scf_370

     Program PWSCF v.6.4.1 starts on 17Jan2022 at 19:50: 2 

     This program is part of the open-source Quantum ESPRESSO suite
     for quantum simulation of materials; please cite
         "P. Giannozzi et al., J. Phys.:Condens. Matter 21 395502 (2009);
         "P. Giannozzi et al., J. Phys.:Condens. Matter 29 465901 (2017);
          URL http://www.quantum-espresso.org", 
     in publications or presentations arising from this work. More details at
     http://www.quantum-espresso.org/quote

     Parallel version (MPI & OpenMP), running on      32 processor cores
     Number of MPI processes:                32
     Threads/MPI process:                     1

     MPI processes distributed on     1 nodes
     R & G space division:  proc/nbgrp/npool/nimage =      32
     Reading input from scf_370.in

     Current dimensions of program PWSCF are:
     Max number of different atomic species (ntypx) = 10
     Max number of k-points (npk) =  40000
     Max angular momentum in pseudopotentials (lmaxx) =  3

     IMPORTANT: XC functional enforced from input :
     Exchange-correlation      = PBE ( 1  4  3  4 0 0)
     Any further DFT definition will be discarded
     Please, verify this is what you really want


     gamma-point specific algorithms are used

     Subspace diagonalization in iterative solution of the eigenvalue problem:
     one sub-group per band group will be used
     scalapack distributed-memory algorithm (size of sub-group:  4*  4 procs)

     Message from routine setup:
     DEPRECATED: symmetry with ibrav=0, use correct ibrav instead
 
     Parallelization info
     --------------------
     sticks:   dense  smooth     PW     G-vecs:    dense   smooth      PW
     Min        1891    1891    472               350435   350435   43784
     Max        1894    1894    474               350450   350450   43798
     Sum       60569   60569  15153             11214149 11214149 1401387
 


     bravais-lattice index     =            0
     lattice parameter (alat)  =      22.6767  a.u.
     unit-cell volume          =   11661.1222 (a.u.)^3
     number of atoms/cell      =            1
     number of atomic types    =            1
     number of electrons       =        14.00 (up:   9.00, down:   5.00)
     number of Kohn-Sham states=           12
     kinetic-energy cutoff     =     370.0000  Ry
     charge density cutoff     =    1480.0000  Ry
     convergence threshold     =      1.0E-06
     mixing beta               =       0.7000
     number of iterations used =            8  plain     mixing
     Exchange-correlation      = PBE ( 1  4  3  4 0 0)

     celldm(1)=  22.676714  celldm(2)=   0.000000  celldm(3)=   0.000000
     celldm(4)=   0.000000  celldm(5)=   0.000000  celldm(6)=   0.000000

     crystal axes: (cart. coord. in units of alat)
               a(1) = (   1.000000   0.000000   0.000000 )  
               a(2) = (   0.000000   1.000000   0.000000 )  
               a(3) = (   0.000000   0.000000   1.000000 )  

     reciprocal axes: (cart. coord. in units 2 pi/alat)
               b(1) = (  1.000000  0.000000  0.000000 )  
               b(2) = (  0.000000  1.000000  0.000000 )  
               b(3) = (  0.000000  0.000000  1.000000 )  


     PseudoPot. # 1 for W  read from file:
     ./W.upf
     MD5 check sum: 4ed05a8c0c5f577ff01fd4795b4ecf91
     Pseudo is Norm-conserving, Zval = 14.0
     Generated by new atomic code, or converted to UPF format
     Using radial grid of 1187 points,  3 beta functions with: 
                l(1) =   0
                l(2) =   2
                l(3) =   3

     atomic species   valence    mass     pseudopotential
        W             14.00   183.85000     W ( 1.00)

     Starting magnetic structure 
     atomic species   magnetization
        W            0.500

     48 Sym. Ops., with inversion, found


                                    s                        frac. trans.

      isym =  1     identity                                     

 cryst.   s( 1) = (     1          0          0      )
                  (     0          1          0      )
                  (     0          0          1      )

 cart.    s( 1) = (  1.0000000  0.0000000  0.0000000 )
                  (  0.0000000  1.0000000  0.0000000 )
                  (  0.0000000  0.0000000  1.0000000 )


      isym =  2     180 deg rotation - cart. axis [0,0,1]        

 cryst.   s( 2) = (    -1          0          0      )
                  (     0         -1          0      )
                  (     0          0          1      )

 cart.    s( 2) = ( -1.0000000  0.0000000  0.0000000 )
                  (  0.0000000 -1.0000000  0.0000000 )
                  (  0.0000000  0.0000000  1.0000000 )


      isym =  3     180 deg rotation - cart. axis [0,1,0]        

 cryst.   s( 3) = (    -1          0          0      )
                  (     0          1          0      )
                  (     0          0         -1      )

 cart.    s( 3) = ( -1.0000000  0.0000000  0.0000000 )
                  (  0.0000000  1.0000000  0.0000000 )
                  (  0.0000000  0.0000000 -1.0000000 )


      isym =  4     180 deg rotation - cart. axis [1,0,0]        

 cryst.   s( 4) = (     1          0          0      )
                  (     0         -1          0      )
                  (     0          0         -1      )

 cart.    s( 4) = (  1.0000000  0.0000000  0.0000000 )
                  (  0.0000000 -1.0000000  0.0000000 )
                  (  0.0000000  0.0000000 -1.0000000 )


      isym =  5     180 deg rotation - cart. axis [1,1,0]        

 cryst.   s( 5) = (     0          1          0      )
                  (     1          0          0      )
                  (     0          0         -1      )

 cart.    s( 5) = (  0.0000000  1.0000000  0.0000000 )
                  (  1.0000000  0.0000000  0.0000000 )
                  (  0.0000000  0.0000000 -1.0000000 )


      isym =  6     180 deg rotation - cart. axis [1,-1,0]       

 cryst.   s( 6) = (     0         -1          0      )
                  (    -1          0          0      )
                  (     0          0         -1      )

 cart.    s( 6) = (  0.0000000 -1.0000000  0.0000000 )
                  ( -1.0000000  0.0000000  0.0000000 )
                  (  0.0000000  0.0000000 -1.0000000 )


      isym =  7      90 deg rotation - cart. axis [0,0,-1]       

 cryst.   s( 7) = (     0         -1          0      )
                  (     1          0          0      )
                  (     0          0          1      )

 cart.    s( 7) = (  0.0000000  1.0000000  0.0000000 )
                  ( -1.0000000  0.0000000  0.0000000 )
                  (  0.0000000  0.0000000  1.0000000 )


      isym =  8      90 deg rotation - cart. axis [0,0,1]        

 cryst.   s( 8) = (     0          1          0      )
                  (    -1          0          0      )
                  (     0          0          1      )

 cart.    s( 8) = (  0.0000000 -1.0000000  0.0000000 )
                  (  1.0000000  0.0000000  0.0000000 )
                  (  0.0000000  0.0000000  1.0000000 )


      isym =  9     180 deg rotation - cart. axis [1,0,1]        

 cryst.   s( 9) = (     0          0          1      )
                  (     0         -1          0      )
                  (     1          0          0      )

 cart.    s( 9) = (  0.0000000  0.0000000  1.0000000 )
                  (  0.0000000 -1.0000000  0.0000000 )
                  (  1.0000000  0.0000000  0.0000000 )


      isym = 10     180 deg rotation - cart. axis [-1,0,1]       

 cryst.   s(10) = (     0          0         -1      )
                  (     0         -1          0      )
                  (    -1          0          0      )

 cart.    s(10) = (  0.0000000  0.0000000 -1.0000000 )
                  (  0.0000000 -1.0000000  0.0000000 )
                  ( -1.0000000  0.0000000  0.0000000 )


      isym = 11      90 deg rotation - cart. axis [0,1,0]        

 cryst.   s(11) = (     0          0         -1      )
                  (     0          1          0      )
                  (     1          0          0      )

 cart.    s(11) = (  0.0000000  0.0000000  1.0000000 )
                  (  0.0000000  1.0000000  0.0000000 )
                  ( -1.0000000  0.0000000  0.0000000 )


      isym = 12      90 deg rotation - cart. axis [0,-1,0]       

 cryst.   s(12) = (     0          0          1      )
                  (     0          1          0      )
                  (    -1          0          0      )

 cart.    s(12) = (  0.0000000  0.0000000 -1.0000000 )
                  (  0.0000000  1.0000000  0.0000000 )
                  (  1.0000000  0.0000000  0.0000000 )


      isym = 13     180 deg rotation - cart. axis [0,1,1]        

 cryst.   s(13) = (    -1          0          0      )
                  (     0          0          1      )
                  (     0          1          0      )

 cart.    s(13) = ( -1.0000000  0.0000000  0.0000000 )
                  (  0.0000000  0.0000000  1.0000000 )
                  (  0.0000000  1.0000000  0.0000000 )


      isym = 14     180 deg rotation - cart. axis [0,1,-1]       

 cryst.   s(14) = (    -1          0          0      )
                  (     0          0         -1      )
                  (     0         -1          0      )

 cart.    s(14) = ( -1.0000000  0.0000000  0.0000000 )
                  (  0.0000000  0.0000000 -1.0000000 )
                  (  0.0000000 -1.0000000  0.0000000 )


      isym = 15      90 deg rotation - cart. axis [-1,0,0]       

 cryst.   s(15) = (     1          0          0      )
                  (     0          0         -1      )
                  (     0          1          0      )

 cart.    s(15) = (  1.0000000  0.0000000  0.0000000 )
                  (  0.0000000  0.0000000  1.0000000 )
                  (  0.0000000 -1.0000000  0.0000000 )


      isym = 16      90 deg rotation - cart. axis [1,0,0]        

 cryst.   s(16) = (     1          0          0      )
                  (     0          0          1      )
                  (     0         -1          0      )

 cart.    s(16) = (  1.0000000  0.0000000  0.0000000 )
                  (  0.0000000  0.0000000 -1.0000000 )
                  (  0.0000000  1.0000000  0.0000000 )


      isym = 17     120 deg rotation - cart. axis [-1,-1,-1]     

 cryst.   s(17) = (     0          0          1      )
                  (     1          0          0      )
                  (     0          1          0      )

 cart.    s(17) = (  0.0000000  1.0000000  0.0000000 )
                  (  0.0000000  0.0000000  1.0000000 )
                  (  1.0000000  0.0000000  0.0000000 )


      isym = 18     120 deg rotation - cart. axis [-1,1,1]       

 cryst.   s(18) = (     0          0         -1      )
                  (    -1          0          0      )
                  (     0          1          0      )

 cart.    s(18) = (  0.0000000 -1.0000000  0.0000000 )
                  (  0.0000000  0.0000000  1.0000000 )
                  ( -1.0000000  0.0000000  0.0000000 )


      isym = 19     120 deg rotation - cart. axis [1,1,-1]       

 cryst.   s(19) = (     0          0         -1      )
                  (     1          0          0      )
                  (     0         -1          0      )

 cart.    s(19) = (  0.0000000  1.0000000  0.0000000 )
                  (  0.0000000  0.0000000 -1.0000000 )
                  ( -1.0000000  0.0000000  0.0000000 )


      isym = 20     120 deg rotation - cart. axis [1,-1,1]       

 cryst.   s(20) = (     0          0          1      )
                  (    -1          0          0      )
                  (     0         -1          0      )

 cart.    s(20) = (  0.0000000 -1.0000000  0.0000000 )
                  (  0.0000000  0.0000000 -1.0000000 )
                  (  1.0000000  0.0000000  0.0000000 )


      isym = 21     120 deg rotation - cart. axis [1,1,1]        

 cryst.   s(21) = (     0          1          0      )
                  (     0          0          1      )
                  (     1          0          0      )

 cart.    s(21) = (  0.0000000  0.0000000  1.0000000 )
                  (  1.0000000  0.0000000  0.0000000 )
                  (  0.0000000  1.0000000  0.0000000 )


      isym = 22     120 deg rotation - cart. axis [-1,1,-1]      

 cryst.   s(22) = (     0         -1          0      )
                  (     0          0         -1      )
                  (     1          0          0      )

 cart.    s(22) = (  0.0000000  0.0000000  1.0000000 )
                  ( -1.0000000  0.0000000  0.0000000 )
                  (  0.0000000 -1.0000000  0.0000000 )


      isym = 23     120 deg rotation - cart. axis [1,-1,-1]      

 cryst.   s(23) = (     0         -1          0      )
                  (     0          0          1      )
                  (    -1          0          0      )

 cart.    s(23) = (  0.0000000  0.0000000 -1.0000000 )
                  ( -1.0000000  0.0000000  0.0000000 )
                  (  0.0000000  1.0000000  0.0000000 )


      isym = 24     120 deg rotation - cart. axis [-1,-1,1]      

 cryst.   s(24) = (     0          1          0      )
                  (     0          0         -1      )
                  (    -1          0          0      )

 cart.    s(24) = (  0.0000000  0.0000000 -1.0000000 )
                  (  1.0000000  0.0000000  0.0000000 )
                  (  0.0000000 -1.0000000  0.0000000 )


      isym = 25     inversion                                    

 cryst.   s(25) = (    -1          0          0      )
                  (     0         -1          0      )
                  (     0          0         -1      )

 cart.    s(25) = ( -1.0000000  0.0000000  0.0000000 )
                  (  0.0000000 -1.0000000  0.0000000 )
                  (  0.0000000  0.0000000 -1.0000000 )


      isym = 26     inv. 180 deg rotation - cart. axis [0,0,1]   

 cryst.   s(26) = (     1          0          0      )
                  (     0          1          0      )
                  (     0          0         -1      )

 cart.    s(26) = (  1.0000000  0.0000000  0.0000000 )
                  (  0.0000000  1.0000000  0.0000000 )
                  (  0.0000000  0.0000000 -1.0000000 )


      isym = 27     inv. 180 deg rotation - cart. axis [0,1,0]   

 cryst.   s(27) = (     1          0          0      )
                  (     0         -1          0      )
                  (     0          0          1      )

 cart.    s(27) = (  1.0000000  0.0000000  0.0000000 )
                  (  0.0000000 -1.0000000  0.0000000 )
                  (  0.0000000  0.0000000  1.0000000 )


      isym = 28     inv. 180 deg rotation - cart. axis [1,0,0]   

 cryst.   s(28) = (    -1          0          0      )
                  (     0          1          0      )
                  (     0          0          1      )

 cart.    s(28) = ( -1.0000000  0.0000000  0.0000000 )
                  (  0.0000000  1.0000000  0.0000000 )
                  (  0.0000000  0.0000000  1.0000000 )


      isym = 29     inv. 180 deg rotation - cart. axis [1,1,0]   

 cryst.   s(29) = (     0         -1          0      )
                  (    -1          0          0      )
                  (     0          0          1      )

 cart.    s(29) = (  0.0000000 -1.0000000  0.0000000 )
                  ( -1.0000000  0.0000000  0.0000000 )
                  (  0.0000000  0.0000000  1.0000000 )


      isym = 30     inv. 180 deg rotation - cart. axis [1,-1,0]  

 cryst.   s(30) = (     0          1          0      )
                  (     1          0          0      )
                  (     0          0          1      )

 cart.    s(30) = (  0.0000000  1.0000000  0.0000000 )
                  (  1.0000000  0.0000000  0.0000000 )
                  (  0.0000000  0.0000000  1.0000000 )


      isym = 31     inv.  90 deg rotation - cart. axis [0,0,-1]  

 cryst.   s(31) = (     0          1          0      )
                  (    -1          0          0      )
                  (     0          0         -1      )

 cart.    s(31) = (  0.0000000 -1.0000000  0.0000000 )
                  (  1.0000000  0.0000000  0.0000000 )
                  (  0.0000000  0.0000000 -1.0000000 )


      isym = 32     inv.  90 deg rotation - cart. axis [0,0,1]   

 cryst.   s(32) = (     0         -1          0      )
                  (     1          0          0      )
                  (     0          0         -1      )

 cart.    s(32) = (  0.0000000  1.0000000  0.0000000 )
                  ( -1.0000000  0.0000000  0.0000000 )
                  (  0.0000000  0.0000000 -1.0000000 )


      isym = 33     inv. 180 deg rotation - cart. axis [1,0,1]   

 cryst.   s(33) = (     0          0         -1      )
                  (     0          1          0      )
                  (    -1          0          0      )

 cart.    s(33) = (  0.0000000  0.0000000 -1.0000000 )
                  (  0.0000000  1.0000000  0.0000000 )
                  ( -1.0000000  0.0000000  0.0000000 )


      isym = 34     inv. 180 deg rotation - cart. axis [-1,0,1]  

 cryst.   s(34) = (     0          0          1      )
                  (     0          1          0      )
                  (     1          0          0      )

 cart.    s(34) = (  0.0000000  0.0000000  1.0000000 )
                  (  0.0000000  1.0000000  0.0000000 )
                  (  1.0000000  0.0000000  0.0000000 )


      isym = 35     inv.  90 deg rotation - cart. axis [0,1,0]   

 cryst.   s(35) = (     0          0          1      )
                  (     0         -1          0      )
                  (    -1          0          0      )

 cart.    s(35) = (  0.0000000  0.0000000 -1.0000000 )
                  (  0.0000000 -1.0000000  0.0000000 )
                  (  1.0000000  0.0000000  0.0000000 )


      isym = 36     inv.  90 deg rotation - cart. axis [0,-1,0]  

 cryst.   s(36) = (     0          0         -1      )
                  (     0         -1          0      )
                  (     1          0          0      )

 cart.    s(36) = (  0.0000000  0.0000000  1.0000000 )
                  (  0.0000000 -1.0000000  0.0000000 )
                  ( -1.0000000  0.0000000  0.0000000 )


      isym = 37     inv. 180 deg rotation - cart. axis [0,1,1]   

 cryst.   s(37) = (     1          0          0      )
                  (     0          0         -1      )
                  (     0         -1          0      )

 cart.    s(37) = (  1.0000000  0.0000000  0.0000000 )
                  (  0.0000000  0.0000000 -1.0000000 )
                  (  0.0000000 -1.0000000  0.0000000 )


      isym = 38     inv. 180 deg rotation - cart. axis [0,1,-1]  

 cryst.   s(38) = (     1          0          0      )
                  (     0          0          1      )
                  (     0          1          0      )

 cart.    s(38) = (  1.0000000  0.0000000  0.0000000 )
                  (  0.0000000  0.0000000  1.0000000 )
                  (  0.0000000  1.0000000  0.0000000 )


      isym = 39     inv.  90 deg rotation - cart. axis [-1,0,0]  

 cryst.   s(39) = (    -1          0          0      )
                  (     0          0          1      )
                  (     0         -1          0      )

 cart.    s(39) = ( -1.0000000  0.0000000  0.0000000 )
                  (  0.0000000  0.0000000 -1.0000000 )
                  (  0.0000000  1.0000000  0.0000000 )


      isym = 40     inv.  90 deg rotation - cart. axis [1,0,0]   

 cryst.   s(40) = (    -1          0          0      )
                  (     0          0         -1      )
                  (     0          1          0      )

 cart.    s(40) = ( -1.0000000  0.0000000  0.0000000 )
                  (  0.0000000  0.0000000  1.0000000 )
                  (  0.0000000 -1.0000000  0.0000000 )


      isym = 41     inv. 120 deg rotation - cart. axis [-1,-1,-1]

 cryst.   s(41) = (     0          0         -1      )
                  (    -1          0          0      )
                  (     0         -1          0      )

 cart.    s(41) = (  0.0000000 -1.0000000  0.0000000 )
                  (  0.0000000  0.0000000 -1.0000000 )
                  ( -1.0000000  0.0000000  0.0000000 )


      isym = 42     inv. 120 deg rotation - cart. axis [-1,1,1]  

 cryst.   s(42) = (     0          0          1      )
                  (     1          0          0      )
                  (     0         -1          0      )

 cart.    s(42) = (  0.0000000  1.0000000  0.0000000 )
                  (  0.0000000  0.0000000 -1.0000000 )
                  (  1.0000000  0.0000000  0.0000000 )


      isym = 43     inv. 120 deg rotation - cart. axis [1,1,-1]  

 cryst.   s(43) = (     0          0          1      )
                  (    -1          0          0      )
                  (     0          1          0      )

 cart.    s(43) = (  0.0000000 -1.0000000  0.0000000 )
                  (  0.0000000  0.0000000  1.0000000 )
                  (  1.0000000  0.0000000  0.0000000 )


      isym = 44     inv. 120 deg rotation - cart. axis [1,-1,1]  

 cryst.   s(44) = (     0          0         -1      )
                  (     1          0          0      )
                  (     0          1          0      )

 cart.    s(44) = (  0.0000000  1.0000000  0.0000000 )
                  (  0.0000000  0.0000000  1.0000000 )
                  ( -1.0000000  0.0000000  0.0000000 )


      isym = 45     inv. 120 deg rotation - cart. axis [1,1,1]   

 cryst.   s(45) = (     0         -1          0      )
                  (     0          0         -1      )
                  (    -1          0          0      )

 cart.    s(45) = (  0.0000000  0.0000000 -1.0000000 )
                  ( -1.0000000  0.0000000  0.0000000 )
                  (  0.0000000 -1.0000000  0.0000000 )


      isym = 46     inv. 120 deg rotation - cart. axis [-1,1,-1] 

 cryst.   s(46) = (     0          1          0      )
                  (     0          0          1      )
                  (    -1          0          0      )

 cart.    s(46) = (  0.0000000  0.0000000 -1.0000000 )
                  (  1.0000000  0.0000000  0.0000000 )
                  (  0.0000000  1.0000000  0.0000000 )


      isym = 47     inv. 120 deg rotation - cart. axis [1,-1,-1] 

 cryst.   s(47) = (     0          1          0      )
                  (     0          0         -1      )
                  (     1          0          0      )

 cart.    s(47) = (  0.0000000  0.0000000  1.0000000 )
                  (  1.0000000  0.0000000  0.0000000 )
                  (  0.0000000 -1.0000000  0.0000000 )


      isym = 48     inv. 120 deg rotation - cart. axis [-1,-1,1] 

 cryst.   s(48) = (     0         -1          0      )
                  (     0          0          1      )
                  (     1          0          0      )

 cart.    s(48) = (  0.0000000  0.0000000  1.0000000 )
                  ( -1.0000000  0.0000000  0.0000000 )
                  (  0.0000000  1.0000000  0.0000000 )


   Cartesian axes

     site n.     atom                  positions (alat units)
         1           W   tau(   1) = (   0.5000000   0.5000000   0.5000000  )

   Crystallographic axes

     site n.     atom                  positions (cryst. coord.)
         1           W   tau(   1) = (  0.5000000  0.5000000  0.5000000  )

     number of k points=     1
                       cart. coord. in units 2pi/alat
        k(    1) = (   0.0000000   0.0000000   0.0000000), wk =   1.0000000

                       cryst. coord.
        k(    1) = (   0.0000000   0.0000000   0.0000000), wk =   1.0000000

     Dense  grid:  5607075 G-vectors     FFT dimensions: ( 288, 288, 288)

     Dynamical RAM for                 wfc:       4.01 MB

     Dynamical RAM for     wfc (w. buffer):      12.03 MB

     Dynamical RAM for           str. fact:       2.67 MB

     Dynamical RAM for           local pot:       0.00 MB

     Dynamical RAM for          nlocal pot:       4.34 MB

     Dynamical RAM for                qrad:       4.45 MB

     Dynamical RAM for          rho,v,vnew:      50.21 MB

     Dynamical RAM for               rhoin:      16.74 MB

     Dynamical RAM for            rho*nmix:      85.56 MB

     Dynamical RAM for           G-vectors:      11.36 MB

     Dynamical RAM for          h,s,v(r/c):       0.00 MB

     Dynamical RAM for          <psi|beta>:       0.00 MB

     Dynamical RAM for                 psi:      16.04 MB

     Dynamical RAM for                hpsi:      16.04 MB

     Dynamical RAM for      wfcinit/wfcrot:      10.70 MB

     Estimated static dynamical RAM per process >     226.89 MB

     Estimated max dynamical RAM per process >     258.97 MB

     Estimated total dynamical RAM >       8.09 GB
     Generating pointlists ...
     new r_m :   0.4125 (alat units)  9.3541 (a.u.) for type    1

     Initial potential from superposition of free atoms

     starting charge   11.30112, renormalised to   14.00000

     negative rho (up, down):  1.662E-03 0.000E+00
     Starting wfcs are   16 randomized atomic wfcs

     total cpu time spent up to now is        7.5 secs

     Self-consistent Calculation

     iteration #  1     ecut=   370.00 Ry     beta= 0.70
     Davidson diagonalization with overlap
     ethr =  1.00E-02,  avg # of iterations = 13.0

     negative rho (up, down):  1.087E-07 7.312E-03

     total cpu time spent up to now is       20.1 secs

     total energy              =    -127.65456104 Ry
     Harris-Foulkes estimate   =    -137.03944118 Ry
     estimated scf accuracy    <      12.20020689 Ry

     total magnetization       =     4.00 Bohr mag/cell
     absolute magnetization    =     4.08 Bohr mag/cell

     iteration #  2     ecut=   370.00 Ry     beta= 0.70
     Davidson diagonalization with overlap
     ethr =  1.00E-02,  avg # of iterations =  7.5

     negative rho (up, down):  5.871E-08 5.584E-03

     total cpu time spent up to now is       30.4 secs

     total energy              =    -134.64642276 Ry
     Harris-Foulkes estimate   =    -138.68501506 Ry
     estimated scf accuracy    <       6.99600457 Ry

     total magnetization       =     4.00 Bohr mag/cell
     absolute magnetization    =     4.00 Bohr mag/cell

     iteration #  3     ecut=   370.00 Ry     beta= 0.70
     Davidson diagonalization with overlap
     ethr =  1.00E-02,  avg # of iterations =  2.0

     negative rho (up, down):  5.077E-08 5.598E-03

     total cpu time spent up to now is       36.8 secs

     total energy              =    -134.89401295 Ry
     Harris-Foulkes estimate   =    -135.07468024 Ry
     estimated scf accuracy    <       1.24750809 Ry

     total magnetization       =     4.00 Bohr mag/cell
     absolute magnetization    =     4.08 Bohr mag/cell

     iteration #  4     ecut=   370.00 Ry     beta= 0.70
     Davidson diagonalization with overlap
     ethr =  8.91E-03,  avg # of iterations =  1.0

     negative rho (up, down):  4.682E-08 5.627E-03

     total cpu time spent up to now is       42.5 secs

     total energy              =    -134.94062044 Ry
     Harris-Foulkes estimate   =    -134.92024891 Ry
     estimated scf accuracy    <       0.72779538 Ry

     total magnetization       =     4.00 Bohr mag/cell
     absolute magnetization    =     4.18 Bohr mag/cell

     iteration #  5     ecut=   370.00 Ry     beta= 0.70
     Davidson diagonalization with overlap
     ethr =  5.20E-03,  avg # of iterations =  1.0

     negative rho (up, down):  1.783E-07 7.922E-03

     total cpu time spent up to now is       48.3 secs

     total energy              =    -134.92843165 Ry
     Harris-Foulkes estimate   =    -134.95209890 Ry
     estimated scf accuracy    <       0.82869200 Ry

     total magnetization       =     4.00 Bohr mag/cell
     absolute magnetization    =     4.14 Bohr mag/cell

     iteration #  6     ecut=   370.00 Ry     beta= 0.70
     Davidson diagonalization with overlap
     ethr =  5.20E-03,  avg # of iterations =  1.0

     negative rho (up, down):  2.248E-07 8.762E-03

     total cpu time spent up to now is       54.2 secs

     total energy              =    -134.78509388 Ry
     Harris-Foulkes estimate   =    -134.96023468 Ry
     estimated scf accuracy    <       1.03026563 Ry

     total magnetization       =     4.00 Bohr mag/cell
     absolute magnetization    =     4.12 Bohr mag/cell

     iteration #  7     ecut=   370.00 Ry     beta= 0.70
     Davidson diagonalization with overlap
     ethr =  5.20E-03,  avg # of iterations =  1.0

     negative rho (up, down):  5.358E-07 2.793E-02

     total cpu time spent up to now is       60.1 secs

     total energy              =    -134.51948704 Ry
     Harris-Foulkes estimate   =    -134.80125065 Ry
     estimated scf accuracy    <       0.64290343 Ry

     total magnetization       =     4.00 Bohr mag/cell
     absolute magnetization    =     4.16 Bohr mag/cell

     iteration #  8     ecut=   370.00 Ry     beta= 0.70
     Davidson diagonalization with overlap
     ethr =  4.59E-03,  avg # of iterations =  2.0

     negative rho (up, down):  6.360E-07 3.060E-02

     total cpu time spent up to now is       66.2 secs

     total energy              =    -134.56583459 Ry
     Harris-Foulkes estimate   =    -134.58036364 Ry
     estimated scf accuracy    <       0.30161494 Ry

     total magnetization       =     4.00 Bohr mag/cell
     absolute magnetization    =     4.14 Bohr mag/cell

     iteration #  9     ecut=   370.00 Ry     beta= 0.70
     Davidson diagonalization with overlap
     ethr =  2.15E-03,  avg # of iterations =  1.0

     negative rho (up, down):  1.873E-06 3.222E-02

     total cpu time spent up to now is       72.1 secs

     total energy              =    -134.54935096 Ry
     Harris-Foulkes estimate   =    -134.57142165 Ry
     estimated scf accuracy    <       0.31365522 Ry

     total magnetization       =     4.00 Bohr mag/cell
     absolute magnetization    =     4.12 Bohr mag/cell

     iteration # 10     ecut=   370.00 Ry     beta= 0.70
     Davidson diagonalization with overlap
     ethr =  2.15E-03,  avg # of iterations =  1.0

     negative rho (up, down):  8.977E-03 1.581E-01

     total cpu time spent up to now is       77.8 secs

     total energy              =    -134.60643065 Ry
     Harris-Foulkes estimate   =    -134.55311283 Ry
     estimated scf accuracy    <       0.35928513 Ry

     total magnetization       =     4.00 Bohr mag/cell
     absolute magnetization    =     4.08 Bohr mag/cell

     iteration # 11     ecut=   370.00 Ry     beta= 0.70
     Davidson diagonalization with overlap
     ethr =  2.15E-03,  avg # of iterations =  2.0

     negative rho (up, down):  7.748E-08 1.772E-01

     total cpu time spent up to now is       84.0 secs

     total energy              =    -134.66022164 Ry
     Harris-Foulkes estimate   =    -134.64513441 Ry
     estimated scf accuracy    <       0.09476300 Ry

     total magnetization       =     4.00 Bohr mag/cell
     absolute magnetization    =     4.13 Bohr mag/cell

     iteration # 12     ecut=   370.00 Ry     beta= 0.70
     Davidson diagonalization with overlap
     ethr =  6.77E-04,  avg # of iterations =  1.0

     negative rho (up, down):  1.482E-07 9.951E-02

     total cpu time spent up to now is       89.9 secs

     total energy              =    -134.67574497 Ry
     Harris-Foulkes estimate   =    -134.66374976 Ry
     estimated scf accuracy    <       0.05828250 Ry

     total magnetization       =     4.00 Bohr mag/cell
     absolute magnetization    =     4.16 Bohr mag/cell

     iteration # 13     ecut=   370.00 Ry     beta= 0.70
     Davidson diagonalization with overlap
     ethr =  4.16E-04,  avg # of iterations =  3.0

     negative rho (up, down):  3.634E-03 5.633E-01

     total cpu time spent up to now is       96.4 secs

     total energy              =    -134.71427037 Ry
     Harris-Foulkes estimate   =    -134.69381713 Ry
     estimated scf accuracy    <       0.03351610 Ry

     total magnetization       =     4.00 Bohr mag/cell
     absolute magnetization    =     4.28 Bohr mag/cell

     iteration # 14     ecut=   370.00 Ry     beta= 0.70
     Davidson diagonalization with overlap
     ethr =  2.39E-04,  avg # of iterations =  5.0

     negative rho (up, down):  5.239E-03 5.693E-01

     total cpu time spent up to now is      104.1 secs

     total energy              =    -134.75220300 Ry
     Harris-Foulkes estimate   =    -134.74497096 Ry
     estimated scf accuracy    <       0.16944082 Ry

     total magnetization       =     4.00 Bohr mag/cell
     absolute magnetization    =     4.54 Bohr mag/cell

     iteration # 15     ecut=   370.00 Ry     beta= 0.70
     Davidson diagonalization with overlap
     ethr =  2.39E-04,  avg # of iterations =  1.0

     negative rho (up, down):  7.987E-03 5.517E-01

     total cpu time spent up to now is      109.8 secs

     total energy              =    -134.71005460 Ry
     Harris-Foulkes estimate   =    -134.75316635 Ry
     estimated scf accuracy    <       0.20123450 Ry

     total magnetization       =     4.00 Bohr mag/cell
     absolute magnetization    =     4.56 Bohr mag/cell

     iteration # 16     ecut=   370.00 Ry     beta= 0.70
     Davidson diagonalization with overlap
     ethr =  2.39E-04,  avg # of iterations =  2.0

     negative rho (up, down):  1.171E-02 5.053E-01

     total cpu time spent up to now is      115.7 secs

     total energy              =    -134.69935649 Ry
     Harris-Foulkes estimate   =    -134.71841419 Ry
     estimated scf accuracy    <       0.08819091 Ry

     total magnetization       =     4.00 Bohr mag/cell
     absolute magnetization    =     4.44 Bohr mag/cell

     iteration # 17     ecut=   370.00 Ry     beta= 0.70
     Davidson diagonalization with overlap
     ethr =  2.39E-04,  avg # of iterations =  2.0

     negative rho (up, down):  1.250E-02 4.727E-01

     total cpu time spent up to now is      121.7 secs

     total energy              =    -134.69493557 Ry
     Harris-Foulkes estimate   =    -134.70339139 Ry
     estimated scf accuracy    <       0.04287307 Ry

     total magnetization       =     4.00 Bohr mag/cell
     absolute magnetization    =     4.37 Bohr mag/cell

     iteration # 18     ecut=   370.00 Ry     beta= 0.70
     Davidson diagonalization with overlap
     ethr =  2.39E-04,  avg # of iterations =  1.0

     negative rho (up, down):  8.395E-03 5.245E-01

     total cpu time spent up to now is      127.4 secs

     total energy              =    -134.69395572 Ry
     Harris-Foulkes estimate   =    -134.69666916 Ry
     estimated scf accuracy    <       0.02574389 Ry

     total magnetization       =     4.00 Bohr mag/cell
     absolute magnetization    =     4.32 Bohr mag/cell

     iteration # 19     ecut=   370.00 Ry     beta= 0.70
     Davidson diagonalization with overlap
     ethr =  1.84E-04,  avg # of iterations =  1.0

     negative rho (up, down):  1.149E-07 2.524E-01

     total cpu time spent up to now is      133.3 secs

     total energy              =    -134.69434729 Ry
     Harris-Foulkes estimate   =    -134.69609181 Ry
     estimated scf accuracy    <       0.01015747 Ry

     total magnetization       =     4.00 Bohr mag/cell
     absolute magnetization    =     4.32 Bohr mag/cell

     iteration # 20     ecut=   370.00 Ry     beta= 0.70
     Davidson diagonalization with overlap
     ethr =  7.26E-05,  avg # of iterations =  3.0

     negative rho (up, down):  6.025E-13 9.293E-05

     total cpu time spent up to now is      140.5 secs

     total energy              =    -134.69783060 Ry
     Harris-Foulkes estimate   =    -134.69803407 Ry
     estimated scf accuracy    <       0.00125483 Ry

     total magnetization       =     4.00 Bohr mag/cell
     absolute magnetization    =     4.31 Bohr mag/cell

     iteration # 21     ecut=   370.00 Ry     beta= 0.70
     Davidson diagonalization with overlap
     ethr =  8.96E-06,  avg # of iterations =  7.5

     negative rho (up, down):  8.722E-14 4.890E-05

     total cpu time spent up to now is      149.0 secs

     total energy              =    -134.69838077 Ry
     Harris-Foulkes estimate   =    -134.69850010 Ry
     estimated scf accuracy    <       0.00057555 Ry

     total magnetization       =     4.00 Bohr mag/cell
     absolute magnetization    =     4.35 Bohr mag/cell

     iteration # 22     ecut=   370.00 Ry     beta= 0.70
     Davidson diagonalization with overlap
     ethr =  4.11E-06,  avg # of iterations =  2.0

     negative rho (up, down):  0.000E+00 5.442E-06

     total cpu time spent up to now is      155.2 secs

     total energy              =    -134.69841417 Ry
     Harris-Foulkes estimate   =    -134.69844969 Ry
     estimated scf accuracy    <       0.00012006 Ry

     total magnetization       =     4.00 Bohr mag/cell
     absolute magnetization    =     4.35 Bohr mag/cell

     iteration # 23     ecut=   370.00 Ry     beta= 0.70
     Davidson diagonalization with overlap
     ethr =  8.58E-07,  avg # of iterations =  3.5

     negative rho (up, down):  0.000E+00 1.005E-02

     total cpu time spent up to now is      162.2 secs

     total energy              =    -134.69845895 Ry
     Harris-Foulkes estimate   =    -134.69845305 Ry
     estimated scf accuracy    <       0.00000444 Ry

     total magnetization       =     4.00 Bohr mag/cell
     absolute magnetization    =     4.35 Bohr mag/cell

     iteration # 24     ecut=   370.00 Ry     beta= 0.70
     Davidson diagonalization with overlap
     ethr =  3.17E-08,  avg # of iterations =  4.0

     total cpu time spent up to now is      169.5 secs

     total energy              =    -134.69846107 Ry
     Harris-Foulkes estimate   =    -134.69846333 Ry
     estimated scf accuracy    <       0.00000461 Ry

     total magnetization       =     4.00 Bohr mag/cell
     absolute magnetization    =     4.35 Bohr mag/cell

     iteration # 25     ecut=   370.00 Ry     beta= 0.70
     Davidson diagonalization with overlap
     ethr =  3.17E-08,  avg # of iterations =  2.0
 
     Magnetic moment per site:
     atom:    1    charge:   13.9994    magn:    4.0001    constr:    0.0000

     total cpu time spent up to now is      175.1 secs

     End of self-consistent calculation

 ------ SPIN UP ------------


          k = 0.0000 0.0000 0.0000 (700694 PWs)   bands (ev):

   -77.8182 -42.9041 -42.8760 -42.8757  -5.7628  -4.7924  -4.7920  -4.7740
    -4.7738  -3.9243  -1.2476  -1.2475

     occupation numbers 
     1.0000   1.0000   1.0000   1.0000   1.0000   1.0000   1.0000   1.0000
     1.0000   0.0000   0.0000   0.0000

 ------ SPIN DOWN ----------


          k = 0.0000 0.0000 0.0000 (700694 PWs)   bands (ev):

   -76.2722 -41.3600 -40.5172 -40.5161  -4.4843  -2.8900  -2.2461  -2.2454
    -1.7656  -1.7647  -0.8695  -0.2216

     occupation numbers 
     1.0000   1.0000   1.0000   1.0000   1.0000   0.0000   0.0000   0.0000
     0.0000   0.0000   0.0000   0.0000

     highest occupied, lowest unoccupied level (ev):    -4.4843   -3.9243

!    total energy              =    -134.69846264 Ry
     Harris-Foulkes estimate   =    -134.69846245 Ry
     estimated scf accuracy    <       0.00000033 Ry

     The total energy is the sum of the following terms:

     one-electron contribution =    -177.77972284 Ry
     hartree contribution      =      82.76561259 Ry
     xc contribution           =     -15.16094410 Ry
     ewald contribution        =     -24.52340829 Ry

     total magnetization       =     4.00 Bohr mag/cell
     absolute magnetization    =     4.36 Bohr mag/cell

     convergence has been achieved in  25 iterations

     Writing output data file pwscf.save/
 
     init_run     :      7.04s CPU      7.38s WALL (       1 calls)
     electrons    :    165.21s CPU    168.16s WALL (       1 calls)

     Called by init_run:
     wfcinit      :      1.52s CPU      1.58s WALL (       1 calls)
     wfcinit:atom :      0.03s CPU      0.04s WALL (       2 calls)
     wfcinit:wfcr :      1.45s CPU      1.49s WALL (       2 calls)
     potinit      :      1.84s CPU      1.95s WALL (       1 calls)
     hinit0       :      0.19s CPU      0.29s WALL (       1 calls)

     Called by electrons:
     c_bands      :     80.82s CPU     81.95s WALL (      25 calls)
     sum_band     :     26.47s CPU     26.55s WALL (      25 calls)
     v_of_rho     :     43.04s CPU     44.30s WALL (      26 calls)
     v_h          :      3.16s CPU      3.18s WALL (      26 calls)
     v_xc         :     39.88s CPU     41.12s WALL (      26 calls)
     mix_rho      :     14.80s CPU     15.01s WALL (      25 calls)

     Called by c_bands:
     init_us_2    :      0.83s CPU      0.83s WALL (     102 calls)
     regterg      :     79.29s CPU     80.41s WALL (      50 calls)

     Called by sum_band:

     Called by *egterg:
     h_psi        :     73.46s CPU     73.70s WALL (     193 calls)
     g_psi        :      0.24s CPU      0.24s WALL (     141 calls)
     rdiaghg      :      0.20s CPU      0.21s WALL (     191 calls)
     regterg:over :      1.62s CPU      1.62s WALL (     141 calls)
     regterg:upda :      2.98s CPU      3.00s WALL (     141 calls)
     regterg:last :      0.94s CPU      0.95s WALL (      55 calls)
     rdiaghg:chol :      0.03s CPU      0.03s WALL (     191 calls)
     rdiaghg:inve :      0.00s CPU      0.01s WALL (     191 calls)
     rdiaghg:para :      0.02s CPU      0.03s WALL (     382 calls)

     Called by h_psi:
     h_psi:pot    :     72.98s CPU     73.20s WALL (     193 calls)
     h_psi:calbec :      0.48s CPU      0.50s WALL (     193 calls)
     vloc_psi     :     71.89s CPU     72.10s WALL (     193 calls)
     add_vuspsi   :      0.60s CPU      0.60s WALL (     193 calls)

     General routines
     calbec       :      0.48s CPU      0.50s WALL (     193 calls)
     fft          :     36.09s CPU     36.49s WALL (     386 calls)
     ffts         :      3.88s CPU      3.89s WALL (      50 calls)
     fftw         :     69.12s CPU     69.34s WALL (    1994 calls)
 
     Parallel routines
     fft_scatt_xy :     19.28s CPU     19.31s WALL (    2430 calls)
     fft_scatt_yz :     38.72s CPU     39.10s WALL (    2430 calls)
 
     PWSCF        :   2m52.67s CPU   2m56.78s WALL

 
   This run was terminated on:  19:52:59  17Jan2022            

=------------------------------------------------------------------------------=
   JOB DONE.
=------------------------------------------------------------------------------=
